INSANE! Membrane UpperLeaflet>loPI:POPI:DPPI:PYPI:ERGO=180.0:5.0:3.0:2.0:10.0 LowerLeaflet>PSPI:POPI:POPS:YOPS:POPE:YOPE:POPC:YOPC:ERGO=6.0:14.0:21.0:9.0:9.0:21.0:12.0:48.0:60.0
49069
    1loPI    C1    1  12.665   6.141  10.302  0.3589 -0.1311 -0.0243
    1loPI    C2    2  12.740   6.240  10.683  0.1242  0.0160 -0.0143
    1loPI    C3    3  12.844   5.879  10.545  0.2573 -0.0189  0.1739
    1loPI   PO4    4  12.711   6.444  10.109  0.0298 -0.4437  0.0541
    1loPI   GL1    5  12.774   6.635   9.766 -0.1709  0.0341  0.0079
    1loPI   GL2    6  12.926   6.925   9.813 -0.1651 -0.0155 -0.1810
    1loPI   C1A    7  13.088   6.524   9.525  0.1616  0.2273  0.1668
    1loPI   C2A    8  13.159   6.351   9.173  0.1511  0.4596 -0.0643
    1loPI   C3A    9  13.103   6.670   8.920  0.0102 -0.1251 -0.3294
    1loPI   C4A   10  12.812   6.643   8.501 -0.0564 -0.0686 -0.3302
    1loPI   C5A   11  12.823   6.469   8.044  0.2635 -0.1884  0.1402
    1loPI   C6A   12  13.314   6.609   7.707 -0.0859 -0.1536  0.1142
    1loPI   C1B   13  12.683   6.963   9.349  0.1849  0.0827  0.1388
    1loPI   C2B   14  12.561   6.887   8.932 -0.2333 -0.0532  0.1306
    1loPI   C3B   15  12.294   6.982   8.710  0.1323  0.1379 -0.0012
    1loPI   C4B   16  12.277   6.818   8.337  0.0801 -0.1332 -0.0950
    2loPI    C1   17  10.952   3.706  10.256  0.1076 -0.1107  0.1856
    2loPI    C2   18  10.654   3.735  10.521 -0.0293  0.1523  0.0079
    2loPI    C3   19  11.011   3.896  10.602 -0.0067  0.0476  0.1194
    2loPI   PO4   20  10.850   3.646  10.040 -0.0452  0.1353 -0.0041
    2loPI   GL1   21  10.645   3.393   9.743  0.1825 -0.1310  0.1597
    2loPI   GL2   22  11.016   3.390   9.577  0.0433 -0.2663 -0.0012
    2loPI   C1A   23  10.569   3.601   9.271  0.2152 -0.1338  0.0691
    2loPI   C2A   24  10.853   3.627   8.919 -0.2036  0.0158  0.0644
    2loPI   C3A   25  11.113   3.733   8.527 -0.1771  0.1445 -0.3989
    2loPI   C4A   26  11.081   3.719   8.075  0.0211  0.1103  0.1742
    2loPI   C5A   27  11.025   3.628   7.641  0.3628 -0.3033 -0.2323
    2loPI   C6A   28  10.613   3.562   7.463  0.2497  0.0984 -0.1762
    2loPI   C1B   29  11.169   3.283   9.171  0.0145  0.2897  0.2918
    2loPI   C2B   30  11.341   3.347   8.774  0.1481 -0.2415 -0.2407
    2loPI   C3B   31  11.270   3.292   8.285 -0.1262 -0.1300 -0.2902
    2loPI   C4B   32  11.180   3.064   7.887 -0.0370  0.0884  0.0126
    3loPI    C1   33   2.576   5.944   9.732  0.1100 -0.2663  0.0034
    3loPI    C2   34   2.683   6.030  10.108 -0.1275  0.0864 -0.0044
    3loPI    C3   35   2.342   5.833  10.037 -0.0687 -0.0053 -0.0355
    3loPI   PO4   36   2.803   5.833   9.658 -0.3252  0.2203 -0.0447
    3loPI   GL1   37   2.832   5.670   9.288  0.0735 -0.0650  0.4915
    3loPI   GL2   38   3.159   5.706   9.384  0.3660 -0.2989  0.0845
    3loPI   C1A   39   2.562   5.981   8.975 -0.0619 -0.0448  0.0911
    3loPI   C2A   40   2.444   6.153   8.553 -0.1552 -0.2371 -0.1670
    3loPI   C3A   41   2.290   6.174   8.087  0.3237  0.1334 -0.1693
    3loPI   C4A   42   2.065   6.167   7.666 -0.1014 -0.1972 -0.2331
    3loPI   C5A   43   1.726   6.328   7.444 -0.0031 -0.1935  0.1714
    3loPI   C6A   44   1.412   6.539   7.471  0.0942  0.0640  0.1458
    3loPI   C1B   45   3.133   5.792   8.906 -0.5245 -0.1095 -0.0335
    3loPI   C2B   46   2.931   6.067   8.566 -0.0354 -0.0175 -0.0434
    3loPI   C3B   47   2.804   6.203   8.213 -0.0504  0.2063 -0.1847
    3loPI   C4B   48   2.999   6.514   7.904  0.3569  0.1394 -0.2441
    4loPI    C1   49   0.700   5.135   9.952  0.2623 -0.0751  0.1990
    4loPI    C2   50   0.715   5.313  10.310 -0.1142  0.1360  0.1159
    4loPI    C3   51   0.535   4.958  10.270 -0.1705  0.1644  0.1158
    4loPI   PO4   52   0.692   5.253   9.725  0.0968  0.3376 -0.0556
    4loPI   GL1   53   0.623   5.283   9.307 -0.1990  0.2189  0.0309
    4loPI   GL2   54   0.338   5.098   9.360 -0.3127  0.0474 -0.2199
    4loPI   C1A   55   0.711   5.310   8.855  0.1143  0.1840 -0.0321
    4loPI   C2A   56   0.680   5.409   8.469  0.1493  0.0799  0.1922
    4loPI   C3A   57   0.990   5.305   8.001  0.1851  0.1875  0.0305
    4loPI   C4A   58   1.024   5.406   7.562  0.0556  0.3686 -0.1376
    4loPI   C5A   59   1.190   5.639   7.239  0.3159  0.2774  0.0415
    4loPI   C6A   60   1.216   5.672   6.858 -0.3418  0.1305 -0.1068
    4loPI   C1B   61   0.224   5.234   8.890 -0.0540 -0.0591  0.2275
    4loPI   C2B   62   0.218   5.244   8.467  0.0792 -0.1582 -0.0008
    4loPI   C3B   63   0.355   5.303   8.016  0.0585 -0.1256  0.0734
    4loPI   C4B   64   0.450   5.366   7.621 -0.1141  0.0465 -0.1932
    5loPI    C1   65   7.836  11.305  10.226  0.1236 -0.0027 -0.0609
    5loPI    C2   66   8.172  11.123  10.346  0.0772 -0.0537 -0.0080
    5loPI    C3   67   7.817  10.950  10.409  0.0269  0.0901  0.1114
    5loPI   PO4   68   7.918  11.372   9.945 -0.0957  0.0896 -0.0215
    5loPI   GL1   69   7.990  11.718   9.700  0.1529 -0.0290 -0.1836
    5loPI   GL2   70   7.642  11.816   9.639 -0.2332  0.2758 -0.4077
    5loPI   C1A   71   7.998  11.545   9.339  0.2152  0.1469 -0.0303
    5loPI   C2A   72   7.847  11.523   8.924 -0.0756 -0.2043 -0.0258
    5loPI   C3A   73   8.037  11.556   8.505  0.1440  0.1617 -0.1259
    5loPI   C4A   74   8.268  11.798   8.201 -0.1881 -0.0586 -0.0713
    5loPI   C5A   75   8.599  11.892   7.882  0.2612 -0.3782 -0.0571
    5loPI   C6A   76   9.104  11.860   7.911  0.2694 -0.1735  0.2703
    5loPI   C1B   77   7.587  11.862   9.241 -0.2721  0.1336 -0.0501
    5loPI   C2B   78   7.508  11.805   8.709 -0.0633  0.1892 -0.0885
    5loPI   C3B   79   7.282  12.070   8.375  0.3009 -0.1349  0.1588
    5loPI   C4B   80   7.286  12.442   7.987  0.1084 -0.0563  0.0156
    6loPI    C1   81   4.649   0.981   9.930  0.0872 -0.0607  0.0741
    6loPI    C2   82   5.022   0.965  10.072  0.1054  0.2491  0.0682
    6loPI    C3   83   4.721   1.069  10.313  0.0538  0.2092  0.0210
    6loPI   PO4   84   4.696   1.171   9.705 -0.1969 -0.1610  0.2890
    6loPI   GL1   85   4.622   1.234   9.410 -0.0792 -0.0264 -0.2267
    6loPI   GL2   86   4.444   0.977   9.370 -0.0926  0.3473 -0.3808
    6loPI   C1A   87   4.640   1.573   9.182 -0.1092  0.1854  0.1846
    6loPI   C2A   88   4.786   1.665   8.818  0.1479 -0.2448 -0.0508
    6loPI   C3A   89   5.105   1.625   8.511 -0.0395  0.0307  0.1341
    6loPI   C4A   90   5.373   1.654   8.259  0.2417 -0.2615 -0.1370
    6loPI   C5A   91   5.500   1.430   7.840 -0.0360  0.1031 -0.0559
    6loPI   C6A   92   5.544   1.367   7.356  0.3277  0.1590  0.0222
    6loPI   C1B   93   4.506   1.055   8.986 -0.2419 -0.0469 -0.0137
    6loPI   C2B   94   4.422   1.240   8.672  0.1441 -0.0371  0.1598
    6loPI   C3B   95   4.468   1.511   8.424 -0.1244 -0.0065 -0.1423
    6loPI   C4B   96   4.454   1.731   8.084  0.1306  0.0460 -0.1669
    7loPI    C1   97   2.903   2.710  10.123 -0.0803  0.1860  0.1635
    7loPI    C2   98   3.263   2.692  10.297 -0.0018 -0.0267 -0.0153
    7loPI    C3   99   2.932   2.675  10.521  0.0978  0.1656  0.1498
    7loPI   PO4  100   2.937   2.540   9.802  0.0109  0.2600  0.0174
    7loPI   GL1  101   2.922   2.519   9.481  0.2515  0.0417  0.2946
    7loPI   GL2  102   2.531   2.630   9.458  0.2097 -0.0710  0.1510
    7loPI   C1A  103   2.743   2.402   9.081  0.0354 -0.1705  0.1317
    7loPI   C2A  104   2.634   2.238   8.642 -0.2671 -0.3815 -0.2162
    7loPI   C3A  105   2.597   2.139   8.226 -0.3147 -0.0463 -0.1234
    7loPI   C4A  106   2.385   2.090   7.898  0.1700 -0.3736 -0.0772
    7loPI   C5A  107   2.207   2.314   7.499  0.0268  0.0012 -0.1101
    7loPI   C6A  108   2.397   2.606   7.133 -0.1938  0.2960 -0.1052
    7loPI   C1B  109   2.291   2.433   9.175 -0.1859 -0.2691  0.1556
    7loPI   C2B  110   2.111   2.256   8.747 -0.1302  0.0159 -0.1632
    7loPI   C3B  111   2.119   2.076   8.326  0.3297 -0.2195 -0.1718
    7loPI   C4B  112   1.888   2.273   7.947  0.2673  0.2991 -0.5601
    8loPI    C1  113  18.700  13.211   9.846  0.0279 -0.1184 -0.1188
    8loPI    C2  114  18.453  13.188  10.160  0.0300  0.0850 -0.1010
    8loPI    C3  115  18.789  12.970  10.153 -0.1489 -0.1950 -0.1261
    8loPI   PO4  116  18.704  13.432   9.765 -0.1494  0.2783 -0.2663
    8loPI   GL1  117  18.503  13.484   9.446 -0.1799  0.0648 -0.0116
    8loPI   GL2  118  18.483  13.132   9.421  0.1541  0.4836  0.1367
    8loPI   C1A  119  18.505  13.747   9.101  0.1854  0.1235 -0.0273
    8loPI   C2A  120  18.586  14.148   8.966  0.1327  0.2516 -0.0025
    8loPI   C3A  121  18.664  14.278   8.505  0.1214 -0.3034  0.0467
    8loPI   C4A  122  18.822  14.044   8.116 -0.0050 -0.2498  0.0578
    8loPI   C5A  123  18.776  13.850   7.728  0.1041 -0.1115 -0.0119
    8loPI   C6A  124  18.572  13.966   7.306 -0.1061 -0.1447  0.0518
    8loPI   C1B  125  18.384  13.002   8.966  0.1251  0.0848 -0.0443
    8loPI   C2B  126  18.574  12.649   8.524  0.3152  0.0425  0.0114
    8loPI   C3B  127  18.456  12.530   8.096  0.0948 -0.2295 -0.2136
    8loPI   C4B  128  18.526  12.390   7.818  0.0908  0.4162 -0.1377
    9loPI    C1  129   4.698   7.280  10.095 -0.0918  0.1249  0.0857
    9loPI    C2  130   4.350   7.230   9.903  0.0777 -0.0852 -0.1744
    9loPI    C3  131   4.355   7.276  10.300 -0.2531  0.0190 -0.1798
    9loPI   PO4  132   4.812   7.173   9.894  0.1545 -0.1337  0.0531
    9loPI   GL1  133   4.640   7.203   9.399 -0.2380 -0.0103  0.0257
    9loPI   GL2  134   4.324   7.325   9.341 -0.0576  0.1554 -0.1250
    9loPI   C1A  135   4.949   7.485   9.027  0.1007  0.0772 -0.1184
    9loPI   C2A  136   5.104   7.376   8.501 -0.2767  0.0166  0.2536
    9loPI   C3A  137   5.019   7.399   8.114 -0.0298 -0.1326 -0.0792
    9loPI   C4A  138   5.255   7.353   7.742  0.2873 -0.0837 -0.0851
    9loPI   C5A  139   5.644   7.306   7.633 -0.0313 -0.3156 -0.0960
    9loPI   C6A  140   5.980   7.485   7.459  0.2171  0.1413 -0.4668
    9loPI   C1B  141   4.502   7.224   8.869 -0.2957  0.1451 -0.1527
    9loPI   C2B  142   4.689   7.076   8.473 -0.0852  0.2895  0.1458
    9loPI   C3B  143   4.722   6.959   8.036 -0.0303  0.2849  0.3493
    9loPI   C4B  144   5.087   6.865   7.834  0.0380 -0.3296 -0.2064
   10loPI    C1  145  15.615   9.836  10.262 -0.1118  0.1663  0.1713
   10loPI    C2  146  15.952   9.978  10.102 -0.1810  0.1316 -0.0084
   10loPI    C3  147  15.928   9.916  10.497  0.0484  0.0610 -0.0043
   10loPI   PO4  148  15.403   9.684   9.937 -0.0602 -0.0511  0.2467
   10loPI   GL1  149  15.442   9.777   9.467  0.1890  0.1699  0.0514
   10loPI   GL2  150  15.508   9.529   9.336 -0.1174 -0.2038  0.2232
   10loPI   C1A  151  15.453  10.049   9.065 -0.0648  0.0449  0.1815
   10loPI   C2A  152  15.590  10.222   8.677  0.3467  0.0748  0.2809
   10loPI   C3A  153  15.489  10.270   8.280 -0.2569 -0.1553  0.0288
   10loPI   C4A  154  15.463  10.297   7.778  0.3200 -0.4840 -0.2586
   10loPI   C5A  155  15.319  10.359   7.313 -0.1532  0.2624  0.3113
   10loPI   C6A  156  15.522  10.440   6.880  0.0598  0.0527 -0.0537
   10loPI   C1B  157  15.540   9.573   8.965  0.1857  0.2224  0.1547
   10loPI   C2B  158  15.755   9.683   8.533  0.0593 -0.0497  0.3801
   10loPI   C3B  159  16.060   9.637   8.256  0.0152 -0.0804 -0.0140
   10loPI   C4B  160  16.442   9.633   7.913 -0.2889  0.0056  0.0794
   11loPI    C1  161  12.109  17.861  10.699  0.0477  0.0107 -0.1686
   11loPI    C2  162  11.924  17.673  11.000 -0.1153 -0.1117 -0.3431
   11loPI    C3  163  11.872  18.066  10.949  0.0334 -0.0618 -0.1224
   11loPI   PO4  164  12.101  17.651  10.475  0.0402  0.1395  0.1880
   11loPI   GL1  165  12.258  17.575  10.045 -0.2010 -0.1456  0.1394
   11loPI   GL2  166  11.934  17.804   9.950  0.0359 -0.2096  0.0989
   11loPI   C1A  167  12.098  17.369   9.665  0.1342 -0.0060  0.2699
   11loPI   C2A  168  12.039  17.385   9.311 -0.0465 -0.1921 -0.0040
   11loPI   C3A  169  12.166  17.323   8.871 -0.1496  0.0098  0.5092
   11loPI   C4A  170  12.357  17.500   8.431 -0.3196  0.2756  0.1135
   11loPI   C5A  171  12.445  17.694   8.018 -0.0994 -0.1377  0.4042
   11loPI   C6A  172  12.092  17.780   7.580 -0.1262 -0.1318 -0.1359
   11loPI   C1B  173  11.795  17.915   9.513 -0.0627 -0.2840  0.1133
   11loPI   C2B  174  11.823  17.882   9.113 -0.1184  0.3316  0.0499
   11loPI   C3B  175  11.709  18.033   8.696 -0.3405  0.0215 -0.0773
   11loPI   C4B  176  11.658  18.329   8.424 -0.5886 -0.0411 -0.1211
   12loPI    C1  177  15.852   6.363   9.827  0.0326 -0.2994 -0.0389
   12loPI    C2  178  15.478   6.456   9.720  0.0940  0.1690  0.1291
   12loPI    C3  179  15.779   6.511   9.463  0.0503 -0.2308 -0.0147
   12loPI   PO4  180  15.812   6.105   9.892 -0.2059  0.1686  0.1494
   12loPI   GL1  181  15.652   5.978   9.397 -0.0374 -0.0287 -0.1382
   12loPI   GL2  182  15.452   6.172   9.324 -0.0374  0.0462  0.1253
   12loPI   C1A  183  15.908   6.184   9.080 -0.0683  0.0293  0.1741
   12loPI   C2A  184  15.982   6.335   8.667 -0.5458  0.0630  0.0110
   12loPI   C3A  185  15.851   6.617   8.296 -0.0951 -0.0301 -0.1448
   12loPI   C4A  186  15.768   6.742   7.891  0.0319 -0.2354 -0.1549
   12loPI   C5A  187  15.505   6.888   7.508  0.3376 -0.1152 -0.1928
   12loPI   C6A  188  15.123   7.085   7.521 -0.4497  0.0768 -0.0394
   12loPI   C1B  189  15.497   6.560   9.078 -0.0867 -0.0359 -0.0336
   12loPI   C2B  190  15.530   6.514   8.645 -0.0479  0.3091 -0.1244
   12loPI   C3B  191  15.395   6.473   8.161  0.2618 -0.2037  0.1979
   12loPI   C4B  192  15.120   6.714   7.873 -0.1520 -0.3761  0.1754
   13loPI    C1  193  10.769  13.957  10.307  0.0073 -0.0680 -0.0727
   13loPI    C2  194  11.036  13.936  10.605 -0.1224  0.0824  0.0557
   13loPI    C3  195  10.922  13.603  10.415 -0.1445 -0.0339  0.2688
   13loPI   PO4  196  10.793  14.302  10.112  0.0385 -0.0073  0.0472
   13loPI   GL1  197  10.850  14.674   9.933 -0.0023  0.0925  0.1629
   13loPI   GL2  198  11.140  14.369   9.774  0.0485 -0.0370 -0.1424
   13loPI   C1A  199  10.958  14.797   9.550 -0.3058 -0.0103 -0.1419
   13loPI   C2A  200  11.137  14.749   9.073  0.2508  0.0128 -0.0401
   13loPI   C3A  201  11.268  14.730   8.663 -0.2478  0.2875 -0.0774
   13loPI   C4A  202  11.368  14.812   8.209 -0.0894 -0.0739 -0.0154
   13loPI   C5A  203  11.679  14.735   7.950 -0.1859 -0.1065  0.0246
   13loPI   C6A  204  11.729  14.529   7.561 -0.0477 -0.1092  0.2324
   13loPI   C1B  205  11.115  14.357   9.381  0.2512  0.0480  0.1356
   13loPI   C2B  206  11.223  14.261   8.865  0.1284  0.0612 -0.3026
   13loPI   C3B  207  11.401  14.351   8.392 -0.2176 -0.2822 -0.3243
   13loPI   C4B  208  11.892  14.333   8.149  0.1981  0.2402  0.1097
   14loPI    C1  209   4.934  18.843  10.273 -0.0901  0.2184 -0.0707
   14loPI    C2  210   5.203  18.723  10.543 -0.1661  0.1489 -0.0251
   14loPI    C3  211   5.074  19.102  10.544  0.0647  0.2307 -0.1611
   14loPI   PO4  212   5.028  18.758  10.076 -0.1206 -0.1172 -0.2516
   14loPI   GL1  213   5.067  18.540   9.728 -0.1219 -0.1281 -0.0515
   14loPI   GL2  214   5.374  18.790   9.642  0.2207 -0.0392 -0.0497
   14loPI   C1A  215   4.713  18.627   9.320  0.1687  0.1081  0.0600
   14loPI   C2A  216   4.817  18.765   8.922 -0.1370 -0.3415 -0.2017
   14loPI   C3A  217   5.018  19.068   8.684  0.0986 -0.0562 -0.0238
   14loPI   C4A  218   5.002  19.062   8.150 -0.2459 -0.2313 -0.0568
   14loPI   C5A  219   4.799  19.196   7.783  0.0475  0.4797  0.2221
   14loPI   C6A  220   4.568  19.318   7.491 -0.0557 -0.2120  0.2783
   14loPI   C1B  221   5.300  18.648   9.209 -0.0276 -0.0860 -0.1044
   14loPI   C2B  222   5.425  18.615   8.857  0.0318 -0.1107 -0.1772
   14loPI   C3B  223   5.372  18.733   8.428 -0.0287  0.1717  0.1274
   14loPI   C4B  224   5.502  19.013   8.180  0.1049 -0.0186  0.0558
   15loPI    C1  225  12.508  15.821  10.716 -0.0157  0.0914  0.1448
   15loPI    C2  226  12.193  15.638  10.881  0.0636 -0.0799  0.1082
   15loPI    C3  227  12.369  15.943  11.071 -0.2251  0.1255  0.0529
   15loPI   PO4  228  12.427  15.762  10.419  0.4422 -0.0234 -0.1253
   15loPI   GL1  229  12.530  15.646  10.044  0.1078  0.1856  0.0278
   15loPI   GL2  230  12.314  15.530   9.846  0.2590  0.3103 -0.0683
   15loPI   C1A  231  12.769  15.817   9.710 -0.1301  0.0711  0.2151
   15loPI   C2A  232  12.948  15.617   9.339  0.0782 -0.1118  0.0635
   15loPI   C3A  233  13.099  15.562   8.851 -0.2847 -0.0082 -0.4486
   15loPI   C4A  234  13.418  15.643   8.661  0.0156  0.0577  0.4401
   15loPI   C5A  235  13.538  15.945   8.346  0.1356  0.1777 -0.0328
   15loPI   C6A  236  13.927  15.810   8.303  0.0792  0.0248 -0.0453
   15loPI   C1B  237  12.351  15.654   9.502 -0.2470 -0.0779 -0.0166
   15loPI   C2B  238  12.517  15.660   9.130  0.1631 -0.0565 -0.4390
   15loPI   C3B  239  12.466  15.738   8.725 -0.2510 -0.1100  0.0014
   15loPI   C4B  240  12.176  16.012   8.528  0.0905 -0.0113 -0.2469
   16loPI    C1  241  16.428   5.795   9.895 -0.0531  0.0606 -0.0673
   16loPI    C2  242  16.052   5.663   9.863 -0.0393 -0.0609  0.2397
   16loPI    C3  243  16.158   5.892  10.174  0.0585  0.2666 -0.0281
   16loPI   PO4  244  16.505   5.613   9.667  0.3575 -0.0881 -0.0957
   16loPI   GL1  245  16.695   5.618   9.293  0.2475  0.1779  0.0024
   16loPI   GL2  246  16.577   5.970   9.306  0.0800  0.2278 -0.2313
   16loPI   C1A  247  16.454   5.467   8.937  0.0603  0.1670  0.4909
   16loPI   C2A  248  16.391   5.473   8.532 -0.4742 -0.2595 -0.4097
   16loPI   C3A  249  16.176   5.603   8.175 -0.0301  0.0425  0.3035
   16loPI   C4A  250  15.946   5.600   7.768  0.0363  0.0859 -0.1275
   16loPI   C5A  251  15.651   5.543   7.443 -0.0915  0.0560 -0.1799
   16loPI   C6A  252  15.535   5.365   7.029 -0.1326  0.1423 -0.3045
   16loPI   C1B  253  16.423   5.986   8.869  0.2433  0.0243  0.1285
   16loPI   C2B  254  16.417   6.003   8.495  0.0721 -0.3138 -0.4301
   16loPI   C3B  255  16.366   6.120   8.212 -0.0067 -0.0748  0.3789
   16loPI   C4B  256  16.422   6.396   7.957  0.0493 -0.0617  0.1699
   17loPI    C1  257  12.055   8.988  10.075  0.0021 -0.0610 -0.0411
   17loPI    C2  258  11.865   8.681  10.247 -0.1680  0.0459 -0.0347
   17loPI    C3  259  12.049   8.954  10.474 -0.1633  0.0417 -0.0334
   17loPI   PO4  260  12.249   8.841   9.893  0.1493 -0.3416  0.2791
   17loPI   GL1  261  12.413   8.794   9.381 -0.0312 -0.3441 -0.0475
   17loPI   GL2  262  12.249   9.087   9.356  0.0246 -0.3072  0.0343
   17loPI   C1A  263  12.317   8.764   8.874 -0.1163  0.0480 -0.1214
   17loPI   C2A  264  12.211   8.516   8.498  0.0173  0.0236 -0.3723
   17loPI   C3A  265  12.265   8.261   8.132  0.0824 -0.0165  0.0952
   17loPI   C4A  266  12.053   8.050   7.765  0.0125  0.0618 -0.0089
   17loPI   C5A  267  12.042   7.670   7.606  0.1362 -0.0548 -0.1204
   17loPI   C6A  268  11.700   7.421   7.712  0.0927  0.1296 -0.0313
   17loPI   C1B  269  12.332   9.277   8.971  0.0891  0.3715 -0.2267
   17loPI   C2B  270  12.133   9.251   8.611 -0.1133 -0.0719 -0.2862
   17loPI   C3B  271  12.047   9.079   8.269 -0.0515 -0.1346  0.1976
   17loPI   C4B  272  12.027   8.664   7.921  0.2342 -0.0840 -0.1634
   18loPI    C1  273  16.442   4.352   9.728  0.1481  0.0965 -0.2016
   18loPI    C2  274  16.781   4.233   9.906  0.0061  0.2268  0.1651
   18loPI    C3  275  16.678   4.620   9.909 -0.1831  0.1779  0.1219
   18loPI   PO4  276  16.424   4.197   9.535 -0.0234  0.0467  0.0327
   18loPI   GL1  277  16.499   4.191   9.135 -0.0539 -0.1611 -0.1896
   18loPI   GL2  278  16.440   3.973   8.953 -0.1461 -0.1216 -0.1701
   18loPI   C1A  279  16.274   4.415   8.798 -0.1372 -0.2159 -0.5347
   18loPI   C2A  280  16.230   4.537   8.326 -0.1349 -0.0299 -0.0427
   18loPI   C3A  281  16.116   4.570   7.877  0.0052 -0.0426 -0.1428
   18loPI   C4A  282  15.923   4.499   7.365 -0.0373 -0.1488 -0.1826
   18loPI   C5A  283  15.801   4.523   6.916  0.1212  0.0592  0.0404
   18loPI   C6A  284  15.893   4.623   6.541  0.2291  0.0890  0.2126
   18loPI   C1B  285  16.322   4.059   8.487 -0.0487  0.2029 -0.2668
   18loPI   C2B  286  16.568   4.182   8.140  0.1418 -0.0587 -0.2973
   18loPI   C3B  287  16.543   4.263   7.829  0.1171  0.1313  0.0585
   18loPI   C4B  288  16.497   4.309   7.378 -0.5344  0.3676  0.0986
   19loPI    C1  289   6.603   1.220  10.337 -0.3749 -0.0423  0.3596
   19loPI    C2  290   6.473   1.532  10.551 -0.0387  0.1389  0.3059
   19loPI    C3  291   6.856   1.514  10.436 -0.1249 -0.1478  0.0512
   19loPI   PO4  292   6.418   1.135  10.136 -0.0308  0.3416 -0.1638
   19loPI   GL1  293   6.389   1.260   9.724 -0.2565  0.0688  0.2574
   19loPI   GL2  294   6.486   1.010   9.671 -0.4753 -0.0906 -0.0729
   19loPI   C1A  295   6.436   1.429   9.323 -0.1837 -0.0900  0.1178
   19loPI   C2A  296   6.631   1.303   8.844  0.1400  0.2182 -0.0039
   19loPI   C3A  297   6.653   0.930   8.605 -0.3966  0.0923 -0.5170
   19loPI   C4A  298   6.567   0.574   8.322 -0.1408 -0.0083  0.1105
   19loPI   C5A  299   6.418   0.207   8.008  0.1215  0.0571 -0.2852
   19loPI   C6A  300   6.330  -0.144   7.696 -0.0316  0.4390 -0.2330
   19loPI   C1B  301   6.623   0.970   9.265  0.3313  0.0501 -0.0032
   19loPI   C2B  302   6.724   0.670   9.028  0.0307 -0.0710  0.3079
   19loPI   C3B  303   6.816   0.332   8.807 -0.0497  0.1764  0.2827
   19loPI   C4B  304   7.072  -0.115   8.784 -0.1847 -0.1820  0.3238
   20loPI    C1  305   9.930   4.973  10.300 -0.1116  0.0225  0.1631
   20loPI    C2  306  10.108   4.979  10.658 -0.1410 -0.1386  0.1812
   20loPI    C3  307   9.714   5.045  10.629 -0.1204 -0.0186  0.1664
   20loPI   PO4  308  10.056   5.164  10.196 -0.2363 -0.3487  0.0267
   20loPI   GL1  309   9.955   5.365   9.825  0.0164 -0.4446 -0.1573
   20loPI   GL2  310  10.302   5.458   9.735 -0.1003  0.0572  0.0129
   20loPI   C1A  311   9.851   5.545   9.423 -0.0447  0.2366  0.3024
   20loPI   C2A  312   9.917   5.422   8.937  0.1732 -0.0082 -0.0378
   20loPI   C3A  313  10.116   5.040   8.685 -0.0346 -0.0334  0.1870
   20loPI   C4A  314  10.278   4.995   8.246 -0.2381  0.0218  0.3342
   20loPI   C5A  315  10.552   4.732   8.000  0.0036 -0.0763  0.1305
   20loPI   C6A  316  10.915   4.394   7.938 -0.3404  0.1817  0.3010
   20loPI   C1B  317  10.206   5.253   9.339  0.1669 -0.4271 -0.2165
   20loPI   C2B  318  10.369   4.912   9.109 -0.1580 -0.1413 -0.1918
   20loPI   C3B  319  10.561   4.930   8.705  0.0294 -0.0455  0.1623
   20loPI   C4B  320  10.735   5.209   8.452  0.0191  0.2905 -0.0111
   21loPI    C1  321  14.639  15.132  10.722  0.1440  0.0476  0.2932
   21loPI    C2  322  15.037  15.157  10.685  0.1150 -0.2805 -0.3866
   21loPI    C3  323  14.800  15.395  10.468 -0.0711  0.0986  0.2076
   21loPI   PO4  324  14.582  14.851  10.678 -0.0789 -0.3413  0.1738
   21loPI   GL1  325  14.803  14.688  10.359  0.4261  0.1442  0.0495
   21loPI   GL2  326  14.964  14.488  10.268  0.0113 -0.0340 -0.1712
   21loPI   C1A  327  14.878  14.993  10.077  0.1016 -0.1312 -0.0541
   21loPI   C2A  328  14.727  15.152   9.741  0.1050  0.2155 -0.0305
   21loPI   C3A  329  14.704  15.158   9.333 -0.2774  0.1907  0.1523
   21loPI   C4A  330  14.785  15.143   8.875  0.0118  0.0927  0.1481
   21loPI   C5A  331  14.934  15.334   8.472 -0.1948 -0.1008  0.1459
   21loPI   C6A  332  15.022  15.564   7.968  0.0465  0.0299 -0.1708
   21loPI   C1B  333  15.128  14.579   9.845 -0.3123 -0.4869 -0.2944
   21loPI   C2B  334  15.096  14.801   9.377  0.1452 -0.2745 -0.0614
   21loPI   C3B  335  15.245  14.859   8.915 -0.0005 -0.1865 -0.0230
   21loPI   C4B  336  15.256  14.849   8.497 -0.0794 -0.0620  0.2608
   22loPI    C1  337  13.561   9.359  10.067 -0.2590  0.0828 -0.0508
   22loPI    C2  338  13.347   9.035  10.164  0.0377 -0.1086 -0.0202
   22loPI    C3  339  13.235   9.396  10.295 -0.2197 -0.2153  0.0594
   22loPI   PO4  340  13.564   9.364   9.852 -0.0554  0.0911 -0.1235
   22loPI   GL1  341  13.683   9.309   9.431 -0.0317 -0.2658 -0.0332
   22loPI   GL2  342  13.690   9.678   9.239  0.0942  0.0374 -0.0095
   22loPI   C1A  343  13.811   9.180   9.003  0.0708 -0.3459  0.1337
   22loPI   C2A  344  14.080   9.401   8.725 -0.1181  0.0643  0.3924
   22loPI   C3A  345  14.297   9.284   8.423  0.3164  0.3279 -0.2899
   22loPI   C4A  346  14.440   9.250   8.058 -0.2737  0.0308 -0.2405
   22loPI   C5A  347  14.806   9.058   7.841 -0.2496  0.0345 -0.0403
   22loPI   C6A  348  14.849   9.055   7.365 -0.0996 -0.0260  0.1162
   22loPI   C1B  349  13.837   9.846   8.918 -0.1512  0.2362  0.1983
   22loPI   C2B  350  13.984   9.836   8.515  0.2384  0.1907 -0.1619
   22loPI   C3B  351  14.326   9.767   8.275  0.0632  0.0104 -0.2752
   22loPI   C4B  352  14.521   9.976   7.890 -0.0725  0.0332  0.0107
   23loPI    C1  353  11.556  16.801  10.326  0.0550  0.0978  0.2640
   23loPI    C2  354  11.325  17.002  10.068  0.1073 -0.0918  0.0670
   23loPI    C3  355  11.168  16.856  10.405 -0.1003 -0.3524 -0.1383
   23loPI   PO4  356  11.758  16.910  10.386 -0.0651  0.1299  0.1462
   23loPI   GL1  357  12.002  16.920  10.048  0.0032 -0.2771  0.0506
   23loPI   GL2  358  11.816  16.950   9.869  0.0494 -0.0353  0.2254
   23loPI   C1A  359  12.341  16.898   9.696  0.4300 -0.0575 -0.0553
   23loPI   C2A  360  12.506  17.187   9.381  0.2928  0.0737 -0.0067
   23loPI   C3A  361  12.704  17.110   8.969 -0.1932 -0.4899  0.3048
   23loPI   C4A  362  12.627  17.133   8.544 -0.0735  0.4258  0.0308
   23loPI   C5A  363  12.325  17.006   8.176 -0.0375 -0.1911  0.2036
   23loPI   C6A  364  12.024  16.796   7.912  0.0119 -0.0716 -0.1892
   23loPI   C1B  365  11.632  17.172   9.656 -0.0513  0.2091 -0.1907
   23loPI   C2B  366  11.557  17.518   9.447 -0.0990  0.0068 -0.3938
   23loPI   C3B  367  11.666  17.448   8.940  0.0097 -0.0638 -0.2443
   23loPI   C4B  368  11.790  17.574   8.535 -0.1247  0.2751  0.0936
   24loPI    C1  369  13.324   6.026  10.276  0.2636  0.0773  0.1240
   24loPI    C2  370  13.334   5.723  10.536 -0.0607  0.0875  0.1523
   24loPI    C3  371  13.543   6.056  10.610  0.0392 -0.0023  0.2809
   24loPI   PO4  372  13.162   6.144  10.295 -0.0101  0.3436  0.1176
   24loPI   GL1  373  13.040   6.150   9.825 -0.0411 -0.0061  0.0454
   24loPI   GL2  374  13.348   6.184   9.796 -0.1145 -0.2216 -0.2258
   24loPI   C1A  375  12.895   5.959   9.460 -0.0637  0.1569 -0.2507
   24loPI   C2A  376  12.715   6.025   9.040  0.1672  0.1164  0.2526
   24loPI   C3A  377  12.976   6.158   8.671  0.1669 -0.1072 -0.2687
   24loPI   C4A  378  13.184   6.210   8.247  0.1359 -0.2570  0.1931
   24loPI   C5A  379  13.208   6.114   7.856  0.3107  0.1660 -0.1049
   24loPI   C6A  380  13.131   5.757   7.754  0.2427 -0.1864 -0.2534
   24loPI   C1B  381  13.571   6.247   9.441 -0.0996 -0.3981  0.1275
   24loPI   C2B  382  13.756   6.219   9.091 -0.0885  0.1405 -0.0797
   24loPI   C3B  383  13.965   6.362   8.669  0.1937  0.0472 -0.2606
   24loPI   C4B  384  14.046   6.405   8.116  0.0196  0.1730  0.1451
   25loPI    C1  385  18.301   1.646  10.217 -0.0374 -0.0595  0.0417
   25loPI    C2  386  18.654   1.637  10.405  0.0096  0.0202 -0.0422
   25loPI    C3  387  18.327   1.498  10.588  0.0344  0.1990  0.1420
   25loPI   PO4  388  18.318   1.586   9.952  0.1774 -0.1326 -0.1079
   25loPI   GL1  389  18.159   1.643   9.572  0.1574 -0.2553 -0.2042
   25loPI   GL2  390  18.123   1.985   9.456 -0.0622  0.0450 -0.0572
   25loPI   C1A  391  18.174   1.396   9.174  0.1137  0.1034 -0.0142
   25loPI   C2A  392  18.307   1.304   8.812 -0.1494  0.1589 -0.0071
   25loPI   C3A  393  18.075   1.324   8.406 -0.0421  0.3580  0.0882
   25loPI   C4A  394  17.839   1.217   8.066 -0.2139 -0.1059  0.0968
   25loPI   C5A  395  17.744   0.833   7.811  0.0985  0.1983 -0.3645
   25loPI   C6A  396  17.753   0.538   7.505  0.1223  0.2009  0.2067
   25loPI   C1B  397  18.029   1.856   8.987  0.0094  0.0890 -0.1309
   25loPI   C2B  398  17.980   1.681   8.664  0.1617  0.0068 -0.0313
   25loPI   C3B  399  17.852   1.711   8.245  0.2209  0.1521  0.0661
   25loPI   C4B  400  17.869   1.658   7.883 -0.0186 -0.1456  0.0018
   26loPI    C1  401   6.037   3.826   9.998  0.0102 -0.1516 -0.0201
   26loPI    C2  402   6.279   4.049  10.226  0.2149 -0.1986 -0.1874
   26loPI    C3  403   5.952   3.880  10.385 -0.0082  0.3127 -0.0837
   26loPI   PO4  404   6.010   3.891   9.748 -0.0581 -0.1622  0.0006
   26loPI   GL1  405   6.175   4.163   9.358 -0.0078  0.3553  0.1670
   26loPI   GL2  406   6.279   3.949   9.352  0.1050 -0.1505  0.1368
   26loPI   C1A  407   6.001   4.438   8.977 -0.0367 -0.1292  0.1456
   26loPI   C2A  408   5.872   4.477   8.550  0.0200 -0.0408 -0.1683
   26loPI   C3A  409   5.789   4.465   8.144 -0.3912 -0.0031 -0.2109
   26loPI   C4A  410   5.962   4.343   7.774 -0.4265 -0.0744 -0.2563
   26loPI   C5A  411   6.192   4.140   7.508 -0.3277  0.1485  0.1349
   26loPI   C6A  412   6.125   3.698   7.352 -0.0338  0.1614 -0.0011
   26loPI   C1B  413   6.517   4.220   8.948  0.0696 -0.1045 -0.2074
   26loPI   C2B  414   6.305   4.291   8.551 -0.1331  0.0660  0.1894
   26loPI   C3B  415   6.346   4.467   8.089 -0.1018 -0.0389  0.3141
   26loPI   C4B  416   6.420   4.559   7.621  0.2834  0.0143 -0.1573
   27loPI    C1  417   8.252   6.852  10.172 -0.0074  0.0170  0.1957
   27loPI    C2  418   8.235   7.251  10.152  0.0916  0.0090 -0.0997
   27loPI    C3  419   8.402   7.073  10.469 -0.0031  0.1994  0.0593
   27loPI   PO4  420   8.279   6.680   9.999 -0.1244  0.0420 -0.1151
   27loPI   GL1  421   8.291   6.661   9.689 -0.3014 -0.4962  0.0243
   27loPI   GL2  422   8.608   6.722   9.581 -0.2271 -0.2099 -0.1355
   27loPI   C1A  423   8.307   7.077   9.360 -0.1060  0.1802  0.0563
   27loPI   C2A  424   8.206   7.444   9.061  0.2260 -0.0771 -0.0636
   27loPI   C3A  425   7.988   7.511   8.732  0.3411  0.1878 -0.1626
   27loPI   C4A  426   7.814   7.752   8.392  0.0173  0.0207 -0.0313
   27loPI   C5A  427   7.644   7.957   8.033  0.3226 -0.2119 -0.0293
   27loPI   C6A  428   7.381   8.263   7.843  0.1378 -0.0184  0.1630
   27loPI   C1B  429   8.516   6.708   9.150  0.1198  0.0193  0.1368
   27loPI   C2B  430   8.671   6.699   8.682  0.0467 -0.1360 -0.1932
   27loPI   C3B  431   9.056   6.814   8.490  0.0171  0.1187 -0.0169
   27loPI   C4B  432   9.364   6.717   8.363 -0.2285  0.1358 -0.0441
   28loPI    C1  433  13.230  16.461  10.818  0.0319  0.1325 -0.0852
   28loPI    C2  434  13.228  16.857  10.875  0.1399  0.1082  0.0960
   28loPI    C3  435  12.889  16.648  10.910  0.0878  0.1807  0.0271
   28loPI   PO4  436  13.317  16.439  10.575  0.2350  0.0216 -0.2380
   28loPI   GL1  437  13.141  16.276  10.080  0.1096  0.1582 -0.1638
   28loPI   GL2  438  13.180  16.557   9.991  0.1038 -0.4309 -0.1603
   28loPI   C1A  439  13.007  16.243   9.671 -0.0910 -0.0014  0.2382
   28loPI   C2A  440  13.030  16.099   9.293  0.2044  0.2488  0.1590
   28loPI   C3A  441  12.855  15.992   8.897 -0.1084 -0.0810 -0.1541
   28loPI   C4A  442  12.994  15.818   8.440  0.0770  0.0891 -0.2308
   28loPI   C5A  443  13.073  15.745   8.054  0.1587  0.0829  0.2289
   28loPI   C6A  444  12.720  15.589   7.823 -0.2716 -0.1260 -0.2236
   28loPI   C1B  445  13.124  16.699   9.476  0.0120  0.0534  0.1426
   28loPI   C2B  446  13.193  17.095   9.122 -0.1770  0.0182 -0.3687
   28loPI   C3B  447  13.296  17.228   8.644 -0.3322 -0.1591  0.2149
   28loPI   C4B  448  13.409  17.441   8.221  0.1423  0.0405 -0.0800
   29loPI    C1  449   8.930   4.819  10.494 -0.2327  0.1135  0.1132
   29loPI    C2  450   9.181   5.070  10.679 -0.0952 -0.0495  0.1503
   29loPI    C3  451   9.046   4.746  10.870 -0.0350 -0.1633  0.0020
   29loPI   PO4  452   9.020   4.811  10.260 -0.0991 -0.0463 -0.0846
   29loPI   GL1  453   8.784   4.968   9.867 -0.2408 -0.4415  0.1829
   29loPI   GL2  454   8.590   4.730   9.693 -0.3413  0.1685 -0.2394
   29loPI   C1A  455   9.051   5.145   9.547 -0.2884  0.0765  0.1764
   29loPI   C2A  456   9.085   5.097   9.136 -0.2197  0.0263  0.4365
   29loPI   C3A  457   9.043   4.863   8.737 -0.0961 -0.3282  0.1161
   29loPI   C4A  458   9.233   4.884   8.387 -0.0643 -0.3273 -0.0872
   29loPI   C5A  459   9.378   4.954   7.950  0.0204 -0.1983  0.1430
   29loPI   C6A  460   9.222   4.858   7.517  0.3635  0.1882 -0.0047
   29loPI   C1B  461   8.771   4.748   9.319 -0.0735 -0.0001  0.1192
   29loPI   C2B  462   8.597   4.740   8.898 -0.3102  0.1000 -0.1006
   29loPI   C3B  463   8.633   4.785   8.384  0.2513 -0.2488  0.1576
   29loPI   C4B  464   8.895   4.930   7.965 -0.0150 -0.0360 -0.0265
   30loPI    C1  465  11.672  14.590  10.376  0.0614  0.3247 -0.2345
   30loPI    C2  466  11.964  14.478  10.625 -0.2016  0.0154 -0.0575
   30loPI    C3  467  11.695  14.750  10.741  0.0472  0.3483 -0.2441
   30loPI   PO4  468  11.801  14.698  10.151 -0.3199  0.3634 -0.3708
   30loPI   GL1  469  11.932  14.592   9.804  0.0651 -0.0170  0.1285
   30loPI   GL2  470  11.678  14.310   9.832 -0.1316  0.0824  0.2300
   30loPI   C1A  471  11.940  14.510   9.429  0.0538  0.2359 -0.2000
   30loPI   C2A  472  11.752  14.604   9.024  0.0969 -0.1115 -0.1162
   30loPI   C3A  473  11.881  14.536   8.666  0.3463  0.0282 -0.2569
   30loPI   C4A  474  11.943  14.853   8.492 -0.3203 -0.1589  0.2065
   30loPI   C5A  475  12.096  15.140   8.109 -0.3935 -0.0306 -0.0814
   30loPI   C6A  476  12.456  15.210   7.865 -0.1746  0.0993 -0.0195
   30loPI   C1B  477  11.556  14.182   9.397  0.5850  0.1612 -0.2135
   30loPI   C2B  478  11.661  14.015   9.054  0.1225 -0.1168 -0.4320
   30loPI   C3B  479  11.713  14.041   8.684  0.0117  0.0775  0.0184
   30loPI   C4B  480  12.017  13.935   8.431 -0.1566 -0.0993  0.1658
   31loPI    C1  481   1.111   3.726  10.096 -0.1508 -0.2024  0.2465
   31loPI    C2  482   1.402   3.974  10.215 -0.3283  0.0497  0.1647
   31loPI    C3  483   1.304   3.658  10.440  0.1113 -0.1285  0.1164
   31loPI   PO4  484   1.191   3.670   9.880 -0.0259  0.0023 -0.1966
   31loPI   GL1  485   1.064   3.804   9.496 -0.1324 -0.0655 -0.1628
   31loPI   GL2  486   1.304   4.012   9.345 -0.3440 -0.1553 -0.1861
   31loPI   C1A  487   0.960   3.753   9.046  0.3413  0.0357  0.0017
   31loPI   C2A  488   0.900   3.591   8.747  0.2652  0.0064 -0.1036
   31loPI   C3A  489   0.713   3.246   8.650 -0.0608  0.0607  0.0023
   31loPI   C4A  490   0.371   3.156   8.241  0.1080 -0.0928  0.2118
   31loPI   C5A  491   0.084   3.110   7.782 -0.1250 -0.0017 -0.1081
   31loPI   C6A  492  -0.161   3.328   7.369  0.2179  0.1156 -0.3644
   31loPI   C1B  493   1.250   4.119   8.934 -0.0439 -0.3415  0.0428
   31loPI   C2B  494   1.281   4.227   8.472  0.0313 -0.1680  0.2760
   31loPI   C3B  495   1.208   4.285   8.076  0.3949  0.0136 -0.0223
   31loPI   C4B  496   0.897   4.467   8.028  0.0503  0.4397  0.1986
   32loPI    C1  497   7.095  12.657  10.107  0.0940  0.0399  0.0739
   32loPI    C2  498   6.936  12.345  10.301  0.3157  0.0797  0.3254
   32loPI    C3  499   7.106  12.643  10.506  0.4200  0.1971  0.0734
   32loPI   PO4  500   7.205  12.509   9.845  0.1156  0.1312  0.0456
   32loPI   GL1  501   7.144  12.286   9.455 -0.1348 -0.0636  0.0539
   32loPI   GL2  502   7.467  12.327   9.498 -0.1528  0.1009 -0.0114
   32loPI   C1A  503   7.220  12.284   9.033 -0.0006 -0.0732  0.1359
   32loPI   C2A  504   7.113  12.591   8.710  0.0410 -0.0413  0.3844
   32loPI   C3A  505   6.968  12.563   8.315 -0.2557 -0.1577 -0.0536
   32loPI   C4A  506   6.924  12.796   7.959 -0.0102  0.1756  0.1270
   32loPI   C5A  507   6.791  12.611   7.514 -0.2262 -0.1744  0.3225
   32loPI   C6A  508   6.746  12.260   7.255  0.2676 -0.2557 -0.4327
   32loPI   C1B  509   7.709  12.341   9.209 -0.2199 -0.1491 -0.2200
   32loPI   C2B  510   7.959  12.502   8.942  0.4198 -0.2712  0.1350
   32loPI   C3B  511   8.098  12.439   8.519  0.0730 -0.0405 -0.0089
   32loPI   C4B  512   8.080  12.823   8.296 -0.1040 -0.0642  0.0506
   33loPI    C1  513   1.838   4.975   9.944 -0.0519 -0.1090 -0.3292
   33loPI    C2  514   2.118   4.701   9.863 -0.2595 -0.4174 -0.0308
   33loPI    C3  515   2.012   4.773  10.242 -0.2345  0.0554 -0.1076
   33loPI   PO4  516   1.655   4.924   9.651 -0.0933 -0.0642  0.1266
   33loPI   GL1  517   1.425   5.131   9.246 -0.2382  0.2797 -0.1811
   33loPI   GL2  518   1.754   5.245   9.301  0.2883 -0.4423  0.2905
   33loPI   C1A  519   1.663   5.054   8.822  0.5199  0.1585  0.0928
   33loPI   C2A  520   1.715   5.022   8.322 -0.0200 -0.1201 -0.3086
   33loPI   C3A  521   1.767   4.852   7.897  0.2328 -0.1084 -0.0366
   33loPI   C4A  522   1.555   4.693   7.449  0.0295 -0.3609  0.0641
   33loPI   C5A  523   1.122   4.770   7.196  0.2569  0.1819  0.4679
   33loPI   C6A  524   0.635   5.104   7.237 -0.1714 -0.1192 -0.3318
   33loPI   C1B  525   1.782   5.508   9.009 -0.0936  0.2956 -0.1133
   33loPI   C2B  526   1.750   5.462   8.602  0.0127 -0.1189 -0.0936
   33loPI   C3B  527   1.855   5.514   8.238  0.0288  0.1700 -0.1396
   33loPI   C4B  528   1.817   5.761   7.880 -0.0619 -0.0437  0.0696
   34loPI    C1  529  13.008   2.321  10.289 -0.1520 -0.0138 -0.3297
   34loPI    C2  530  13.289   2.211  10.551 -0.3869  0.1239 -0.0131
   34loPI    C3  531  13.117   1.937  10.315 -0.2092 -0.0103  0.0109
   34loPI   PO4  532  13.012   2.553  10.142 -0.1388 -0.0663 -0.1252
   34loPI   GL1  533  13.038   2.834   9.832  0.2541  0.1558  0.0880
   34loPI   GL2  534  12.706   3.009   9.835  0.0280  0.1419 -0.0931
   34loPI   C1A  535  12.985   2.864   9.382  0.3648  0.1496  0.0183
   34loPI   C2A  536  12.774   2.805   9.074 -0.1113 -0.0812 -0.1828
   34loPI   C3A  537  12.847   2.914   8.671  0.2601 -0.0948  0.0138
   34loPI   C4A  538  12.591   2.898   8.338  0.2013  0.1277  0.4868
   34loPI   C5A  539  12.641   2.782   7.969  0.0684  0.1320  0.0111
   34loPI   C6A  540  12.852   2.760   7.572  0.1339  0.1594  0.1370
   34loPI   C1B  541  12.527   3.153   9.433 -0.2017 -0.2528  0.1374
   34loPI   C2B  542  12.481   3.286   8.992 -0.1705  0.0124  0.1074
   34loPI   C3B  543  12.335   3.286   8.608  0.0191 -0.2985  0.2377
   34loPI   C4B  544  12.103   3.571   8.320  0.1700  0.0381 -0.0920
   35loPI    C1  545  14.740  10.571  10.086  0.2889  0.1546  0.1939
   35loPI    C2  546  14.404  10.412  10.232  0.1214  0.1097 -0.2278
   35loPI    C3  547  14.451  10.809  10.227  0.1517  0.1101 -0.0087
   35loPI   PO4  548  14.782  10.494   9.853  0.0836  0.2498 -0.1344
   35loPI   GL1  549  14.717  10.587   9.435  0.1711  0.3836 -0.0060
   35loPI   GL2  550  14.705  10.224   9.392  0.2376  0.0424  0.2686
   35loPI   C1A  551  14.620  10.547   9.034 -0.4425 -0.2115  0.0948
   35loPI   C2A  552  14.592  10.629   8.639 -0.0054  0.2531 -0.1471
   35loPI   C3A  553  14.616  10.694   8.308 -0.3019  0.1674 -0.1076
   35loPI   C4A  554  14.525  10.490   8.026  0.0749 -0.1872 -0.0597
   35loPI   C5A  555  14.307  10.429   7.682  0.1128  0.0857  0.1187
   35loPI   C6A  556  14.034  10.302   7.491 -0.4445 -0.1361  0.0126
   35loPI   C1B  557  14.964   9.975   9.140  0.0810  0.1059 -0.1729
   35loPI   C2B  558  15.126   9.848   8.750  0.0703 -0.1446 -0.0836
   35loPI   C3B  559  15.251   9.802   8.319  0.1806  0.1687 -0.1045
   35loPI   C4B  560  15.580   9.793   8.024  0.0159  0.1526 -0.0417
   36loPI    C1  561  16.539  11.612  10.272  0.1461 -0.0485 -0.2302
   36loPI    C2  562  16.825  11.886  10.330  0.0668 -0.0346  0.1118
   36loPI    C3  563  16.604  11.758  10.639  0.1231 -0.5085 -0.0365
   36loPI   PO4  564  16.391  11.725  10.094  0.2439 -0.0310 -0.0947
   36loPI   GL1  565  16.278  11.920   9.709  0.1173 -0.0070  0.1306
   36loPI   GL2  566  16.471  11.702   9.579 -0.2815 -0.5312  0.3173
   36loPI   C1A  567  16.214  12.030   9.193 -0.2090 -0.1056  0.2049
   36loPI   C2A  568  16.307  12.148   8.769  0.2879  0.5561 -0.0136
   36loPI   C3A  569  16.570  12.183   8.431 -0.1253  0.0805  0.0935
   36loPI   C4A  570  16.887  11.879   8.224 -0.2860 -0.1422 -0.3281
   36loPI   C5A  571  17.203  11.529   8.136 -0.2432 -0.0320  0.0206
   36loPI   C6A  572  17.165  11.155   8.373  0.0729  0.0400 -0.0989
   36loPI   C1B  573  16.356  11.323   9.349 -0.0050 -0.1095 -0.1353
   36loPI   C2B  574  16.372  11.287   8.892  0.0795  0.1457  0.0877
   36loPI   C3B  575  16.417  11.646   8.788  0.0220  0.4157  0.0305
   36loPI   C4B  576  16.797  11.870   8.799 -0.2290  0.0646  0.1658
   37loPI    C1  577  11.688   2.126  10.428 -0.1923  0.1466  0.1933
   37loPI    C2  578  11.911   1.813  10.537 -0.3556  0.0853  0.3562
   37loPI    C3  579  11.685   2.002  10.808 -0.6666  0.0126  0.1524
   37loPI   PO4  580  11.596   2.097  10.102  0.0139  0.0150  0.1955
   37loPI   GL1  581  11.285   1.977   9.957 -0.0319 -0.0336 -0.0623
   37loPI   GL2  582  11.239   1.664   9.942  0.0212 -0.3381  0.2686
   37loPI   C1A  583  11.212   1.900   9.488 -0.2120 -0.0264  0.1551
   37loPI   C2A  584  11.087   2.013   9.125 -0.0698 -0.3393  0.0500
   37loPI   C3A  585  11.078   1.940   8.635 -0.0183  0.2728 -0.1445
   37loPI   C4A  586  10.918   2.042   8.214 -0.2131  0.2643  0.2013
   37loPI   C5A  587  10.686   2.318   8.025  0.2160  0.2751  0.2455
   37loPI   C6A  588  10.262   2.451   8.025 -0.2843 -0.2642 -0.0664
   37loPI   C1B  589  11.211   1.390   9.579 -0.2574  0.3383 -0.2707
   37loPI   C2B  590  11.263   1.435   9.258 -0.0274 -0.1297  0.1213
   37loPI   C3B  591  11.376   1.529   8.779  0.0588  0.0905 -0.0223
   37loPI   C4B  592  11.527   1.711   8.484 -0.0640  0.1189  0.0555
   38loPI    C1  593  18.833   9.733  10.039 -0.0556  0.0617 -0.0587
   38loPI    C2  594  18.906   9.756  10.432 -0.0047  0.1237 -0.0716
   38loPI    C3  595  19.186   9.613  10.184 -0.1606 -0.2398 -0.0452
   38loPI   PO4  596  18.703   9.889   9.917 -0.2724 -0.0987 -0.1152
   38loPI   GL1  597  18.803  10.109   9.555  0.1324  0.1201  0.1135
   38loPI   GL2  598  18.704  10.432   9.485  0.2298  0.1159 -0.0287
   38loPI   C1A  599  18.888   9.993   9.088 -0.1288 -0.1596 -0.0669
   38loPI   C2A  600  18.890  10.166   8.683 -0.5912  0.0277 -0.0986
   38loPI   C3A  601  18.780   9.956   8.296 -0.0894 -0.0100 -0.1776
   38loPI   C4A  602  18.751   9.777   7.904  0.1200  0.1912 -0.3038
   38loPI   C5A  603  18.512   9.848   7.519 -0.3232  0.0883  0.2219
   38loPI   C6A  604  18.180   9.946   7.282 -0.1469 -0.1171 -0.2364
   38loPI   C1B  605  18.891  10.640   9.143  0.0320  0.1946  0.1398
   38loPI   C2B  606  18.597  10.847   8.859 -0.3050 -0.2401 -0.3315
   38loPI   C3B  607  18.348  10.882   8.465  0.4112 -0.3202  0.2665
   38loPI   C4B  608  18.307  10.850   8.094  0.2160  0.1431  0.0671
   39loPI    C1  609  12.664   0.997  10.789  0.3818  0.0371  0.1424
   39loPI    C2  610  12.701   1.054  11.183  0.0241 -0.1707  0.2106
   39loPI    C3  611  12.810   0.705  11.020 -0.3200 -0.2804  0.2091
   39loPI   PO4  612  12.708   1.319  10.662 -0.1414  0.4747 -0.4285
   39loPI   GL1  613  12.786   1.497  10.201 -0.0573 -0.0086  0.0395
   39loPI   GL2  614  12.744   1.314  10.008  0.0543 -0.1008 -0.2046
   39loPI   C1A  615  12.981   1.709   9.832  0.0293  0.1120  0.0766
   39loPI   C2A  616  12.928   1.808   9.433 -0.0227 -0.1995  0.4715
   39loPI   C3A  617  13.000   1.897   8.924  0.0598  0.1648 -0.0710
   39loPI   C4A  618  13.174   2.085   8.515  0.1351  0.2752  0.0690
   39loPI   C5A  619  13.312   2.242   8.159 -0.1261  0.2081 -0.0233
   39loPI   C6A  620  12.873   2.304   7.890  0.2185 -0.0598 -0.0644
   39loPI   C1B  621  12.663   1.283   9.563 -0.2804 -0.0152 -0.2538
   39loPI   C2B  622  12.651   1.310   9.061  0.1599  0.1931 -0.0956
   39loPI   C3B  623  12.707   1.563   8.766  0.0044 -0.0556 -0.0170
   39loPI   C4B  624  12.670   1.967   8.483 -0.0606 -0.1357  0.1736
   40loPI    C1  625  18.279   3.632   9.943 -0.0197 -0.0465 -0.0708
   40loPI    C2  626  18.449   3.933   9.741  0.0886  0.0237  0.1218
   40loPI    C3  627  18.410   3.956  10.138 -0.1698 -0.0901  0.1053
   40loPI   PO4  628  18.122   3.489   9.829 -0.1092 -0.0995 -0.0742
   40loPI   GL1  629  18.009   3.702   9.411 -0.0439 -0.2130  0.0646
   40loPI   GL2  630  17.672   3.771   9.245  0.3444  0.0730  0.0930
   40loPI   C1A  631  18.120   3.339   9.117 -0.3027  0.1707 -0.1947
   40loPI   C2A  632  18.062   3.334   8.651 -0.0223  0.0410 -0.2065
   40loPI   C3A  633  18.111   3.345   8.232  0.0976 -0.1314  0.0464
   40loPI   C4A  634  17.998   3.194   7.814 -0.0610  0.0775 -0.0230
   40loPI   C5A  635  17.750   3.183   7.577 -0.0196 -0.2549  0.0191
   40loPI   C6A  636  17.334   3.253   7.607  0.1129 -0.0496 -0.0721
   40loPI   C1B  637  17.689   3.752   8.771  0.0027  0.0097 -0.2933
   40loPI   C2B  638  17.915   3.826   8.487 -0.1797 -0.1235  0.0929
   40loPI   C3B  639  17.993   3.855   8.115  0.0370  0.0479 -0.1295
   40loPI   C4B  640  18.308   3.973   7.773 -0.0122  0.3681 -0.1355
   41loPI    C1  641   4.296   4.116   9.949  0.1664  0.1905  0.0162
   41loPI    C2  642   4.640   4.022   9.769  0.0984  0.1971 -0.1184
   41loPI    C3  643   4.531   3.832  10.103  0.1017  0.0023 -0.2270
   41loPI   PO4  644   4.296   4.397   9.861  0.0236  0.1501  0.0359
   41loPI   GL1  645   4.419   4.391   9.398 -0.1579  0.4129  0.1135
   41loPI   GL2  646   4.648   4.520   9.550 -0.0335 -0.2605  0.2114
   41loPI   C1A  647   4.499   4.526   8.935  0.0144  0.0977  0.2296
   41loPI   C2A  648   4.579   4.581   8.526  0.3501 -0.0249  0.3520
   41loPI   C3A  649   4.723   4.459   8.164 -0.2675 -0.0600  0.1138
   41loPI   C4A  650   4.794   4.492   7.728 -0.1930 -0.2714 -0.1848
   41loPI   C5A  651   4.934   4.869   7.706 -0.1477  0.2086 -0.0804
   41loPI   C6A  652   5.346   5.059   7.607  0.0648 -0.4398 -0.3028
   41loPI   C1B  653   4.807   4.194   9.272 -0.0242 -0.3205  0.1330
   41loPI   C2B  654   5.110   4.012   9.036  0.2551  0.2638  0.3120
   41loPI   C3B  655   5.392   4.138   8.755  0.3634 -0.1009 -0.1186
   41loPI   C4B  656   5.510   4.124   8.330  0.2396 -0.1141 -0.3688
   42loPI    C1  657   1.678   9.044  10.073 -0.1206 -0.0677 -0.1862
   42loPI    C2  658   1.292   9.073  10.172 -0.0808 -0.0486 -0.0355
   42loPI    C3  659   1.565   8.987  10.452  0.0381  0.0533 -0.1194
   42loPI   PO4  660   1.697   8.968   9.908 -0.1194 -0.0326 -0.0102
   42loPI   GL1  661   1.621   9.018   9.427  0.3394  0.1383  0.2149
   42loPI   GL2  662   1.255   8.915   9.371 -0.0644  0.0796 -0.2111
   42loPI   C1A  663   1.747   8.904   9.000 -0.1652 -0.1355  0.6381
   42loPI   C2A  664   2.022   9.131   8.759  0.0233  0.0202 -0.0133
   42loPI   C3A  665   2.320   9.267   8.577  0.0441 -0.0433 -0.2277
   42loPI   C4A  666   2.478   8.999   8.266  0.0411  0.1084  0.0529
   42loPI   C5A  667   2.338   8.964   7.785 -0.2323 -0.0427 -0.0685
   42loPI   C6A  668   2.066   8.966   7.600 -0.1998  0.1340 -0.0594
   42loPI   C1B  669   1.288   8.748   8.888  0.0398 -0.2159  0.2041
   42loPI   C2B  670   1.373   8.734   8.487 -0.2321 -0.3149  0.0535
   42loPI   C3B  671   1.286   8.776   8.105  0.0046  0.1331 -0.1076
   42loPI   C4B  672   1.189   8.601   7.745 -0.2143  0.0342 -0.0924
   43loPI    C1  673   9.968   2.338  10.558  0.0769 -0.0456  0.1077
   43loPI    C2  674  10.315   2.530  10.611  0.1302 -0.1327  0.0761
   43loPI    C3  675  10.095   2.423  10.928  0.0215  0.1222  0.0888
   43loPI   PO4  676   9.929   2.467  10.247 -0.0565  0.0453  0.0577
   43loPI   GL1  677   9.923   2.354   9.907 -0.2323  0.1180 -0.1519
   43loPI   GL2  678  10.021   2.677   9.803  0.0752  0.0007 -0.2474
   43loPI   C1A  679  10.120   2.099   9.537 -0.0918  0.1949  0.0133
   43loPI   C2A  680  10.181   1.816   9.046  0.2332 -0.0858  0.0492
   43loPI   C3A  681  10.155   1.739   8.623 -0.0587 -0.1257 -0.0018
   43loPI   C4A  682  10.155   1.481   8.185 -0.2168 -0.0715  0.1099
   43loPI   C5A  683   9.980   1.177   7.896 -0.0526 -0.1794  0.1575
   43loPI   C6A  684   9.651   0.944   7.712 -0.0780 -0.2529  0.0111
   43loPI   C1B  685   9.899   2.762   9.351 -0.0334  0.0178 -0.0622
   43loPI   C2B  686   9.816   2.712   8.874  0.0106  0.0403  0.0199
   43loPI   C3B  687   9.738   2.662   8.489 -0.0471  0.1025  0.0351
   43loPI   C4B  688   9.508   2.829   8.162  0.5254  0.1767 -0.2588
   44loPI    C1  689  16.367   9.719   9.941  0.0251 -0.0121 -0.0040
   44loPI    C2  690  16.722   9.903   9.915  0.0110  0.0214  0.0402
   44loPI    C3  691  16.444  10.038  10.169  0.0702 -0.1746  0.2112
   44loPI   PO4  692  16.358   9.581   9.650  0.0156 -0.1970  0.2104
   44loPI   GL1  693  16.583   9.563   9.330  0.0062  0.2459 -0.3917
   44loPI   GL2  694  16.871   9.701   9.485 -0.2952 -0.0894 -0.2060
   44loPI   C1A  695  16.511   9.833   9.011  0.0335 -0.4456 -0.0664
   44loPI   C2A  696  16.461   9.838   8.620  0.1413 -0.2660 -0.0257
   44loPI   C3A  697  16.392  10.062   8.204  0.1013  0.1994 -0.3294
   44loPI   C4A  698  16.396  10.171   7.760 -0.0047  0.1425 -0.3979
   44loPI   C5A  699  16.145   9.929   7.480 -0.1444 -0.0582 -0.2693
   44loPI   C6A  700  15.835   9.541   7.532  0.0544 -0.1037  0.1177
   44loPI   C1B  701  17.114   9.867   9.147  0.2624  0.1952  0.2149
   44loPI   C2B  702  16.966  10.153   8.717 -0.0368  0.2218  0.0662
   44loPI   C3B  703  16.919  10.318   8.414  0.3637 -0.1367 -0.0873
   44loPI   C4B  704  16.893  10.530   8.008 -0.0897  0.0070  0.1315
   45loPI    C1  705  18.270   7.633  10.002 -0.0454 -0.1613  0.0391
   45loPI    C2  706  18.282   7.596  10.400 -0.1222 -0.0588  0.0513
   45loPI    C3  707  18.031   7.370  10.185  0.1661 -0.3639  0.0283
   45loPI   PO4  708  18.257   7.906   9.981  0.1815 -0.0705  0.2406
   45loPI   GL1  709  17.831   8.141   9.788 -0.1661 -0.0350  0.1651
   45loPI   GL2  710  18.027   7.950   9.550 -0.1202  0.0770 -0.0037
   45loPI   C1A  711  17.622   8.153   9.419  0.0555  0.2902 -0.1538
   45loPI   C2A  712  17.256   8.231   9.143  0.0805 -0.2710 -0.0929
   45loPI   C3A  713  17.421   8.517   8.804  0.0282 -0.2497  0.0683
   45loPI   C4A  714  17.237   8.554   8.463 -0.2536  0.0661  0.3926
   45loPI   C5A  715  16.999   8.668   8.012  0.0550 -0.3738  0.1299
   45loPI   C6A  716  16.895   8.970   7.626  0.1211 -0.1446 -0.0228
   45loPI   C1B  717  18.132   7.864   9.171 -0.1124 -0.1514  0.1412
   45loPI   C2B  718  18.320   7.801   8.768  0.0280  0.1343  0.1389
   45loPI   C3B  719  18.475   7.608   8.453  0.4863  0.0376  0.1113
   45loPI   C4B  720  18.519   7.162   8.364  0.0524  0.1094 -0.1753
   46loPI    C1  721   9.293  12.037  10.305 -0.0043  0.1685 -0.1456
   46loPI    C2  722   9.279  12.048  10.705  0.2000 -0.0004 -0.1320
   46loPI    C3  723   9.363  12.380  10.498  0.0277  0.1027 -0.0390
   46loPI   PO4  724   9.069  12.000  10.151 -0.1021  0.1829 -0.2206
   46loPI   GL1  725   9.041  11.727   9.786  0.1598 -0.1111  0.0685
   46loPI   GL2  726   8.751  11.710   9.806 -0.1312 -0.1252 -0.3458
   46loPI   C1A  727   9.264  11.882   9.403  0.3324 -0.0409  0.2152
   46loPI   C2A  728   9.242  12.134   9.118 -0.0141 -0.0400  0.1381
   46loPI   C3A  729   9.364  12.548   8.958 -0.3023 -0.0167 -0.0517
   46loPI   C4A  730   9.256  12.916   8.908 -0.0559 -0.1994 -0.2370
   46loPI   C5A  731   8.951  13.120   8.628  0.3732  0.1216  0.1750
   46loPI   C6A  732   8.763  13.158   8.244  0.1064  0.1526 -0.0622
   46loPI   C1B  733   8.532  11.872   9.440 -0.0215 -0.1659  0.2911
   46loPI   C2B  734   8.397  11.702   9.038  0.0885  0.0520 -0.2042
   46loPI   C3B  735   8.582  11.803   8.599 -0.3225 -0.0827 -0.0330
   46loPI   C4B  736   8.765  12.087   8.326  0.0855 -0.2830 -0.0209
   47loPI    C1  737  11.183   7.049  10.092 -0.2139 -0.1589  0.2510
   47loPI    C2  738  10.906   7.044   9.804 -0.0619  0.1252  0.0961
   47loPI    C3  739  10.800   6.985  10.185 -0.2922 -0.0565  0.0059
   47loPI   PO4  740  11.400   7.161   9.971 -0.0163 -0.1252 -0.1241
   47loPI   GL1  741  11.602   7.342   9.598 -0.0308  0.0406 -0.1472
   47loPI   GL2  742  11.860   7.198   9.690 -0.0308 -0.1387  0.0375
   47loPI   C1A  743  11.525   7.471   9.127 -0.0699 -0.2476 -0.1745
   47loPI   C2A  744  11.442   7.500   8.716  0.0630 -0.2215  0.2330
   47loPI   C3A  745  11.385   7.451   8.315  0.1814  0.1933  0.0581
   47loPI   C4A  746  11.315   7.012   8.069  0.4314  0.3781  0.0139
   47loPI   C5A  747  11.553   6.801   7.748 -0.1079  0.2218  0.3492
   47loPI   C6A  748  11.930   6.620   7.681 -0.3839  0.2545  0.2171
   47loPI   C1B  749  11.776   6.990   9.267 -0.3141  0.0040 -0.0410
   47loPI   C2B  750  11.512   6.909   8.884  0.1816  0.2242 -0.1687
   47loPI   C3B  751  11.435   6.688   8.474 -0.0142 -0.0956  0.1248
   47loPI   C4B  752  11.422   6.457   8.084 -0.1516 -0.1203 -0.3989
   48loPI    C1  753   4.245  17.007  10.202  0.1700  0.1290 -0.0224
   48loPI    C2  754   3.965  17.251  10.350  0.0247  0.0388 -0.1466
   48loPI    C3  755   4.164  17.005  10.594 -0.0567  0.0499 -0.0684
   48loPI   PO4  756   4.098  17.139   9.898 -0.2678  0.0353 -0.3303
   48loPI   GL1  757   3.972  17.181   9.546  0.1494 -0.2368 -0.1693
   48loPI   GL2  758   3.798  17.222   9.294  0.2289  0.1808 -0.0463
   48loPI   C1A  759   4.045  16.821   9.230 -0.3121  0.1327  0.1760
   48loPI   C2A  760   4.230  16.658   8.876  0.2408 -0.0459 -0.0400
   48loPI   C3A  761   4.335  16.502   8.466  0.1303  0.0846 -0.3671
   48loPI   C4A  762   4.245  16.193   8.106 -0.0638  0.0228  0.2798
   48loPI   C5A  763   4.286  16.066   7.693 -0.0160  0.0187 -0.2118
   48loPI   C6A  764   4.303  16.204   7.323 -0.2378 -0.0696 -0.1505
   48loPI   C1B  765   4.084  17.189   8.877  0.2132  0.0159 -0.0632
   48loPI   C2B  766   4.293  17.523   8.639  0.3185 -0.2979 -0.0450
   48loPI   C3B  767   4.020  17.618   8.251 -0.2333 -0.3427 -0.0311
   48loPI   C4B  768   3.766  17.747   7.865  0.4710 -0.0560 -0.0777
   49loPI    C1  769  18.506  14.116  10.090  0.1688 -0.2287 -0.1490
   49loPI    C2  770  18.474  13.719  10.135  0.1806 -0.1897  0.2376
   49loPI    C3  771  18.592  13.947  10.442  0.0079  0.1342  0.0698
   49loPI   PO4  772  18.424  14.272   9.844  0.2310 -0.0703  0.2355
   49loPI   GL1  773  18.214  14.619   9.601 -0.0963  0.0350  0.2193
   49loPI   GL2  774  17.979  14.405   9.540 -0.1114 -0.1837 -0.1169
   49loPI   C1A  775  18.317  14.645   9.231  0.2705  0.2878  0.2490
   49loPI   C2A  776  18.291  14.615   8.775 -0.0955  0.1433 -0.0370
   49loPI   C3A  777  18.142  14.359   8.405  0.4745  0.0527  0.3343
   49loPI   C4A  778  18.139  14.368   8.081 -0.0877 -0.0370 -0.1012
   49loPI   C5A  779  18.392  14.743   7.828  0.0156  0.1383 -0.1337
   49loPI   C6A  780  18.657  15.091   8.037 -0.5255  0.1078  0.0410
   49loPI   C1B  781  17.806  14.563   9.141 -0.0032 -0.2168 -0.0498
   49loPI   C2B  782  17.623  14.268   8.746 -0.0644  0.1684 -0.0972
   49loPI   C3B  783  17.342  14.024   8.612 -0.0328 -0.2257  0.0687
   49loPI   C4B  784  17.065  14.106   8.236  0.2418 -0.1346  0.0163
   50loPI    C1  785   9.132  16.997  10.344 -0.0667  0.0120 -0.0055
   50loPI    C2  786   9.266  17.096  10.707  0.2354  0.0821 -0.1330
   50loPI    C3  787   9.066  16.754  10.655  0.0101  0.1685  0.1347
   50loPI   PO4  788   9.318  17.074  10.191  0.2372 -0.2483 -0.2119
   50loPI   GL1  789   9.473  17.020   9.701  0.2563 -0.2590  0.0552
   50loPI   GL2  790   9.184  16.764   9.798  0.0241 -0.1777 -0.0851
   50loPI   C1A  791   9.688  17.036   9.312 -0.2053  0.5508 -0.1612
   50loPI   C2A  792   9.692  16.913   8.957 -0.0726  0.2984  0.2857
   50loPI   C3A  793   9.789  16.819   8.551 -0.1430  0.1843 -0.1166
   50loPI   C4A  794   9.666  16.646   8.124  0.1448  0.1475  0.3253
   50loPI   C5A  795   9.704  16.886   7.783  0.0849  0.0029 -0.2356
   50loPI   C6A  796   9.681  17.164   7.454  0.0302 -0.1912  0.2927
   50loPI   C1B  797   9.119  17.066   9.376 -0.5665  0.0533 -0.0701
   50loPI   C2B  798   9.222  17.155   8.944 -0.1012  0.1578  0.1516
   50loPI   C3B  799   9.248  17.148   8.476 -0.0597  0.2605 -0.1787
   50loPI   C4B  800   9.168  17.001   8.095 -0.0136  0.1899 -0.1749
   51loPI    C1  801  18.634   8.423  10.056  0.0406  0.1719 -0.1908
   51loPI    C2  802  18.497   8.799  10.036  0.1959  0.2341 -0.1040
   51loPI    C3  803  18.524   8.615  10.390 -0.2861 -0.0134 -0.1872
   51loPI   PO4  804  18.467   8.332   9.897 -0.2209  0.1010 -0.3692
   51loPI   GL1  805  18.403   8.334   9.467 -0.1005 -0.2284 -0.0942
   51loPI   GL2  806  18.832   8.312   9.499 -0.0858 -0.1566  0.0539
   51loPI   C1A  807  18.341   8.623   9.091 -0.0991  0.1091 -0.1073
   51loPI   C2A  808  18.424   8.786   8.649  0.2796  0.0173  0.1930
   51loPI   C3A  809  18.330   8.601   8.268 -0.0886 -0.3761  0.1285
   51loPI   C4A  810  18.513   8.559   7.858  0.0796  0.1278 -0.0838
   51loPI   C5A  811  18.859   8.692   7.647 -0.1224 -0.1616  0.0879
   51loPI   C6A  812  19.245   8.814   7.296  0.3235  0.1646  0.2433
   51loPI   C1B  813  18.901   8.522   9.097 -0.0492 -0.0995 -0.4060
   51loPI   C2B  814  18.811   8.456   8.713  0.1505  0.2058  0.2127
   51loPI   C3B  815  18.819   8.430   8.220  0.1011 -0.0633 -0.0181
   51loPI   C4B  816  19.178   8.192   7.994  0.0934 -0.2261 -0.3144
   52loPI    C1  817  16.806  15.355  10.576 -0.2426 -0.0187 -0.0202
   52loPI    C2  818  17.014  15.028  10.478 -0.0253  0.0869  0.0825
   52loPI    C3  819  16.881  15.076  10.853 -0.3606 -0.0465 -0.0155
   52loPI   PO4  820  16.678  15.402  10.379 -0.1553  0.3576 -0.0406
   52loPI   GL1  821  16.587  15.575   9.970  0.0299 -0.1684  0.0656
   52loPI   GL2  822  16.831  15.448   9.796  0.0091  0.1037  0.0077
   52loPI   C1A  823  16.304  15.449   9.606 -0.0901  0.2556 -0.1586
   52loPI   C2A  824  16.219  15.688   9.266 -0.0364 -0.1694  0.3498
   52loPI   C3A  825  16.349  15.594   8.760 -0.3389 -0.2286  0.0327
   52loPI   C4A  826  16.628  15.404   8.450 -0.0438  0.3029 -0.1930
   52loPI   C5A  827  16.980  15.452   8.262 -0.4088 -0.0044 -0.0385
   52loPI   C6A  828  17.121  15.526   7.884  0.2868  0.1161 -0.2725
   52loPI   C1B  829  16.749  15.575   9.323 -0.1949  0.1323 -0.2356
   52loPI   C2B  830  16.759  15.912   8.946 -0.0364 -0.0105  0.0014
   52loPI   C3B  831  16.757  15.965   8.520 -0.0315 -0.1168 -0.1623
   52loPI   C4B  832  16.367  15.857   8.288 -0.0051  0.1238 -0.3563
   53loPI    C1  833   6.021   9.374  10.361 -0.1961  0.3482 -0.1279
   53loPI    C2  834   6.008   9.772  10.399 -0.0207  0.3387  0.0456
   53loPI    C3  835   6.344   9.573  10.486 -0.0730  0.1624 -0.1461
   53loPI   PO4  836   6.016   9.333  10.016 -0.0617  0.2431  0.0439
   53loPI   GL1  837   6.274   9.204   9.665 -0.0727  0.3369 -0.2366
   53loPI   GL2  838   6.181   9.383   9.501  0.1231  0.0654 -0.0280
   53loPI   C1A  839   6.404   8.815   9.262 -0.2995 -0.0059 -0.2610
   53loPI   C2A  840   6.493   8.516   8.949  0.0093  0.3722  0.0847
   53loPI   C3A  841   6.457   8.486   8.507  0.0209 -0.1188 -0.0824
   53loPI   C4A  842   6.673   8.454   8.078  0.1084  0.3707  0.0613
   53loPI   C5A  843   7.012   8.678   7.790  0.2157  0.3407 -0.1713
   53loPI   C6A  844   7.478   8.784   7.809 -0.0255  0.0415 -0.2893
   53loPI   C1B  845   6.293   9.329   9.111 -0.0297 -0.1036  0.0925
   53loPI   C2B  846   6.363   9.503   8.773 -0.1931  0.1210 -0.1138
   53loPI   C3B  847   6.359   9.608   8.323  0.2878  0.3147 -0.1981
   53loPI   C4B  848   6.138   9.801   8.015  0.0597  0.0598 -0.2043
   54loPI    C1  849   7.181   7.145  10.465 -0.3312 -0.0252  0.0954
   54loPI    C2  850   7.129   7.383  10.782 -0.0716 -0.0023  0.1235
   54loPI    C3  851   7.380   7.073  10.804 -0.0363  0.0112 -0.0666
   54loPI   PO4  852   7.232   7.302  10.196 -0.2061  0.1320  0.1901
   54loPI   GL1  853   7.027   7.370   9.909 -0.0990  0.2531 -0.0666
   54loPI   GL2  854   6.915   7.647   9.941 -0.0583 -0.0067  0.4245
   54loPI   C1A  855   7.206   7.323   9.539 -0.2152 -0.1919  0.1802
   54loPI   C2A  856   7.157   7.381   9.064 -0.1027 -0.0540  0.0898
   54loPI   C3A  857   7.030   7.292   8.690 -0.1850  0.0463 -0.0876
   54loPI   C4A  858   7.054   7.231   8.274 -0.1651 -0.1216 -0.1314
   54loPI   C5A  859   6.824   7.245   7.831  0.0503 -0.3163 -0.0537
   54loPI   C6A  860   6.736   7.016   7.550  0.2061  0.3281  0.1567
   54loPI   C1B  861   6.796   7.558   9.512 -0.3398 -0.1994 -0.1275
   54loPI   C2B  862   6.641   7.592   9.088 -0.2615 -0.0356 -0.0096
   54loPI   C3B  863   6.688   7.539   8.516 -0.1086 -0.1908 -0.2306
   54loPI   C4B  864   6.714   7.578   8.214 -0.2229 -0.1270  0.1941
   55loPI    C1  865  11.466  11.989  10.128  0.1632 -0.1061  0.1499
   55loPI    C2  866  11.745  12.009  10.414  0.0946 -0.1654  0.2217
   55loPI    C3  867  11.444  11.748  10.447  0.2233 -0.3490 -0.0269
   55loPI   PO4  868  11.633  12.014   9.864  0.1326  0.0453 -0.0876
   55loPI   GL1  869  11.588  12.096   9.428 -0.0400  0.3860 -0.3026
   55loPI   GL2  870  11.596  11.714   9.456 -0.1645 -0.3175  0.4969
   55loPI   C1A  871  11.468  12.263   9.062  0.0811  0.1372 -0.0077
   55loPI   C2A  872  11.438  12.256   8.595 -0.2210  0.5233 -0.0121
   55loPI   C3A  873  11.429  12.248   8.142 -0.2084 -0.2649 -0.0350
   55loPI   C4A  874  11.546  12.564   7.767  0.2840  0.3649 -0.0777
   55loPI   C5A  875  11.734  12.792   7.393 -0.1305  0.0069 -0.2308
   55loPI   C6A  876  12.131  12.858   7.269 -0.3722  0.1374  0.2604
   55loPI   C1B  877  11.614  11.707   9.119  0.0237  0.0743 -0.1700
   55loPI   C2B  878  11.650  11.830   8.800 -0.0260 -0.2458  0.2319
   55loPI   C3B  879  11.766  11.740   8.340  0.0813 -0.2618  0.0874
   55loPI   C4B  880  11.958  11.469   8.088 -0.1421 -0.2561 -0.2117
   56loPI    C1  881   5.920  13.326  10.090  0.0686 -0.0711 -0.0721
   56loPI    C2  882   6.058  13.671  10.239  0.0094 -0.1337  0.1316
   56loPI    C3  883   5.782  13.463  10.440  0.1018 -0.3391  0.0484
   56loPI   PO4  884   5.893  13.345   9.792 -0.3654 -0.0791 -0.3194
   56loPI   GL1  885   5.781  13.112   9.420  0.0774  0.1283 -0.4428
   56loPI   GL2  886   5.483  13.191   9.290  0.5813  0.1153 -0.0297
   56loPI   C1A  887   5.935  13.023   9.036  0.2126  0.2433 -0.0156
   56loPI   C2A  888   6.009  12.955   8.728  0.1049  0.0357 -0.0634
   56loPI   C3A  889   6.147  13.028   8.309 -0.1126 -0.0950  0.1418
   56loPI   C4A  890   6.096  13.293   7.928 -0.1084  0.0491  0.1509
   56loPI   C5A  891   6.235  13.478   7.512  0.1473  0.1341  0.2533
   56loPI   C6A  892   6.659  13.518   7.313  0.0867  0.2940 -0.1783
   56loPI   C1B  893   5.453  13.236   8.954 -0.2752  0.3040 -0.0611
   56loPI   C2B  894   5.493  13.111   8.554  0.0702 -0.3477  0.0201
   56loPI   C3B  895   5.701  12.882   8.164  0.1728 -0.0355  0.2106
   56loPI   C4B  896   6.022  12.778   7.814  0.3524 -0.1979 -0.2374
   57loPI    C1  897   9.567   8.162  10.271 -0.0975 -0.0384  0.0856
   57loPI    C2  898   9.650   8.291  10.640  0.0749  0.1793 -0.0262
   57loPI    C3  899   9.290   8.359  10.481 -0.0784 -0.1151  0.1837
   57loPI   PO4  900   9.724   8.237  10.125 -0.0654  0.0587  0.3843
   57loPI   GL1  901   9.595   8.393   9.678 -0.1424 -0.0998 -0.0352
   57loPI   GL2  902   9.940   8.277   9.641  0.1529 -0.4457  0.1364
   57loPI   C1A  903   9.614   8.183   9.264  0.2778 -0.0796 -0.1432
   57loPI   C2A  904   9.479   7.949   8.845 -0.1023  0.1723 -0.4716
   57loPI   C3A  905   9.202   7.893   8.508  0.2251  0.1429  0.2602
   57loPI   C4A  906   9.173   8.041   8.049  0.2094 -0.0040 -0.1682
   57loPI   C5A  907   9.139   8.588   7.846  0.0103  0.0415  0.0381
   57loPI   C6A  908   8.948   8.914   7.992 -0.0815  0.1046  0.0419
   57loPI   C1B  909  10.309   8.120   9.516 -0.2272 -0.1165  0.2893
   57loPI   C2B  910  10.461   8.139   9.087  0.0376 -0.0628  0.1816
   57loPI   C3B  911  10.399   8.012   8.653  0.2357  0.0093 -0.2981
   57loPI   C4B  912  10.374   7.631   8.391  0.1171  0.1767 -0.4534
   58loPI    C1  913   5.979   4.858  10.011 -0.0075  0.0997 -0.1325
   58loPI    C2  914   6.043   5.234  10.130 -0.1937  0.1251 -0.1096
   58loPI    C3  915   5.933   4.956  10.396  0.1750 -0.0015 -0.0841
   58loPI   PO4  916   6.019   4.916   9.720 -0.0488  0.0143  0.1564
   58loPI   GL1  917   5.776   4.850   9.260  0.2021  0.0847 -0.1097
   58loPI   GL2  918   5.419   4.816   9.428 -0.0519 -0.2213  0.0033
   58loPI   C1A  919   5.785   4.976   8.784  0.0740 -0.2312 -0.1760
   58loPI   C2A  920   5.718   5.047   8.446  0.2452  0.0910 -0.0208
   58loPI   C3A  921   5.539   4.960   8.187  0.3613  0.1829  0.2003
   58loPI   C4A  922   5.764   4.863   7.808 -0.2135  0.0123 -0.1030
   58loPI   C5A  923   5.731   4.974   7.295  0.2165 -0.0629 -0.1458
   58loPI   C6A  924   5.836   4.764   6.927 -0.1361  0.3468  0.0206
   58loPI   C1B  925   5.111   4.622   9.210 -0.6031 -0.3522 -0.0756
   58loPI   C2B  926   5.001   4.539   8.845 -0.1147  0.1348 -0.1595
   58loPI   C3B  927   4.939   4.240   8.543 -0.0764 -0.2336 -0.2918
   58loPI   C4B  928   5.131   3.804   8.522 -0.0874  0.1125  0.2272
   59loPI    C1  929   0.697   8.449   9.884 -0.0100  0.0645  0.2389
   59loPI    C2  930   0.527   8.428  10.246 -0.1943 -0.2796  0.1366
   59loPI    C3  931   0.721   8.112  10.098  0.0123 -0.0898 -0.0044
   59loPI   PO4  932   0.512   8.481   9.720  0.0885 -0.2289  0.0178
   59loPI   GL1  933   0.385   8.791   9.497  0.0087  0.3177  0.2483
   59loPI   GL2  934   0.544   8.797   9.179  0.1153 -0.0500 -0.0616
   59loPI   C1A  935   0.110   8.992   9.175 -0.1071 -0.3034  0.0102
   59loPI   C2A  936  -0.011   9.074   8.694  0.2373  0.0510  0.0689
   59loPI   C3A  937  -0.133   8.951   8.289 -0.0569 -0.1636  0.0705
   59loPI   C4A  938  -0.260   9.057   7.876  0.0872  0.1898 -0.1480
   59loPI   C5A  939  -0.357   9.188   7.351 -0.3392  0.1047 -0.0129
   59loPI   C6A  940  -0.530   9.567   7.084  0.2618 -0.0436 -0.0913
   59loPI   C1B  941   0.493   8.836   8.783 -0.0403 -0.2346  0.0629
   59loPI   C2B  942   0.285   8.708   8.404 -0.2307  0.0312 -0.0981
   59loPI   C3B  943   0.318   8.934   8.045 -0.0140  0.1798 -0.0304
   59loPI   C4B  944   0.519   9.082   7.715 -0.1250  0.0957  0.2698
   60loPI    C1  945   6.807  18.839  10.407  0.2395  0.1132 -0.2017
   60loPI    C2  946   6.501  19.089  10.470  0.2509  0.0496  0.1204
   60loPI    C3  947   6.607  18.827  10.753  0.3337 -0.2208 -0.1560
   60loPI   PO4  948   6.714  18.816  10.119 -0.2710 -0.0169  0.0841
   60loPI   GL1  949   6.766  18.562   9.707 -0.0947 -0.1895  0.1572
   60loPI   GL2  950   7.082  18.514   9.594 -0.2627  0.1913 -0.0076
   60loPI   C1A  951   6.514  18.302   9.449  0.1100  0.1100 -0.0289
   60loPI   C2A  952   6.560  18.216   8.943  0.2378 -0.3222 -0.0455
   60loPI   C3A  953   6.795  18.314   8.520 -0.2480 -0.0449 -0.0917
   60loPI   C4A  954   6.995  18.505   8.345 -0.0405 -0.1996 -0.0182
   60loPI   C5A  955   6.822  18.414   7.802  0.1577 -0.3816  0.2239
   60loPI   C6A  956   6.852  18.144   7.455  0.0141  0.2914  0.2153
   60loPI   C1B  957   6.744  18.618   9.154  0.2196  0.3082 -0.0546
   60loPI   C2B  958   6.599  18.733   8.732  0.0650  0.3771  0.4964
   60loPI   C3B  959   6.826  18.992   8.333  0.1440 -0.1884  0.2173
   60loPI   C4B  960   7.118  19.250   8.085  0.1012 -0.3118  0.0404
   61loPI    C1  961  17.826   3.176  10.168  0.2228  0.1879 -0.0845
   61loPI    C2  962  17.824   3.574  10.206 -0.1080  0.1827 -0.0208
   61loPI    C3  963  18.072   3.354  10.429  0.1387  0.3569 -0.1188
   61loPI   PO4  964  17.764   3.169   9.835  0.3558 -0.1476  0.3277
   61loPI   GL1  965  17.990   3.046   9.527 -0.2722 -0.2350  0.0382
   61loPI   GL2  966  17.864   2.785   9.459  0.2517 -0.4403 -0.0602
   61loPI   C1A  967  17.779   2.957   9.003  0.2512  0.0981 -0.4005
   61loPI   C2A  968  17.548   3.188   8.653 -0.0398  0.0357 -0.0329
   61loPI   C3A  969  17.519   3.389   8.406  0.2088  0.0492  0.0698
   61loPI   C4A  970  17.601   3.424   8.030  0.2520  0.1211 -0.0706
   61loPI   C5A  971  17.804   3.647   7.635 -0.1056 -0.1397 -0.1581
   61loPI   C6A  972  18.033   3.921   7.280  0.2124  0.0267  0.1031
   61loPI   C1B  973  17.922   2.395   9.269 -0.0220  0.0481  0.1448
   61loPI   C2B  974  17.996   2.300   8.894 -0.0135 -0.2668 -0.0830
   61loPI   C3B  975  17.854   2.144   8.562 -0.3289  0.1611  0.0510
   61loPI   C4B  976  17.985   2.250   8.102 -0.1507  0.0674 -0.1220
   62loPI    C1  977  16.216   2.928   9.853 -0.2701  0.1402 -0.1283
   62loPI    C2  978  15.846   2.778   9.822 -0.2286  0.0069  0.0094
   62loPI    C3  979  15.937   3.027  10.121 -0.2193  0.0777 -0.0520
   62loPI   PO4  980  16.418   2.710   9.729  0.0871 -0.3119  0.0933
   62loPI   GL1  981  16.499   2.572   9.404  0.0837  0.0685 -0.1832
   62loPI   GL2  982  16.797   2.321   9.472  0.1620 -0.0602 -0.1815
   62loPI   C1A  983  16.343   2.646   8.968 -0.4796  0.0774 -0.0310
   62loPI   C2A  984  16.170   2.822   8.546  0.0151 -0.1191  0.1491
   62loPI   C3A  985  16.094   3.030   8.131 -0.0881  0.1164 -0.0543
   62loPI   C4A  986  16.134   2.886   7.771 -0.1837  0.2450  0.1719
   62loPI   C5A  987  16.521   2.846   7.495 -0.0826  0.2594 -0.0498
   62loPI   C6A  988  16.895   2.937   7.560 -0.0544 -0.0712 -0.3075
   62loPI   C1B  989  16.907   2.487   9.154  0.1240 -0.0376  0.1055
   62loPI   C2B  990  16.820   2.516   8.726 -0.1256  0.0877  0.0374
   62loPI   C3B  991  16.563   2.569   8.332 -0.0195  0.3833 -0.0711
   62loPI   C4B  992  16.585   2.679   7.991 -0.1185  0.1334 -0.1147
   63loPI    C1  993  15.430  11.619  10.119 -0.0515 -0.1885  0.1083
   63loPI    C2  994  15.693  11.335  10.018 -0.0447 -0.1081 -0.1038
   63loPI    C3  995  15.664  11.455  10.398  0.1518 -0.1914 -0.0615
   63loPI   PO4  996  15.272  11.611   9.975 -0.1535  0.1760  0.0864
   63loPI   GL1  997  15.350  11.276   9.694  0.2926 -0.1609 -0.1850
   63loPI   GL2  998  15.532  11.062   9.654  0.0655  0.1300 -0.0325
   63loPI   C1A  999  15.426  11.410   9.359  0.1779 -0.1026  0.0246
   63loPI   C2A 1000  15.477  11.339   8.920 -0.2417 -0.0202  0.0749
   63loPI   C3A 1001  15.389  11.402   8.486 -0.1176 -0.1073 -0.0667
   63loPI   C4A 1002  15.338  11.405   8.102  0.0088  0.3269  0.2759
   63loPI   C5A 1003  15.040  11.211   7.736  0.0619 -0.0817 -0.1329
   63loPI   C6A 1004  15.166  11.289   7.292  0.1709 -0.2989  0.2231
   63loPI   C1B 1005  15.483  10.916   9.186  0.1401  0.1948  0.0529
   63loPI   C2B 1006  15.510  10.787   8.677 -0.0938 -0.0832 -0.3880
   63loPI   C3B 1007  15.488  10.933   8.162  0.1040  0.4238 -0.1300
   63loPI   C4B 1008  15.488  10.807   7.739 -0.0209  0.0670  0.0492
   64loPI    C1 1009   5.776   2.887  10.159  0.0151  0.3777  0.2198
   64loPI    C2 1010   6.154   2.945  10.277  0.1268 -0.0802  0.1080
   64loPI    C3 1011   5.864   2.901  10.549  0.1466  0.2884  0.1942
   64loPI   PO4 1012   5.706   3.054   9.968  0.0181 -0.1194 -0.0214
   64loPI   GL1 1013   5.756   3.011   9.456  0.2979 -0.2928  0.1363
   64loPI   GL2 1014   6.052   3.063   9.266 -0.0226  0.3834  0.1195
   64loPI   C1A 1015   5.566   3.197   9.007  0.0494 -0.0114  0.1068
   64loPI   C2A 1016   5.547   3.136   8.558  0.0519  0.0066  0.0606
   64loPI   C3A 1017   5.559   3.172   8.133 -0.3378 -0.1337  0.2943
   64loPI   C4A 1018   5.189   3.267   7.772 -0.2000 -0.0472 -0.1221
   64loPI   C5A 1019   5.109   3.099   7.389  0.4741 -0.1882  0.3208
   64loPI   C6A 1020   5.249   3.235   7.076  0.0445 -0.2240 -0.1074
   64loPI   C1B 1021   5.908   2.875   8.939  0.1939  0.3524  0.0007
   64loPI   C2B 1022   5.949   2.840   8.485 -0.2067  0.1974 -0.1434
   64loPI   C3B 1023   5.897   2.730   8.059 -0.2133  0.2868  0.0655
   64loPI   C4B 1024   6.003   2.787   7.724  0.0551 -0.0269  0.8271
   65loPI    C1 1025  13.920   4.602  10.001  0.1698 -0.0327 -0.0465
   65loPI    C2 1026  14.287   4.469  10.089  0.1653  0.1036  0.1868
   65loPI    C3 1027  14.023   4.538  10.382 -0.1340 -0.2358  0.0056
   65loPI   PO4 1028  13.973   4.735   9.774 -0.1455 -0.1420  0.1860
   65loPI   GL1 1029  13.858   4.491   9.463 -0.0870 -0.1170 -0.1521
   65loPI   GL2 1030  13.718   4.834   9.402 -0.1104  0.1941 -0.0249
   65loPI   C1A 1031  13.878   4.525   9.030 -0.0519  0.0520  0.0133
   65loPI   C2A 1032  13.948   4.732   8.699  0.2063  0.0646  0.0155
   65loPI   C3A 1033  14.132   4.991   8.410  0.0555 -0.1654  0.2566
   65loPI   C4A 1034  14.108   5.114   8.100 -0.2072  0.2265 -0.1459
   65loPI   C5A 1035  14.298   5.125   7.748  0.0224 -0.0154  0.3697
   65loPI   C6A 1036  14.603   5.084   7.389 -0.0299  0.2448  0.0537
   65loPI   C1B 1037  13.827   5.039   9.062 -0.0295  0.1338  0.0137
   65loPI   C2B 1038  13.752   5.241   8.706 -0.1848  0.1150 -0.0580
   65loPI   C3B 1039  13.643   4.975   8.267 -0.1110 -0.0895  0.1846
   65loPI   C4B 1040  13.657   4.998   7.837 -0.0307 -0.1476  0.0606
   66loPI    C1 1041   9.460   6.619  10.467 -0.0361 -0.0273 -0.0694
   66loPI    C2 1042   9.425   7.010  10.545 -0.0644 -0.0556  0.0624
   66loPI    C3 1043   9.500   6.752  10.842 -0.0462 -0.1507 -0.0241
   66loPI   PO4 1044   9.528   6.724  10.155 -0.0830  0.1393  0.0478
   66loPI   GL1 1045   9.561   6.706   9.674 -0.1730 -0.1440 -0.1121
   66loPI   GL2 1046   9.646   6.937   9.716 -0.1024  0.1833 -0.0965
   66loPI   C1A 1047   9.684   6.469   9.330  0.0186  0.1229  0.1213
   66loPI   C2A 1048   9.679   6.338   8.861 -0.0007  0.3169 -0.3823
   66loPI   C3A 1049   9.660   6.288   8.419  0.0779 -0.0261  0.1591
   66loPI   C4A 1050   9.722   5.841   8.074 -0.0429  0.0921 -0.5984
   66loPI   C5A 1051   9.661   5.403   7.864  0.0429 -0.0318  0.0855
   66loPI   C6A 1052   9.796   5.328   7.457  0.0219 -0.0760 -0.2860
   66loPI   C1B 1053   9.620   7.004   9.293 -0.0887 -0.0921 -0.1836
   66loPI   C2B 1054   9.447   6.798   8.973 -0.1011  0.2025  0.1572
   66loPI   C3B 1055   9.046   7.005   8.916 -0.0375  0.0986 -0.0946
   66loPI   C4B 1056   8.693   7.290   8.983 -0.1838  0.2456 -0.0023
   67loPI    C1 1057   4.952  14.319  10.099 -0.1254 -0.2414  0.0363
   67loPI    C2 1058   5.297  14.120  10.069 -0.0850 -0.1498 -0.1227
   67loPI    C3 1059   5.078  14.092  10.403  0.2321  0.0432  0.1077
   67loPI   PO4 1060   4.840  14.255   9.860 -0.0310 -0.2163 -0.5355
   67loPI   GL1 1061   4.771  14.357   9.486 -0.4304  0.3085  0.0863
   67loPI   GL2 1062   4.838  14.048   9.334  0.3693  0.0390 -0.1325
   67loPI   C1A 1063   4.883  14.445   9.013 -0.1905 -0.0421 -0.0449
   67loPI   C2A 1064   4.811  14.311   8.622  0.1330  0.1425  0.2677
   67loPI   C3A 1065   4.559  14.165   8.346 -0.1176 -0.1974  0.0594
   67loPI   C4A 1066   4.499  14.257   7.947  0.1252  0.2454 -0.2086
   67loPI   C5A 1067   4.300  14.175   7.669  0.0751  0.0336 -0.4061
   67loPI   C6A 1068   4.224  14.311   7.243  0.1468 -0.2317  0.0788
   67loPI   C1B 1069   4.936  13.904   8.908  0.1156  0.2323 -0.1498
   67loPI   C2B 1070   4.883  13.773   8.543 -0.1626 -0.1018 -0.0764
   67loPI   C3B 1071   4.626  13.664   8.216  0.3248  0.0659 -0.3599
   67loPI   C4B 1072   4.418  13.684   7.836  0.0141 -0.1984  0.3992
   68loPI    C1 1073  17.303  11.563  10.384  0.0277  0.1749 -0.1583
   68loPI    C2 1074  17.028  11.356  10.181  0.2686 -0.1841 -0.1286
   68loPI    C3 1075  17.000  11.389  10.578  0.1231  0.0121 -0.1534
   68loPI   PO4 1076  17.284  11.860  10.203  0.0981  0.0283  0.3249
   68loPI   GL1 1077  17.403  11.970   9.797  0.0396  0.3154  0.0646
   68loPI   GL2 1078  17.731  12.140   9.682  0.2550  0.1098 -0.0039
   68loPI   C1A 1079  17.343  11.915   9.420 -0.1189  0.0205  0.2779
   68loPI   C2A 1080  17.187  11.782   9.057  0.0152 -0.3184  0.0592
   68loPI   C3A 1081  17.236  11.740   8.638  0.0909 -0.0872  0.0459
   68loPI   C4A 1082  17.523  11.836   8.356 -0.1741  0.4058  0.0566
   68loPI   C5A 1083  17.810  12.011   8.079  0.1584  0.0972 -0.0235
   68loPI   C6A 1084  17.910  12.395   7.897 -0.4283  0.0396  0.3979
   68loPI   C1B 1085  17.823  12.182   9.354 -0.0779 -0.0783 -0.0558
   68loPI   C2B 1086  18.141  12.442   9.091  0.1632 -0.2086 -0.0113
   68loPI   C3B 1087  18.076  12.621   8.732 -0.0092  0.0930 -0.3953
   68loPI   C4B 1088  18.117  12.756   8.368 -0.0777 -0.4180 -0.0070
   69loPI    C1 1089  18.700  14.831   9.862 -0.3033 -0.0437 -0.2130
   69loPI    C2 1090  18.647  15.219   9.783 -0.0398  0.0946  0.2542
   69loPI    C3 1091  18.606  15.084  10.157  0.2110 -0.2666  0.1568
   69loPI   PO4 1092  18.898  14.799   9.749 -0.1433 -0.0174 -0.0257
   69loPI   GL1 1093  18.892  14.720   9.365  0.2986  0.1203  0.1087
   69loPI   GL2 1094  18.790  14.401   9.389 -0.4176  0.1132 -0.0461
   69loPI   C1A 1095  18.792  14.686   8.986  0.1596 -0.0152  0.2156
   69loPI   C2A 1096  18.694  14.846   8.558 -0.0835 -0.1019  0.0582
   69loPI   C3A 1097  18.343  14.784   8.310  0.0456 -0.0967  0.0727
   69loPI   C4A 1098  18.025  14.981   8.141 -0.1098 -0.0454  0.2413
   69loPI   C5A 1099  17.878  15.333   8.089 -0.0735 -0.0251  0.0632
   69loPI   C6A 1100  17.620  15.601   7.831  0.1360 -0.0902  0.0091
   69loPI   C1B 1101  19.122  14.378   9.047  0.0339  0.4010 -0.1906
   69loPI   C2B 1102  19.108  14.539   8.654  0.0468  0.0201 -0.0153
   69loPI   C3B 1103  19.102  14.634   8.219 -0.0196  0.1324  0.3010
   69loPI   C4B 1104  19.182  14.832   7.835  0.1924  0.0927  0.0168
   70loPI    C1 1105  12.872  17.877  10.811  0.1225  0.2876  0.1474
   70loPI    C2 1106  13.196  17.809  10.586 -0.0763 -0.0606 -0.0429
   70loPI    C3 1107  13.229  17.832  10.984  0.1900 -0.0264 -0.0652
   70loPI   PO4 1108  12.794  18.070  10.754 -0.1195 -0.4511 -0.1474
   70loPI   GL1 1109  12.498  18.122  10.409  0.0639 -0.0723 -0.0250
   70loPI   GL2 1110  12.835  17.952  10.260 -0.0353  0.0934 -0.0278
   70loPI   C1A 1111  12.396  18.118  10.045 -0.2481  0.5060 -0.1312
   70loPI   C2A 1112  12.767  18.078   9.749  0.1536 -0.0085  0.1141
   70loPI   C3A 1113  12.764  17.944   9.368  0.0685  0.3029 -0.1591
   70loPI   C4A 1114  13.070  18.033   8.995 -0.0444 -0.0104 -0.3396
   70loPI   C5A 1115  13.216  17.927   8.725  0.1519  0.0220 -0.1772
   70loPI   C6A 1116  13.389  17.925   8.345 -0.4053 -0.2346 -0.1415
   70loPI   C1B 1117  13.211  17.852   9.960  0.3325 -0.2588 -0.2218
   70loPI   C2B 1118  13.239  17.649   9.633  0.0683  0.4329  0.1181
   70loPI   C3B 1119  13.449  17.462   9.376 -0.3111  0.2461  0.2051
   70loPI   C4B 1120  13.385  17.570   9.027  0.0515 -0.2744  0.0596
   71loPI    C1 1121  13.272   8.602   9.911  0.1512 -0.0875  0.1318
   71loPI    C2 1122  13.117   8.235   9.878  0.0471 -0.0388  0.0744
   71loPI    C3 1123  13.279   8.353  10.224  0.0296 -0.1187  0.1101
   71loPI   PO4 1124  13.205   8.701   9.687 -0.1908  0.1204  0.1000
   71loPI   GL1 1125  13.198   8.526   9.329  0.1593 -0.0673  0.0610
   71loPI   GL2 1126  12.943   8.312   9.422 -0.1485  0.2407  0.0390
   71loPI   C1A 1127  13.368   8.367   8.962 -0.0724 -0.1864 -0.4387
   71loPI   C2A 1128  13.226   8.129   8.572  0.2685 -0.2079  0.0511
   71loPI   C3A 1129  13.263   7.913   8.186  0.1579  0.0862  0.1666
   71loPI   C4A 1130  13.092   7.928   7.771  0.0159 -0.2949 -0.0721
   71loPI   C5A 1131  13.002   8.171   7.342  0.1863  0.1217  0.1371
   71loPI   C6A 1132  13.006   8.584   7.203  0.0011 -0.0769  0.0854
   71loPI   C1B 1133  12.858   7.995   9.197  0.0062  0.2475  0.4140
   71loPI   C2B 1134  12.826   7.740   8.740 -0.0531 -0.4014  0.2500
   71loPI   C3B 1135  12.806   7.606   8.346  0.0198 -0.0170  0.3694
   71loPI   C4B 1136  12.923   7.486   7.915 -0.3569 -0.2048  0.2657
   72loPI    C1 1137   2.241  16.761  10.292 -0.0398 -0.1349 -0.1333
   72loPI    C2 1138   2.205  16.397  10.454  0.0675 -0.0734  0.0303
   72loPI    C3 1139   2.546  16.601  10.495  0.0520 -0.0054 -0.1683
   72loPI   PO4 1140   2.042  16.725  10.120 -0.0039  0.1168 -0.1227
   72loPI   GL1 1141   1.935  16.872   9.575 -0.3826 -0.1726  0.0043
   72loPI   GL2 1142   2.146  16.837   9.322  0.1713  0.0466  0.2266
   72loPI   C1A 1143   1.626  16.963   9.348 -0.3511 -0.1976  0.1397
   72loPI   C2A 1144   1.639  17.233   8.953  0.0693 -0.0289  0.1530
   72loPI   C3A 1145   1.639  17.085   8.457  0.1872  0.0418 -0.0542
   72loPI   C4A 1146   1.565  17.038   8.033 -0.1298  0.0750 -0.1003
   72loPI   C5A 1147   1.237  17.138   7.701  0.2204 -0.0010  0.0668
   72loPI   C6A 1148   0.935  16.853   7.461 -0.0250  0.0392  0.1152
   72loPI   C1B 1149   1.927  16.800   8.868 -0.0301 -0.0856 -0.1108
   72loPI   C2B 1150   1.687  16.596   8.540 -0.1388  0.0961  0.3965
   72loPI   C3B 1151   1.450  16.311   8.218  0.0448  0.0389  0.1329
   72loPI   C4B 1152   1.495  16.189   7.825 -0.0240 -0.0604 -0.0156
   73loPI    C1 1153  10.878  11.574  10.437 -0.0196  0.1991 -0.1061
   73loPI    C2 1154  11.040  11.627  10.799 -0.0265  0.0311 -0.0773
   73loPI    C3 1155  11.187  11.348  10.554 -0.0460  0.1192 -0.1900
   73loPI   PO4 1156  10.908  11.856  10.212  0.1239 -0.1810 -0.0211
   73loPI   GL1 1157  11.094  12.026   9.832 -0.0987 -0.1127  0.0616
   73loPI   GL2 1158  11.270  12.345   9.640  0.2786 -0.1572 -0.1410
   73loPI   C1A 1159  11.140  11.897   9.349  0.0799 -0.0372  0.0070
   73loPI   C2A 1160  11.180  11.811   8.913  0.1948  0.0039 -0.2177
   73loPI   C3A 1161  11.119  11.866   8.486 -0.0364 -0.3051  0.0202
   73loPI   C4A 1162  11.167  11.755   8.150 -0.0781  0.0381  0.0733
   73loPI   C5A 1163  11.256  11.511   7.815  0.0823  0.3001  0.3340
   73loPI   C6A 1164  11.489  11.320   7.623  0.1864 -0.4452 -0.1828
   73loPI   C1B 1165  11.026  12.429   9.269 -0.4507 -0.2933 -0.3152
   73loPI   C2B 1166  10.995  12.307   8.764 -0.1268  0.1278  0.0103
   73loPI   C3B 1167  10.985  12.373   8.314  0.2121  0.0114 -0.1565
   73loPI   C4B 1168  11.007  12.662   8.051  0.4268 -0.0288  0.1092
   74loPI    C1 1169  13.446  11.713  10.198  0.1458 -0.0418 -0.1351
   74loPI    C2 1170  13.447  11.319  10.266 -0.1157  0.0040  0.1540
   74loPI    C3 1171  13.521  11.575  10.565 -0.0503  0.1783 -0.0092
   74loPI   PO4 1172  13.467  11.615   9.874  0.3422 -0.0409 -0.2208
   74loPI   GL1 1173  13.152  11.796   9.619 -0.3594  0.0459 -0.1137
   74loPI   GL2 1174  12.945  11.977   9.725  0.1029  0.0769 -0.1081
   74loPI   C1A 1175  13.316  11.609   9.277  0.3444  0.0424 -0.0862
   74loPI   C2A 1176  13.668  11.603   9.146 -0.0225 -0.2557 -0.1783
   74loPI   C3A 1177  14.057  11.473   8.945 -0.1566 -0.1375 -0.2135
   74loPI   C4A 1178  13.915  11.204   8.614 -0.0592 -0.5254 -0.0046
   74loPI   C5A 1179  13.737  10.980   8.201  0.2286  0.0951 -0.0870
   74loPI   C6A 1180  13.346  10.963   7.884  0.2192 -0.0780 -0.0497
   74loPI   C1B 1181  12.861  12.232   9.283 -0.1668  0.1696 -0.2586
   74loPI   C2B 1182  12.843  12.316   8.821 -0.0920 -0.1581 -0.0856
   74loPI   C3B 1183  12.574  12.417   8.595 -0.0032  0.3524  0.3568
   74loPI   C4B 1184  12.295  12.449   8.211 -0.0886 -0.2517 -0.4146
   75loPI    C1 1185   8.882   2.074  10.702 -0.1760 -0.1062 -0.0065
   75loPI    C2 1186   9.217   1.917  10.856 -0.1232 -0.1287 -0.1432
   75loPI    C3 1187   8.864   1.847  11.032 -0.0673 -0.1797 -0.0507
   75loPI   PO4 1188   8.965   2.165  10.563  0.1499 -0.2866  0.1928
   75loPI   GL1 1189   8.786   2.242  10.119 -0.0425  0.0348  0.2483
   75loPI   GL2 1190   9.004   2.351  10.106  0.0285  0.0181 -0.1596
   75loPI   C1A 1191   8.647   2.117   9.696 -0.1674 -0.0167 -0.0833
   75loPI   C2A 1192   8.818   2.149   9.263  0.0829  0.0493 -0.0711
   75loPI   C3A 1193   8.789   2.301   8.877 -0.0607 -0.0239  0.0318
   75loPI   C4A 1194   8.894   2.311   8.408 -0.0677 -0.3766  0.2165
   75loPI   C5A 1195   9.051   2.686   8.253 -0.0233 -0.1585 -0.0101
   75loPI   C6A 1196   9.041   3.042   8.390 -0.1033 -0.0857 -0.2035
   75loPI   C1B 1197   8.891   2.575   9.675 -0.1114  0.2879 -0.1155
   75loPI   C2B 1198   8.850   2.753   9.223 -0.0733 -0.0735  0.3184
   75loPI   C3B 1199   8.884   2.762   8.792  0.3326  0.1306 -0.2150
   75loPI   C4B 1200   8.553   2.676   8.460  0.0358  0.3984  0.1755
   76loPI    C1 1201  16.024  12.958  10.437 -0.0272 -0.0184  0.0293
   76loPI    C2 1202  16.155  12.621  10.609  0.0442 -0.0721 -0.1286
   76loPI    C3 1203  16.310  12.974  10.717  0.0424 -0.0991 -0.0365
   76loPI   PO4 1204  15.964  12.862  10.236  0.0381  0.1412  0.1439
   76loPI   GL1 1205  16.157  12.923   9.871 -0.0427  0.3798 -0.3085
   76loPI   GL2 1206  16.473  12.775   9.759 -0.0225 -0.2764  0.1691
   76loPI   C1A 1207  16.025  12.770   9.458 -0.0555  0.0043 -0.2201
   76loPI   C2A 1208  15.837  12.870   9.067 -0.1521 -0.1067 -0.2177
   76loPI   C3A 1209  15.771  12.769   8.607  0.1471 -0.2825  0.0852
   76loPI   C4A 1210  15.839  13.021   8.258  0.1923  0.2517 -0.2324
   76loPI   C5A 1211  15.595  13.273   7.980  0.3048  0.1067 -0.3824
   76loPI   C6A 1212  15.639  13.730   7.994  0.2025 -0.0024  0.2477
   76loPI   C1B 1213  16.683  12.778   9.321  0.0841  0.0430 -0.1276
   76loPI   C2B 1214  16.742  12.963   8.972 -0.2977 -0.1004  0.2963
   76loPI   C3B 1215  16.888  13.185   8.638  0.2089  0.0138 -0.0781
   76loPI   C4B 1216  16.894  13.323   8.200  0.0105 -0.0794 -0.0381
   77loPI    C1 1217   5.679   6.978  10.251 -0.1685 -0.0108 -0.0178
   77loPI    C2 1218   5.496   6.765   9.966 -0.3410  0.0608  0.0379
   77loPI    C3 1219   5.585   6.595  10.317  0.1654 -0.1223 -0.1697
   77loPI   PO4 1220   5.936   7.064  10.100  0.0113 -0.1447 -0.2140
   77loPI   GL1 1221   5.945   7.140   9.759  0.0561 -0.0158  0.1998
   77loPI   GL2 1222   5.709   6.992   9.576 -0.3070 -0.0453 -0.1648
   77loPI   C1A 1223   6.058   7.259   9.395 -0.2346 -0.2890 -0.1567
   77loPI   C2A 1224   6.254   7.232   8.997  0.0874 -0.2214  0.1199
   77loPI   C3A 1225   6.339   7.217   8.699 -0.1398 -0.3320 -0.0648
   77loPI   C4A 1226   6.341   7.266   8.281 -0.0797  0.2231  0.4866
   77loPI   C5A 1227   6.350   7.121   7.884  0.3686  0.1426 -0.1073
   77loPI   C6A 1228   6.387   6.703   7.750  0.2699 -0.0710  0.1180
   77loPI   C1B 1229   5.703   6.952   9.117  0.1052 -0.2323 -0.0884
   77loPI   C2B 1230   5.851   6.809   8.727  0.0472  0.1135 -0.1203
   77loPI   C3B 1231   5.600   6.854   8.418  0.4705  0.1425  0.0662
   77loPI   C4B 1232   5.486   7.076   8.089  0.4174  0.3154 -0.0213
   78loPI    C1 1233   2.429  15.832   9.961 -0.3999 -0.0563 -0.0658
   78loPI    C2 1234   2.537  16.076  10.260 -0.1493 -0.0905 -0.1262
   78loPI    C3 1235   2.273  15.783  10.326 -0.0599 -0.1271  0.0741
   78loPI   PO4 1236   2.496  15.971   9.773  0.0236  0.3965 -0.1149
   78loPI   GL1 1237   2.462  16.099   9.296 -0.3033  0.2501  0.1365
   78loPI   GL2 1238   2.350  16.404   9.073  0.1511 -0.0969 -0.2970
   78loPI   C1A 1239   2.270  15.885   8.948 -0.0459  0.4043  0.0296
   78loPI   C2A 1240   2.543  15.824   8.568  0.1287 -0.3623 -0.0090
   78loPI   C3A 1241   2.879  15.914   8.268  0.1562  0.0911 -0.0777
   78loPI   C4A 1242   2.850  15.738   7.851  0.1855  0.2227  0.0439
   78loPI   C5A 1243   2.466  15.788   7.616 -0.0539  0.1530 -0.2659
   78loPI   C6A 1244   1.974  15.872   7.666  0.0415  0.0145 -0.0021
   78loPI   C1B 1245   2.279  16.528   8.618  0.0379 -0.2504 -0.0530
   78loPI   C2B 1246   2.080  16.772   8.262  0.0242  0.1465 -0.0798
   78loPI   C3B 1247   2.066  17.037   7.976 -0.2860  0.1664  0.1444
   78loPI   C4B 1248   2.215  17.069   7.603  0.1507  0.1476 -0.1168
   79loPI    C1 1249   1.273   5.416   9.725  0.0760  0.2726  0.1090
   79loPI    C2 1250   1.031   5.579   9.999 -0.0435  0.1548  0.0749
   79loPI    C3 1251   1.267   5.271  10.097 -0.0842  0.1145  0.0461
   79loPI   PO4 1252   1.145   5.370   9.572  0.1408  0.0810 -0.1259
   79loPI   GL1 1253   1.078   5.551   9.121 -0.6090 -0.0285  0.1286
   79loPI   GL2 1254   0.945   5.742   9.163 -0.2406  0.0928  0.0920
   79loPI   C1A 1255   1.280   5.377   8.735  0.1842 -0.3407  0.2173
   79loPI   C2A 1256   1.353   5.318   8.312 -0.0033  0.1232 -0.0219
   79loPI   C3A 1257   1.456   5.308   7.850 -0.0872  0.0620  0.0392
   79loPI   C4A 1258   1.631   5.251   7.456 -0.0315  0.0786 -0.0245
   79loPI   C5A 1259   1.970   4.992   7.258 -0.0366  0.1411 -0.0297
   79loPI   C6A 1260   2.143   4.755   7.561 -0.0822  0.1294  0.0314
   79loPI   C1B 1261   0.942   5.786   8.697  0.3561  0.0979 -0.2840
   79loPI   C2B 1262   0.873   5.849   8.322 -0.2008  0.1811 -0.1784
   79loPI   C3B 1263   0.756   5.773   7.808  0.0496  0.0844 -0.1017
   79loPI   C4B 1264   0.714   5.783   7.466 -0.1375  0.1477 -0.0908
   80loPI    C1 1265   1.469  17.794  10.473 -0.0795  0.1900 -0.0315
   80loPI    C2 1266   1.303  17.885  10.825  0.0529  0.1769  0.0349
   80loPI    C3 1267   1.212  17.540  10.645  0.2927 -0.0040  0.2527
   80loPI   PO4 1268   1.504  17.971  10.264  0.1296 -0.1678  0.1828
   80loPI   GL1 1269   1.586  17.755   9.872  0.0839 -0.0667 -0.0987
   80loPI   GL2 1270   1.770  17.550   9.781  0.0411 -0.1774 -0.3587
   80loPI   C1A 1271   1.539  17.921   9.410  0.4134 -0.1220 -0.1618
   80loPI   C2A 1272   1.481  18.096   8.980  0.0120  0.1832  0.1941
   80loPI   C3A 1273   1.349  18.180   8.549  0.0632 -0.0912 -0.2350
   80loPI   C4A 1274   1.149  18.099   8.215 -0.2850  0.1586 -0.1889
   80loPI   C5A 1275   1.127  18.106   7.802  0.1126  0.0764 -0.2457
   80loPI   C6A 1276   0.862  18.378   7.442 -0.1593 -0.0839  0.1930
   80loPI   C1B 1277   1.592  17.461   9.437 -0.3377 -0.1845  0.2506
   80loPI   C2B 1278   1.306  17.558   9.053 -0.2698  0.1876  0.2492
   80loPI   C3B 1279   0.823  17.476   8.932  0.1966 -0.1579  0.0098
   80loPI   C4B 1280   0.432  17.457   8.915 -0.1910  0.0985  0.1953
   81loPI    C1 1281  11.726   9.561  10.250  0.1220  0.0531  0.1020
   81loPI    C2 1282  11.645   9.832  10.533  0.1698  0.0672  0.1023
   81loPI    C3 1283  12.024   9.739  10.448  0.1560  0.0745  0.0319
   81loPI   PO4 1284  11.566   9.610  10.008 -0.2144 -0.1630 -0.3042
   81loPI   GL1 1285  11.469   9.618   9.531  0.0397  0.4338 -0.5146
   81loPI   GL2 1286  11.722   9.428   9.411 -0.0410  0.3358 -0.0651
   81loPI   C1A 1287  11.400   9.902   9.096  0.0580 -0.1231  0.0745
   81loPI   C2A 1288  11.345   9.849   8.618  0.0002  0.0727  0.0365
   81loPI   C3A 1289  11.190   9.788   8.273 -0.0094  0.1237  0.2098
   81loPI   C4A 1290  11.081   9.607   7.824  0.3168  0.1069 -0.0425
   81loPI   C5A 1291  11.264   9.737   7.322 -0.0844 -0.5105 -0.1560
   81loPI   C6A 1292  11.426   9.328   7.010  0.3508 -0.1137 -0.1452
   81loPI   C1B 1293  11.820   9.042   9.039  0.4828 -0.2298  0.0583
   81loPI   C2B 1294  11.801   8.812   8.711  0.0143  0.1910 -0.1459
   81loPI   C3B 1295  11.595   8.773   8.344 -0.1444  0.2121 -0.2408
   81loPI   C4B 1296  11.512   8.773   7.912 -0.2423 -0.1160  0.0775
   82loPI    C1 1297   8.377   2.399  10.616 -0.0873  0.2672  0.2067
   82loPI    C2 1298   8.409   2.122  10.902 -0.1543  0.0347 -0.0070
   82loPI    C3 1299   8.136   2.412  10.935  0.0093  0.1604  0.2849
   82loPI   PO4 1300   8.359   2.310  10.391  0.3149 -0.0416 -0.1911
   82loPI   GL1 1301   8.388   2.468   9.932  0.0355 -0.1370  0.0967
   82loPI   GL2 1302   8.077   2.287  10.009 -0.2508  0.1057  0.0598
   82loPI   C1A 1303   8.363   2.533   9.411  0.1098  0.2194  0.0536
   82loPI   C2A 1304   8.382   2.794   8.992 -0.2325 -0.3676 -0.1975
   82loPI   C3A 1305   8.635   3.199   8.939  0.1554  0.1456 -0.0132
   82loPI   C4A 1306   8.795   3.418   8.682 -0.1230 -0.0227 -0.1512
   82loPI   C5A 1307   8.762   3.465   8.302 -0.3828 -0.0512 -0.2359
   82loPI   C6A 1308   8.723   3.181   7.976 -0.2033  0.3772 -0.1330
   82loPI   C1B 1309   8.158   2.018   9.647  0.0303  0.0998 -0.3523
   82loPI   C2B 1310   8.284   2.036   9.318  0.3050  0.0426  0.1574
   82loPI   C3B 1311   8.379   1.891   8.875 -0.2047  0.0883 -0.1755
   82loPI   C4B 1312   8.784   1.848   8.611  0.0249 -0.0629  0.0737
   83loPI    C1 1313   9.871  15.810  10.516 -0.1803  0.0768 -0.0003
   83loPI    C2 1314   9.658  15.581  10.765  0.1926  0.1356  0.3834
   83loPI    C3 1315   9.552  15.962  10.705 -0.0479  0.0495  0.2496
   83loPI   PO4 1316   9.925  15.602  10.308  0.1234  0.2386 -0.2592
   83loPI   GL1 1317   9.875  15.565   9.836 -0.0192  0.1806 -0.1042
   83loPI   GL2 1318   9.702  15.312   9.902  0.0679 -0.2586  0.0386
   83loPI   C1A 1319   9.912  15.815   9.442  0.2073  0.0672 -0.1742
   83loPI   C2A 1320   9.920  15.904   8.973  0.0428  0.1102 -0.2933
   83loPI   C3A 1321  10.174  16.127   8.695 -0.2566  0.1525 -0.5610
   83loPI   C4A 1322  10.054  16.113   8.269 -0.0001  0.0969  0.1356
   83loPI   C5A 1323  10.163  16.500   8.125  0.0453  0.0294 -0.2866
   83loPI   C6A 1324  10.504  16.787   8.364  0.3762 -0.4298 -0.1137
   83loPI   C1B 1325   9.505  15.437   9.415  0.1203 -0.1307  0.0262
   83loPI   C2B 1326   9.430  15.776   9.097  0.0674  0.0672  0.1212
   83loPI   C3B 1327   9.510  16.190   8.951  0.1312  0.0946  0.0022
   83loPI   C4B 1328   9.733  16.343   8.637  0.0024 -0.3181  0.0476
   84loPI    C1 1329   7.459  17.893  10.197 -0.2908 -0.0697  0.0034
   84loPI    C2 1330   7.576  17.760  10.556 -0.0526  0.3378  0.0829
   84loPI    C3 1331   7.277  18.023  10.529 -0.4169 -0.0785 -0.0617
   84loPI   PO4 1332   7.456  17.680  10.020 -0.1976 -0.1706  0.2124
   84loPI   GL1 1333   7.646  17.739   9.587  0.4454  0.0222 -0.0071
   84loPI   GL2 1334   7.530  17.453   9.566 -0.2383 -0.1070  0.0492
   84loPI   C1A 1335   7.475  17.941   9.229  0.2900  0.1127  0.1554
   84loPI   C2A 1336   7.545  17.852   8.767  0.1730 -0.0289  0.4347
   84loPI   C3A 1337   7.513  17.964   8.348  0.1248 -0.1404  0.3742
   84loPI   C4A 1338   7.680  17.930   7.978 -0.3581  0.2374  0.1176
   84loPI   C5A 1339   7.948  17.630   7.867  0.0057 -0.1988  0.4714
   84loPI   C6A 1340   8.247  17.354   8.061  0.4693  0.1644 -0.2549
   84loPI   C1B 1341   7.666  17.474   9.102 -0.3619  0.2121 -0.1832
   84loPI   C2B 1342   7.788  17.382   8.752 -0.1619  0.0447 -0.1330
   84loPI   C3B 1343   7.884  17.462   8.353 -0.1235 -0.0122  0.1010
   84loPI   C4B 1344   7.540  17.177   8.035 -0.0056 -0.2662  0.1574
   85loPI    C1 1345  14.332   2.070  10.631 -0.1262 -0.3305  0.0948
   85loPI    C2 1346  14.453   1.989  11.003  0.1872  0.0481  0.0813
   85loPI    C3 1347  14.155   2.248  10.942  0.0906 -0.0651  0.0701
   85loPI   PO4 1348  14.315   1.843  10.498  0.0862  0.2323  0.1935
   85loPI   GL1 1349  14.281   1.810  10.087  0.1425  0.0213  0.0504
   85loPI   GL2 1350  14.144   1.968   9.783  0.4348 -0.1773 -0.0956
   85loPI   C1A 1351  13.895   1.522   9.852  0.0306  0.1543 -0.2782
   85loPI   C2A 1352  13.723   1.234   9.576  0.3415  0.1485  0.1442
   85loPI   C3A 1353  13.789   1.215   9.155 -0.1599 -0.0698 -0.1454
   85loPI   C4A 1354  13.895   0.987   8.715 -0.4148 -0.1861 -0.0018
   85loPI   C5A 1355  14.126   0.876   8.427  0.1086  0.2275 -0.3163
   85loPI   C6A 1356  14.452   0.776   8.129 -0.0712 -0.0754 -0.2038
   85loPI   C1B 1357  13.929   2.079   9.417  0.0097  0.3860  0.0261
   85loPI   C2B 1358  13.884   2.006   8.855  0.0659 -0.0233  0.1631
   85loPI   C3B 1359  13.689   1.975   8.486 -0.0051  0.2640  0.1043
   85loPI   C4B 1360  13.520   1.715   8.124  0.2211 -0.0769 -0.3637
   86loPI    C1 1361   3.334   9.474   9.985  0.0357  0.1531 -0.0560
   86loPI    C2 1362   3.045   9.203  10.044  0.0253  0.1606 -0.0718
   86loPI    C3 1363   3.148   9.453  10.339  0.0171  0.1568 -0.0655
   86loPI   PO4 1364   3.383   9.360   9.725  0.1038 -0.0975 -0.0100
   86loPI   GL1 1365   3.665   9.458   9.419 -0.1165 -0.0032  0.2492
   86loPI   GL2 1366   3.650   9.823   9.321 -0.2664 -0.1006  0.0032
   86loPI   C1A 1367   3.729   9.214   9.102  0.0130 -0.2641 -0.2227
   86loPI   C2A 1368   3.701   9.181   8.717  0.2833  0.4152  0.2530
   86loPI   C3A 1369   3.823   8.860   8.369 -0.1208  0.4418 -0.0551
   86loPI   C4A 1370   3.824   8.658   7.974  0.1669 -0.0804 -0.0703
   86loPI   C5A 1371   3.796   8.344   7.716  0.1885  0.0655 -0.0280
   86loPI   C6A 1372   3.488   8.070   7.548 -0.0895 -0.1692 -0.0270
   86loPI   C1B 1373   3.543  10.120   9.095  0.1466  0.1249 -0.0903
   86loPI   C2B 1374   3.906  10.095   8.815  0.0513 -0.1560 -0.2219
   86loPI   C3B 1375   3.987  10.164   8.381  0.0118 -0.0781 -0.0749
   86loPI   C4B 1376   3.958  10.066   7.913  0.0634 -0.0965 -0.2697
   87loPI    C1 1377   0.694   2.515   9.955  0.2461  0.3022  0.1795
   87loPI    C2 1378   0.581   2.627  10.322 -0.1327 -0.1355  0.2061
   87loPI    C3 1379   0.839   2.326  10.276 -0.3005 -0.2667  0.1117
   87loPI   PO4 1380   0.621   2.748   9.839  0.3708  0.1367 -0.0852
   87loPI   GL1 1381   0.659   2.841   9.435 -0.2836 -0.0083 -0.0059
   87loPI   GL2 1382   0.752   3.160   9.241  0.2552  0.0738 -0.3942
   87loPI   C1A 1383   0.795   2.771   8.996 -0.0489 -0.0851 -0.0136
   87loPI   C2A 1384   0.525   2.754   8.551  0.0298  0.0518 -0.5458
   87loPI   C3A 1385   0.302   2.680   8.276 -0.0002 -0.1124 -0.2217
   87loPI   C4A 1386  -0.049   2.646   8.030 -0.0402  0.2797 -0.3901
   87loPI   C5A 1387  -0.266   2.394   7.761 -0.2898  0.1799 -0.2631
   87loPI   C6A 1388  -0.428   2.461   7.414  0.1337 -0.1072 -0.1984
   87loPI   C1B 1389   0.362   2.999   8.997 -0.0211 -0.1996  0.1879
   87loPI   C2B 1390   0.078   2.978   8.720  0.3103  0.1980 -0.1620
   87loPI   C3B 1391  -0.177   2.743   8.499 -0.0124  0.1970  0.0800
   87loPI   C4B 1392  -0.454   2.474   8.282 -0.0310  0.2570  0.2670
   88loPI    C1 1393   6.236  10.511   9.934  0.0461 -0.0516  0.0198
   88loPI    C2 1394   5.886  10.406  10.097 -0.0505 -0.0884 -0.2070
   88loPI    C3 1395   6.050  10.761  10.185 -0.1330 -0.0804 -0.0826
   88loPI   PO4 1396   6.242  10.335   9.718  0.1249 -0.0995  0.0684
   88loPI   GL1 1397   6.109  10.169   9.397 -0.2746  0.0209  0.0587
   88loPI   GL2 1398   6.036   9.800   9.253  0.1267  0.1380 -0.1784
   88loPI   C1A 1399   6.248  10.449   9.046  0.2370 -0.2634  0.1844
   88loPI   C2A 1400   6.334  10.656   8.697 -0.0667 -0.0391  0.2236
   88loPI   C3A 1401   6.252  10.712   8.283  0.2160 -0.0679  0.1292
   88loPI   C4A 1402   6.162  10.806   7.909 -0.1108 -0.0903  0.0004
   88loPI   C5A 1403   6.231  10.727   7.455  0.0530  0.1746  0.3899
   88loPI   C6A 1404   6.255  10.749   6.989  0.0759  0.0551 -0.0309
   88loPI   C1B 1405   5.980   9.881   8.796 -0.2427  0.0505  0.0163
   88loPI   C2B 1406   6.287  10.122   8.447  0.1086 -0.1575 -0.1117
   88loPI   C3B 1407   6.274  10.259   8.006  0.0869 -0.1372 -0.0086
   88loPI   C4B 1408   5.906  10.309   7.703 -0.0009  0.1059  0.0018
   89loPI    C1 1409   8.417  16.425  10.204 -0.2822  0.1778  0.3124
   89loPI    C2 1410   8.481  16.071  10.028  0.1988  0.4091  0.0008
   89loPI    C3 1411   8.501  16.103  10.426  0.3227  0.1182  0.0202
   89loPI   PO4 1412   8.427  16.578  10.043 -0.1040 -0.1665 -0.2102
   89loPI   GL1 1413   8.746  16.575   9.706 -0.0159  0.1252  0.1679
   89loPI   GL2 1414   8.894  16.292   9.763 -0.2388 -0.4617 -0.0481
   89loPI   C1A 1415   8.944  16.642   9.364 -0.0401 -0.0263  0.2442
   89loPI   C2A 1416   9.274  16.658   9.104 -0.0053 -0.2878  0.0631
   89loPI   C3A 1417   9.333  16.628   8.588  0.0771 -0.1186  0.2099
   89loPI   C4A 1418   9.106  16.490   8.251  0.1806 -0.0920  0.1027
   89loPI   C5A 1419   8.740  16.662   8.013 -0.0616  0.0746  0.3144
   89loPI   C6A 1420   8.797  16.801   7.609 -0.1295  0.0754  0.2759
   89loPI   C1B 1421   8.997  15.901   9.705 -0.1818  0.2502  0.3904
   89loPI   C2B 1422   9.054  15.658   9.394 -0.1605  0.0482  0.1567
   89loPI   C3B 1423   8.780  15.632   9.251 -0.2696 -0.4484  0.0877
   89loPI   C4B 1424   8.344  15.643   9.286  0.1098  0.1554  0.1094
   90loPI    C1 1425  14.157  16.018  10.657  0.0925  0.2175  0.1398
   90loPI    C2 1426  14.399  16.313  10.778  0.0869  0.2533  0.0641
   90loPI    C3 1427  14.196  16.098  11.047  0.1435  0.2736  0.1233
   90loPI   PO4 1428  14.122  16.106  10.440 -0.1408 -0.1301  0.0722
   90loPI   GL1 1429  14.062  16.080  10.039 -0.1227  0.0628 -0.0918
   90loPI   GL2 1430  13.954  15.702  10.036  0.2211 -0.1291  0.3421
   90loPI   C1A 1431  14.172  16.050   9.556  0.5058  0.4077 -0.3146
   90loPI   C2A 1432  14.201  16.214   9.151 -0.1062 -0.6676 -0.0660
   90loPI   C3A 1433  14.228  15.868   8.763  0.0530  0.1710 -0.0503
   90loPI   C4A 1434  14.461  15.780   8.439  0.1437 -0.2059 -0.1152
   90loPI   C5A 1435  14.796  15.926   8.188  0.3995 -0.1267 -0.0444
   90loPI   C6A 1436  15.054  16.145   7.894 -0.0047  0.1507  0.2175
   90loPI   C1B 1437  13.835  15.581   9.575 -0.0577  0.1013  0.1208
   90loPI   C2B 1438  14.007  15.530   9.106  0.2820 -0.0254 -0.1980
   90loPI   C3B 1439  13.888  15.361   8.664  0.1735 -0.4506 -0.0438
   90loPI   C4B 1440  13.591  15.344   8.335 -0.1873  0.0237  0.0946
   91loPI    C1 1441   6.157   6.287  10.227  0.1616 -0.1763 -0.1185
   91loPI    C2 1442   6.287   6.066  10.534  0.1688  0.0284  0.0280
   91loPI    C3 1443   5.901   6.167  10.510  0.1625 -0.0126 -0.0476
   91loPI   PO4 1444   6.260   6.262  10.009  0.1409  0.1485 -0.0061
   91loPI   GL1 1445   6.171   6.018   9.607 -0.0067  0.1488  0.0142
   91loPI   GL2 1446   5.851   6.000   9.452  0.0394 -0.2333  0.0499
   91loPI   C1A 1447   6.244   6.127   9.169  0.0105 -0.0739  0.0625
   91loPI   C2A 1448   6.196   6.160   8.766  0.0188 -0.1632  0.0435
   91loPI   C3A 1449   6.084   6.220   8.325  0.1734  0.2270  0.0444
   91loPI   C4A 1450   6.071   6.236   7.978  0.1650  0.0460  0.3701
   91loPI   C5A 1451   5.953   6.348   7.622  0.0912 -0.2614  0.0589
   91loPI   C6A 1452   5.759   6.295   7.277  0.1856  0.0651 -0.0356
   91loPI   C1B 1453   5.656   5.779   9.024  0.1346 -0.2107 -0.1389
   91loPI   C2B 1454   5.723   5.816   8.641  0.2003 -0.3376 -0.1793
   91loPI   C3B 1455   5.445   6.032   8.255  0.1337 -0.1268 -0.1629
   91loPI   C4B 1456   5.577   5.979   7.803 -0.0871  0.1058 -0.1676
   92loPI    C1 1457   3.475   3.984   9.988  0.1197 -0.1778  0.0283
   92loPI    C2 1458   3.625   3.886   9.630 -0.0069 -0.1898 -0.0219
   92loPI    C3 1459   3.785   4.188   9.837 -0.0333 -0.0807 -0.1590
   92loPI   PO4 1460   3.253   3.961   9.945 -0.2239  0.1012  0.2095
   92loPI   GL1 1461   3.057   3.721   9.655  0.0211 -0.5187 -0.4055
   92loPI   GL2 1462   3.130   3.412   9.649  0.2612 -0.0765  0.0076
   92loPI   C1A 1463   3.249   3.850   9.309  0.0207  0.3166  0.2265
   92loPI   C2A 1464   3.326   3.812   8.889 -0.2209  0.1855 -0.0149
   92loPI   C3A 1465   3.270   3.823   8.469 -0.0419  0.2125 -0.1524
   92loPI   C4A 1466   3.078   3.815   8.063  0.1632 -0.1174 -0.0209
   92loPI   C5A 1467   2.955   3.849   7.631  0.0150  0.3487 -0.1171
   92loPI   C6A 1468   2.703   3.752   7.353 -0.1182  0.0658 -0.2810
   92loPI   C1B 1469   2.956   3.453   9.185 -0.4474  0.0443 -0.1318
   92loPI   C2B 1470   2.848   3.389   8.779  0.2093 -0.0899  0.0486
   92loPI   C3B 1471   2.898   3.403   8.335 -0.2516 -0.0328  0.1132
   92loPI   C4B 1472   2.711   3.511   7.969  0.2587  0.3697 -0.2438
   93loPI    C1 1473   2.657   4.983   9.848 -0.1319  0.2272  0.2980
   93loPI    C2 1474   2.614   4.710  10.137 -0.3927  0.1292  0.1701
   93loPI    C3 1475   2.612   5.100  10.227 -0.0633  0.0932  0.3482
   93loPI   PO4 1476   2.574   4.836   9.661  0.1388 -0.0238 -0.3585
   93loPI   GL1 1477   2.439   4.701   9.268  0.0023  0.2978 -0.3553
   93loPI   GL2 1478   2.647   4.493   9.297  0.0426 -0.0941  0.1719
   93loPI   C1A 1479   2.207   4.705   8.853 -0.2096  0.0965  0.0422
   93loPI   C2A 1480   2.151   4.764   8.456 -0.0297  0.0548 -0.1969
   93loPI   C3A 1481   2.246   4.914   8.054 -0.4863 -0.0682  0.2675
   93loPI   C4A 1482   2.055   5.207   7.735  0.1181 -0.1090  0.0470
   93loPI   C5A 1483   2.243   5.431   7.313  0.1899 -0.0551 -0.0391
   93loPI   C6A 1484   2.199   5.790   7.112 -0.1973 -0.3387  0.1142
   93loPI   C1B 1485   2.609   4.385   8.871  0.0088  0.1269 -0.2515
   93loPI   C2B 1486   2.631   4.487   8.542 -0.2238 -0.2165 -0.1483
   93loPI   C3B 1487   2.689   4.544   8.125  0.1839 -0.0287  0.0333
   93loPI   C4B 1488   2.733   4.729   7.696 -0.1250  0.0478 -0.1233
   94loPI    C1 1489  12.733   1.854  10.606 -0.0530  0.1416  0.0253
   94loPI    C2 1490  12.412   1.713  10.800  0.1479 -0.0509  0.2235
   94loPI    C3 1491  12.769   1.719  10.981  0.2816  0.0483 -0.0372
   94loPI   PO4 1492  12.622   2.052  10.475  0.1983 -0.3879  0.3535
   94loPI   GL1 1493  12.668   2.043  10.028  0.0650 -0.0318 -0.1334
   94loPI   GL2 1494  12.480   1.756   9.851  0.0426 -0.0673 -0.0483
   94loPI   C1A 1495  12.435   2.093   9.535  0.0402  0.1950 -0.1331
   94loPI   C2A 1496  12.565   1.985   9.141  0.1802  0.1166  0.1149
   94loPI   C3A 1497  12.232   2.041   8.804 -0.0102  0.0217 -0.0074
   94loPI   C4A 1498  11.967   2.328   8.502 -0.0916  0.1724  0.0423
   94loPI   C5A 1499  11.940   2.489   8.097 -0.0736 -0.3471  0.2138
   94loPI   C6A 1500  12.228   2.635   7.823  0.2604  0.1175  0.1236
   94loPI   C1B 1501  12.250   1.647   9.460 -0.0029  0.4349  0.0583
   94loPI   C2B 1502  12.198   1.576   9.069  0.3481 -0.0111 -0.0387
   94loPI   C3B 1503  12.147   1.463   8.664 -0.5633 -0.4063  0.0854
   94loPI   C4B 1504  12.281   1.492   8.226 -0.1267  0.1479 -0.0221
   95loPI    C1 1505   9.264   4.236   9.972 -0.0168  0.0073 -0.0530
   95loPI    C2 1506   9.368   3.971  10.253 -0.0827 -0.0538 -0.0856
   95loPI    C3 1507   9.264   4.344  10.357  0.2621  0.0385 -0.0597
   95loPI   PO4 1508   9.113   4.129   9.814  0.0605  0.0368  0.0711
   95loPI   GL1 1509   9.172   4.177   9.471  0.1788 -0.0420 -0.0990
   95loPI   GL2 1510   9.269   4.371   9.309  0.0570  0.0033 -0.0615
   95loPI   C1A 1511   9.074   4.017   9.029 -0.1429  0.0700  0.0641
   95loPI   C2A 1512   9.007   3.857   8.674  0.0057 -0.3416 -0.3466
   95loPI   C3A 1513   9.239   3.849   8.335  0.4258 -0.0506 -0.0021
   95loPI   C4A 1514   9.335   4.057   8.026 -0.0619  0.1243 -0.2984
   95loPI   C5A 1515   9.649   4.110   7.656 -0.0040  0.0971 -0.0109
   95loPI   C6A 1516   9.909   4.078   7.289  0.1383  0.1089  0.1627
   95loPI   C1B 1517   9.209   4.485   8.956 -0.0313 -0.0745 -0.2874
   95loPI   C2B 1518   9.227   4.348   8.555  0.1639 -0.1284 -0.2025
   95loPI   C3B 1519   9.074   4.468   8.103  0.1101 -0.2862 -0.2233
   95loPI   C4B 1520   8.976   4.435   7.742 -0.1241 -0.0262  0.1620
   96loPI    C1 1521   2.037  10.196   9.838  0.0817  0.0748 -0.1161
   96loPI    C2 1522   1.712  10.234   9.608  0.0103 -0.0872 -0.0432
   96loPI    C3 1523   1.687  10.044   9.959  0.0820  0.2961  0.1738
   96loPI   PO4 1524   2.139  10.382   9.831 -0.2190 -0.0749 -0.0214
   96loPI   GL1 1525   2.293  10.546   9.399  0.0053  0.2058 -0.3163
   96loPI   GL2 1526   2.112  10.276   9.307 -0.3637 -0.1283 -0.1641
   96loPI   C1A 1527   2.328  10.689   9.031  0.1964  0.2182 -0.1366
   96loPI   C2A 1528   2.513  10.764   8.594 -0.1891 -0.0181  0.2238
   96loPI   C3A 1529   2.580  10.892   8.113  0.1469  0.1279  0.3252
   96loPI   C4A 1530   2.426  11.099   7.720  0.4461 -0.0553 -0.1656
   96loPI   C5A 1531   2.291  11.008   7.260 -0.0620 -0.0833 -0.2065
   96loPI   C6A 1532   1.922  10.924   7.026  0.2345 -0.1560  0.1280
   96loPI   C1B 1533   2.200  10.230   8.838  0.1511 -0.0958 -0.3629
   96loPI   C2B 1534   2.007  10.162   8.440 -0.1307 -0.2375  0.0260
   96loPI   C3B 1535   2.042   9.948   8.152 -0.1685  0.1541  0.0998
   96loPI   C4B 1536   2.155   9.857   7.735  0.1942 -0.0622  0.1811
   97loPI    C1 1537   5.357   1.812  10.258 -0.1774 -0.1924 -0.3070
   97loPI    C2 1538   5.438   2.131  10.485 -0.0544 -0.2065 -0.3301
   97loPI    C3 1539   5.732   1.884  10.376 -0.0977 -0.1500 -0.5809
   97loPI   PO4 1540   5.226   1.850  10.009  0.0814  0.0414  0.1102
   97loPI   GL1 1541   5.291   1.998   9.589  0.3210 -0.0585  0.1895
   97loPI   GL2 1542   5.069   2.276   9.658  0.1597 -0.3050  0.0971
   97loPI   C1A 1543   5.393   2.197   9.144  0.0155  0.1789  0.0933
   97loPI   C2A 1544   5.416   2.455   8.840 -0.0944  0.4909 -0.3133
   97loPI   C3A 1545   5.552   2.582   8.506 -0.0672  0.2240  0.0404
   97loPI   C4A 1546   5.249   2.742   8.097  0.0745 -0.0336  0.2788
   97loPI   C5A 1547   4.905   2.374   7.943  0.0875 -0.4712 -0.3472
   97loPI   C6A 1548   4.945   1.961   7.844 -0.1742  0.0926  0.0015
   97loPI   C1B 1549   5.486   2.552   9.611  0.0253  0.2717  0.1797
   97loPI   C2B 1550   5.714   2.536   9.303  0.1358  0.1728 -0.0618
   97loPI   C3B 1551   5.915   2.307   8.925 -0.3038  0.1029  0.2930
   97loPI   C4B 1552   5.946   2.349   8.398 -0.0771  0.0575  0.0487
   98loPI    C1 1553   6.775   8.799  10.399 -0.1462 -0.1930  0.1056
   98loPI    C2 1554   6.927   9.161  10.320 -0.0004 -0.3159 -0.1922
   98loPI    C3 1555   6.728   9.098  10.661  0.1151  0.0006 -0.0625
   98loPI   PO4 1556   6.698   8.698  10.178 -0.0282  0.0744  0.1064
   98loPI   GL1 1557   6.565   8.731   9.800  0.1723 -0.1146 -0.2314
   98loPI   GL2 1558   6.805   9.003   9.747  0.1319 -0.3481 -0.2392
   98loPI   C1A 1559   6.905   8.603   9.450  0.1682  0.2139 -0.0900
   98loPI   C2A 1560   6.980   8.341   9.112  0.1219  0.1004 -0.2192
   98loPI   C3A 1561   6.951   8.330   8.668  0.0421  0.2810  0.0055
   98loPI   C4A 1562   7.167   8.220   8.331  0.1492 -0.1258 -0.0247
   98loPI   C5A 1563   6.982   8.075   8.001 -0.0619  0.1566  0.1187
   98loPI   C6A 1564   6.821   7.862   7.745  0.0548  0.1154  0.3534
   98loPI   C1B 1565   6.813   9.073   9.388  0.1341  0.1656  0.2012
   98loPI   C2B 1566   6.882   8.941   9.044 -0.2212 -0.1242  0.1620
   98loPI   C3B 1567   6.798   8.839   8.650  0.2661  0.0018 -0.1884
   98loPI   C4B 1568   7.027   8.758   8.284  0.3054  0.2197 -0.0285
   99loPI    C1 1569  18.754   3.007   9.956 -0.0220  0.0019 -0.2494
   99loPI    C2 1570  18.977   3.004  10.287 -0.0352  0.2481 -0.2362
   99loPI    C3 1571  19.014   2.710  10.019  0.1635  0.1847 -0.1415
   99loPI   PO4 1572  18.712   3.238   9.859 -0.0597 -0.2690  0.1276
   99loPI   GL1 1573  18.535   3.339   9.569 -0.2509  0.0564  0.3570
   99loPI   GL2 1574  18.775   3.590   9.509 -0.1857 -0.4078 -0.3067
   99loPI   C1A 1575  18.653   3.119   9.140  0.3387  0.5448 -0.1313
   99loPI   C2A 1576  18.551   3.341   8.729  0.1860 -0.1335  0.1494
   99loPI   C3A 1577  18.766   3.211   8.267  0.1009  0.1178 -0.2908
   99loPI   C4A 1578  18.445   2.994   8.021 -0.1353 -0.0444 -0.2900
   99loPI   C5A 1579  18.144   2.734   7.949 -0.2663 -0.2719 -0.0152
   99loPI   C6A 1580  17.942   2.561   7.602 -0.0899 -0.2120  0.0283
   99loPI   C1B 1581  18.722   3.635   9.128  0.3458 -0.0838 -0.1507
   99loPI   C2B 1582  18.814   3.822   8.812 -0.0183  0.0417 -0.0760
   99loPI   C3B 1583  18.787   4.111   8.477 -0.2204  0.1759 -0.0465
   99loPI   C4B 1584  18.736   4.093   8.014  0.1714 -0.0369  0.3697
  100loPI    C1 1585   9.979   1.391  10.559 -0.1867  0.2029  0.0964
  100loPI    C2 1586  10.225   1.682  10.682 -0.0325  0.1206 -0.0142
  100loPI    C3 1587  10.031   1.457  10.950  0.1186  0.0965  0.0764
  100loPI   PO4 1588   9.858   1.490  10.363 -0.1405  0.0958 -0.0972
  100loPI   GL1 1589   9.779   1.292   9.988  0.2548 -0.2990  0.3112
  100loPI   GL2 1590   9.625   1.627   9.956 -0.0844  0.2318 -0.2889
  100loPI   C1A 1591   9.875   1.229   9.605  0.0714  0.0253 -0.0123
  100loPI   C2A 1592  10.052   0.975   9.225  0.4513  0.0172 -0.0846
  100loPI   C3A 1593  10.534   0.950   9.168  0.4173 -0.2239  0.0916
  100loPI   C4A 1594  10.771   0.911   8.747  0.5066  0.3010  0.2431
  100loPI   C5A 1595  10.796   0.864   8.356  0.1547 -0.2748 -0.1259
  100loPI   C6A 1596  11.066   0.958   7.957 -0.2809  0.0822 -0.0857
  100loPI   C1B 1597   9.448   1.517   9.534 -0.1394 -0.2937 -0.1476
  100loPI   C2B 1598   9.390   1.808   9.204  0.0535 -0.4479 -0.0326
  100loPI   C3B 1599   9.170   1.991   8.873  0.2630 -0.0208  0.2110
  100loPI   C4B 1600   9.293   1.883   8.444 -0.3641  0.2562 -0.1174
  101loPI    C1 1601  15.299   7.526  10.031  0.2298  0.4205  0.2319
  101loPI    C2 1602  15.594   7.269  10.115  0.0788  0.1476 -0.0501
  101loPI    C3 1603  15.366   7.415  10.410  0.1409 -0.0727  0.1100
  101loPI   PO4 1604  15.173   7.412   9.822 -0.0351 -0.0469 -0.0511
  101loPI   GL1 1605  15.222   7.454   9.403 -0.2448 -0.0801 -0.1075
  101loPI   GL2 1606  15.140   7.696   9.365 -0.2656  0.2699  0.4021
  101loPI   C1A 1607  15.315   7.489   8.843 -0.2092  0.3574  0.1168
  101loPI   C2A 1608  15.495   7.460   8.456 -0.1132  0.0900 -0.1822
  101loPI   C3A 1609  15.674   7.573   8.035 -0.1489  0.1106  0.0903
  101loPI   C4A 1610  15.915   7.384   7.727 -0.0847 -0.5144 -0.0644
  101loPI   C5A 1611  15.981   6.963   7.495 -0.2342 -0.0414  0.3242
  101loPI   C6A 1612  16.044   6.494   7.473  0.1217 -0.0570 -0.0640
  101loPI   C1B 1613  14.998   7.844   8.954  0.1483 -0.1056  0.0012
  101loPI   C2B 1614  15.013   7.758   8.550  0.0961  0.2455  0.3086
  101loPI   C3B 1615  15.102   7.582   8.148  0.2443 -0.1436 -0.1447
  101loPI   C4B 1616  15.232   7.621   7.716 -0.2182  0.1689  0.3529
  102loPI    C1 1617   1.131  18.373  10.085 -0.1141  0.1500 -0.0997
  102loPI    C2 1618   1.515  18.486  10.100 -0.0705 -0.0037 -0.0321
  102loPI    C3 1619   1.388  18.247   9.805 -0.0707 -0.1098  0.0532
  102loPI   PO4 1620   0.990  18.569  10.018 -0.1247  0.0138  0.0358
  102loPI   GL1 1621   0.891  18.697   9.570 -0.2012 -0.1883  0.2364
  102loPI   GL2 1622   0.639  18.836   9.308 -0.0542 -0.1347 -0.0594
  102loPI   C1A 1623   1.088  18.687   9.187 -0.0700  0.2445 -0.1469
  102loPI   C2A 1624   1.359  18.584   8.816 -0.3019 -0.0832  0.0257
  102loPI   C3A 1625   1.738  18.536   8.635 -0.2226 -0.0988  0.2561
  102loPI   C4A 1626   1.857  18.182   8.489 -0.3435 -0.1545  0.0441
  102loPI   C5A 1627   2.148  17.932   8.667 -0.0390  0.1259  0.0576
  102loPI   C6A 1628   2.489  17.685   8.548 -0.0831  0.1203  0.1405
  102loPI   C1B 1629   0.573  19.086   8.889 -0.1663 -0.2745  0.0344
  102loPI   C2B 1630   0.359  19.229   8.501 -0.0451  0.1055  0.1078
  102loPI   C3B 1631   0.328  19.260   8.067 -0.2303  0.0975  0.0829
  102loPI   C4B 1632   0.524  19.104   7.672 -0.0453 -0.0681  0.3557
  103loPI    C1 1633   6.556  13.842  10.101 -0.1085 -0.0977  0.0694
  103loPI    C2 1634   6.840  13.619  10.273  0.1912  0.1821 -0.0518
  103loPI    C3 1635   6.531  13.753  10.490  0.3110  0.1291  0.1541
  103loPI   PO4 1636   6.735  14.056   9.865 -0.2429  0.3611 -0.0328
  103loPI   GL1 1637   6.486  14.042   9.435 -0.0658 -0.0019  0.1087
  103loPI   GL2 1638   6.161  14.120   9.305  0.1631 -0.3012  0.1891
  103loPI   C1A 1639   6.443  13.853   8.996 -0.3204 -0.0949  0.1264
  103loPI   C2A 1640   6.600  13.897   8.580 -0.2879 -0.0363 -0.0681
  103loPI   C3A 1641   6.574  14.054   8.094 -0.0806  0.1630 -0.3154
  103loPI   C4A 1642   6.720  14.227   7.769 -0.0591 -0.0243  0.1735
  103loPI   C5A 1643   7.063  14.568   7.893 -0.0847 -0.4201  0.2015
  103loPI   C6A 1644   7.263  14.900   7.942 -0.0802  0.0284 -0.0785
  103loPI   C1B 1645   6.003  14.049   9.025 -0.3228 -0.0708 -0.0315
  103loPI   C2B 1646   5.775  14.030   8.736 -0.0390  0.2186 -0.2687
  103loPI   C3B 1647   5.685  13.984   8.311  0.1485  0.3705  0.2019
  103loPI   C4B 1648   5.648  13.848   7.983 -0.1945 -0.0366 -0.1678
  104loPI    C1 1649   1.494  16.127  10.073 -0.0780  0.2151  0.3311
  104loPI    C2 1650   1.102  16.048  10.080 -0.0832  0.2264  0.1904
  104loPI    C3 1651   1.339  15.914  10.373 -0.1725  0.1146  0.2116
  104loPI   PO4 1652   1.611  15.995   9.766  0.2833 -0.2032 -0.1711
  104loPI   GL1 1653   1.194  15.836   9.532  0.0362 -0.3682  0.0931
  104loPI   GL2 1654   0.872  15.819   9.644  0.1710 -0.0040 -0.2791
  104loPI   C1A 1655   1.279  15.550   9.145  0.4858 -0.0052 -0.1954
  104loPI   C2A 1656   1.184  15.349   8.775  0.0156 -0.3553  0.0068
  104loPI   C3A 1657   1.484  15.204   8.608 -0.3081 -0.1730  0.2729
  104loPI   C4A 1658   1.872  15.330   8.494  0.0168  0.1421 -0.0157
  104loPI   C5A 1659   2.120  15.583   8.376 -0.0545  0.1673 -0.0600
  104loPI   C6A 1660   2.318  15.831   8.101  0.3672  0.4008 -0.0031
  104loPI   C1B 1661   0.804  15.876   9.186  0.2640  0.2242  0.0845
  104loPI   C2B 1662   0.920  15.822   8.748 -0.0540 -0.1899  0.1012
  104loPI   C3B 1663   0.860  15.766   8.255 -0.0372  0.0642  0.2063
  104loPI   C4B 1664   1.122  15.861   7.950  0.0424  0.0772  0.0108
  105loPI    C1 1665  13.869   0.197  10.777 -0.0799 -0.0914 -0.0434
  105loPI    C2 1666  13.742   0.573  10.826  0.2474  0.0065  0.0850
  105loPI    C3 1667  13.635   0.290  11.088 -0.0191  0.0016 -0.0251
  105loPI   PO4 1668  13.818   0.166  10.470 -0.1111 -0.0792  0.2364
  105loPI   GL1 1669  13.711   0.188  10.050 -0.1779  0.1215 -0.0195
  105loPI   GL2 1670  13.757   0.378   9.817 -0.1519  0.0959 -0.0654
  105loPI   C1A 1671  13.462  -0.127   9.731  0.1592  0.0055 -0.1225
  105loPI   C2A 1672  13.344  -0.148   9.302 -0.0619 -0.2383 -0.2060
  105loPI   C3A 1673  13.143  -0.083   8.908 -0.1550 -0.1352 -0.1021
  105loPI   C4A 1674  13.119  -0.365   8.636  0.1144  0.1716  0.2126
  105loPI   C5A 1675  13.010  -0.552   8.307  0.1140  0.1217  0.0003
  105loPI   C6A 1676  13.161  -0.352   7.922 -0.0887 -0.1383 -0.1483
  105loPI   C1B 1677  13.705   0.373   9.322  0.0736  0.1248 -0.1564
  105loPI   C2B 1678  13.545   0.260   8.900  0.0200  0.0976 -0.1980
  105loPI   C3B 1679  13.476  -0.013   8.513 -0.1112 -0.3396  0.0720
  105loPI   C4B 1680  13.627  -0.453   8.437 -0.3696  0.0168 -0.1713
  106loPI    C1 1681  10.421  16.543  10.213 -0.0780  0.1108 -0.2071
  106loPI    C2 1682  10.485  16.933  10.152 -0.1151  0.1765  0.1479
  106loPI    C3 1683  10.659  16.748  10.460  0.1536 -0.1636 -0.1979
  106loPI   PO4 1684  10.171  16.520  10.115  0.0936  0.1635 -0.2418
  106loPI   GL1 1685  10.185  16.643   9.775 -0.1520  0.1452  0.3252
  106loPI   GL2 1686  10.006  16.777   9.571 -0.2633  0.2919  0.0099
  106loPI   C1A 1687  10.319  16.508   9.341  0.0855 -0.0787  0.1227
  106loPI   C2A 1688  10.379  16.221   9.181 -0.0674 -0.1063  0.0567
  106loPI   C3A 1689  10.422  15.807   9.160 -0.2110  0.2848 -0.2233
  106loPI   C4A 1690  10.314  15.510   8.842 -0.1335  0.2316  0.1027
  106loPI   C5A 1691  10.104  15.648   8.462  0.5001  0.0986 -0.0863
  106loPI   C6A 1692   9.751  15.618   8.190 -0.0295 -0.7174 -0.1143
  106loPI   C1B 1693  10.161  17.010   9.195  0.0377  0.2177  0.0171
  106loPI   C2B 1694  10.264  17.077   8.730  0.1186  0.0396 -0.0560
  106loPI   C3B 1695  10.138  17.364   8.378  0.0299  0.0844  0.2814
  106loPI   C4B 1696   9.902  17.690   8.180 -0.2005  0.1633 -0.1721
  107loPI    C1 1697  16.623   0.028  10.609  0.1975 -0.2379  0.0156
  107loPI    C2 1698  16.325  -0.209  10.732 -0.0305  0.0569  0.0408
  107loPI    C3 1699  16.540  -0.003  11.000 -0.0061  0.0820  0.0017
  107loPI   PO4 1700  16.831  -0.086  10.330 -0.0218 -0.0740  0.1339
  107loPI   GL1 1701  17.081  -0.161  10.039  0.0218  0.2637 -0.0598
  107loPI   GL2 1702  16.920  -0.473  10.056  0.3700 -0.1266 -0.1269
  107loPI   C1A 1703  16.976   0.004   9.637 -0.1425 -0.2865 -0.0259
  107loPI   C2A 1704  17.071   0.251   9.312  0.1951 -0.0392 -0.0175
  107loPI   C3A 1705  17.064   0.283   8.893 -0.2201  0.2334  0.1684
  107loPI   C4A 1706  17.173   0.511   8.598 -0.3093 -0.1291  0.1467
  107loPI   C5A 1707  17.355   0.562   8.209 -0.2710 -0.0820  0.0462
  107loPI   C6A 1708  17.467   0.242   7.804 -0.0153  0.0079  0.1339
  107loPI   C1B 1709  17.227  -0.473   9.757  0.2213 -0.1422  0.2886
  107loPI   C2B 1710  17.287  -0.354   9.278 -0.0724 -0.1314 -0.3693
  107loPI   C3B 1711  17.290  -0.234   8.849  0.1664 -0.2063 -0.3504
  107loPI   C4B 1712  17.034  -0.017   8.501  0.0344  0.1551  0.2924
  108loPI    C1 1713  15.830   7.750  10.128  0.0335 -0.2081 -0.0341
  108loPI    C2 1714  15.852   7.968  10.462  0.3694 -0.0900 -0.1295
  108loPI    C3 1715  15.956   7.582  10.468  0.2534 -0.1209 -0.0710
  108loPI   PO4 1716  15.971   7.933   9.931  0.2124  0.2126 -0.0203
  108loPI   GL1 1717  15.912   7.969   9.583  0.3336 -0.0714 -0.5025
  108loPI   GL2 1718  15.643   7.858   9.297  0.1734  0.1408 -0.2046
  108loPI   C1A 1719  16.124   8.010   9.151 -0.0444  0.1938 -0.1739
  108loPI   C2A 1720  16.171   8.036   8.793 -0.1069  0.1925 -0.2344
  108loPI   C3A 1721  16.126   7.950   8.436  0.2130  0.1118  0.2198
  108loPI   C4A 1722  15.848   8.019   8.158 -0.1750 -0.0221 -0.1967
  108loPI   C5A 1723  15.705   7.987   7.716  0.0389 -0.1785 -0.2112
  108loPI   C6A 1724  15.983   7.825   7.315 -0.0631 -0.0445 -0.2209
  108loPI   C1B 1725  15.667   7.878   8.884  0.1050  0.0196 -0.0888
  108loPI   C2B 1726  15.548   7.977   8.517 -0.0979  0.1100  0.1382
  108loPI   C3B 1727  15.354   7.989   8.057  0.0067 -0.0717 -0.0278
  108loPI   C4B 1728  15.069   8.224   7.705  0.1128  0.0027 -0.1887
  109loPI    C1 1729   7.851   6.019  10.277  0.0723  0.0834 -0.0296
  109loPI    C2 1730   7.703   5.814  10.587 -0.0119  0.1986  0.0070
  109loPI    C3 1731   7.923   6.142  10.651  0.0484  0.1700 -0.0532
  109loPI   PO4 1732   7.674   5.968  10.064 -0.1735  0.0009  0.2725
  109loPI   GL1 1733   7.720   5.830   9.662 -0.0226 -0.4748 -0.1962
  109loPI   GL2 1734   7.833   5.653   9.549 -0.0183 -0.2101 -0.1419
  109loPI   C1A 1735   7.864   6.004   9.188 -0.0341 -0.1590  0.0893
  109loPI   C2A 1736   7.846   6.009   8.794  0.0057 -0.0646 -0.0446
  109loPI   C3A 1737   7.886   6.065   8.353 -0.2730 -0.0797  0.0603
  109loPI   C4A 1738   7.943   6.026   7.844  0.2224  0.1753 -0.2634
  109loPI   C5A 1739   7.667   6.004   7.502  0.2615 -0.0319  0.0919
  109loPI   C6A 1740   7.211   6.000   7.242 -0.1959  0.0247 -0.0245
  109loPI   C1B 1741   7.831   5.438   9.280 -0.2387  0.2627 -0.0713
  109loPI   C2B 1742   7.823   5.455   8.870  0.2830 -0.1526  0.1276
  109loPI   C3B 1743   7.761   5.595   8.420 -0.1334  0.0228 -0.0835
  109loPI   C4B 1744   8.091   5.647   8.081  0.1977 -0.0313 -0.1437
  110loPI    C1 1745  16.823   8.280  10.166  0.3243  0.1611  0.1097
  110loPI    C2 1746  17.079   8.194  10.461  0.4152 -0.0269 -0.0219
  110loPI    C3 1747  16.708   8.315  10.547  0.2899 -0.5263  0.1759
  110loPI   PO4 1748  16.875   8.133   9.948  0.0035  0.1925 -0.2431
  110loPI   GL1 1749  16.826   8.087   9.513  0.1126 -0.2348  0.1523
  110loPI   GL2 1750  16.650   7.900   9.363 -0.2103  0.2646  0.1063
  110loPI   C1A 1751  16.826   8.388   9.270  0.1550 -0.0573 -0.0552
  110loPI   C2A 1752  16.869   8.535   8.912  0.1692 -0.1397 -0.1300
  110loPI   C3A 1753  16.777   8.752   8.535  0.1078  0.0551  0.1666
  110loPI   C4A 1754  16.970   9.180   8.469 -0.0603  0.3332 -0.1572
  110loPI   C5A 1755  17.207   9.109   8.021  0.2182  0.1157 -0.0219
  110loPI   C6A 1756  17.510   8.777   8.041 -0.0957 -0.0269  0.4318
  110loPI   C1B 1757  16.684   8.035   8.903 -0.1067  0.1344  0.0724
  110loPI   C2B 1758  16.873   8.228   8.472  0.2836  0.0857 -0.0644
  110loPI   C3B 1759  17.146   8.174   8.146  0.3915 -0.6211 -0.1799
  110loPI   C4B 1760  17.315   8.166   7.682  0.0055  0.0528  0.3026
  111loPI    C1 1761   6.977   5.605   9.997  0.0958  0.1650 -0.1491
  111loPI    C2 1762   6.939   5.595  10.395 -0.2159  0.1851 -0.1761
  111loPI    C3 1763   7.216   5.828  10.227 -0.0883  0.1832  0.0280
  111loPI   PO4 1764   6.754   5.625   9.908  0.0875 -0.1372 -0.0488
  111loPI   GL1 1765   6.644   5.763   9.570  0.0104  0.1731 -0.0196
  111loPI   GL2 1766   6.583   5.589   9.261  0.1738  0.1142  0.0740
  111loPI   C1A 1767   6.757   6.039   9.245  0.1471 -0.0577 -0.0181
  111loPI   C2A 1768   6.840   5.938   8.766  0.0652 -0.1305  0.2500
  111loPI   C3A 1769   6.889   5.900   8.396 -0.1915 -0.2335 -0.0833
  111loPI   C4A 1770   6.720   5.999   8.003  0.0788 -0.0019  0.0076
  111loPI   C5A 1771   6.472   5.997   7.660  0.1133 -0.2850  0.0405
  111loPI   C6A 1772   6.052   5.816   7.497 -0.4592 -0.0786 -0.1710
  111loPI   C1B 1773   6.356   5.706   8.858 -0.3083  0.2409 -0.0170
  111loPI   C2B 1774   6.418   5.851   8.413 -0.1607  0.2114 -0.0674
  111loPI   C3B 1775   6.316   5.631   8.111 -0.3762  0.0706 -0.2270
  111loPI   C4B 1776   6.202   5.428   7.716 -0.2167 -0.2297  0.1396
  112loPI    C1 1777  14.082  18.559  10.595  0.2682 -0.1815 -0.1258
  112loPI    C2 1778  14.188  18.753  10.928  0.1442 -0.0428 -0.1660
  112loPI    C3 1779  13.935  18.444  10.949 -0.1902  0.2242 -0.1730
  112loPI   PO4 1780  14.314  18.510  10.457 -0.1081  0.0499  0.0844
  112loPI   GL1 1781  14.496  18.566  10.117  0.3841  0.2029  0.0498
  112loPI   GL2 1782  14.777  18.389  10.031  0.3545 -0.1149 -0.0942
  112loPI   C1A 1783  14.551  18.825   9.722 -0.1764  0.4191  0.2573
  112loPI   C2A 1784  14.649  19.111   9.263 -0.0971  0.1026 -0.2784
  112loPI   C3A 1785  14.661  19.392   9.012  0.1099  0.4879 -0.2093
  112loPI   C4A 1786  14.875  19.477   8.713 -0.0786 -0.2573  0.0953
  112loPI   C5A 1787  14.867  19.445   8.169  0.0747  0.2406  0.1624
  112loPI   C6A 1788  14.506  19.271   7.838 -0.1299  0.1117  0.0849
  112loPI   C1B 1789  14.825  18.434   9.570  0.0620 -0.0430 -0.1825
  112loPI   C2B 1790  14.942  18.129   9.214 -0.1959 -0.4631 -0.0990
  112loPI   C3B 1791  15.133  18.163   8.811  0.0293  0.2416 -0.1471
  112loPI   C4B 1792  15.123  18.152   8.316  0.0152 -0.0457  0.0752
  113loPI    C1 1793  12.301  13.983  10.372 -0.4518  0.0831  0.1758
  113loPI    C2 1794  12.193  14.046   9.992  0.1356  0.1863  0.0158
  113loPI    C3 1795  12.222  14.354  10.245  0.0254  0.1545  0.0678
  113loPI   PO4 1796  12.209  13.676  10.325  0.0594  0.0184  0.0772
  113loPI   GL1 1797  11.860  13.592  10.018 -0.0104 -0.1027 -0.4293
  113loPI   GL2 1798  11.993  13.330   9.752  0.1269 -0.0672 -0.1936
  113loPI   C1A 1799  11.782  13.846   9.765 -0.0408  0.0128  0.0271
  113loPI   C2A 1800  12.058  13.997   9.443  0.0407 -0.3532 -0.3379
  113loPI   C3A 1801  12.085  14.205   9.010  0.0549 -0.0057  0.4324
  113loPI   C4A 1802  12.358  14.281   8.728 -0.0676  0.0597  0.1060
  113loPI   C5A 1803  12.317  14.392   8.348  0.0213 -0.2256 -0.4202
  113loPI   C6A 1804  12.405  14.666   7.993  0.0748  0.2814 -0.2275
  113loPI   C1B 1805  12.170  13.503   9.380  0.1634  0.0028 -0.2168
  113loPI   C2B 1806  12.395  13.713   9.141  0.0145  0.2097 -0.1286
  113loPI   C3B 1807  12.421  13.740   8.620 -0.0030 -0.3512  0.1113
  113loPI   C4B 1808  12.515  13.850   8.143 -0.2075 -0.1354  0.1607
  114loPI    C1 1809  11.597  17.705  10.593  0.0240 -0.2049 -0.0020
  114loPI    C2 1810  11.460  17.493  10.904  0.1606 -0.0688  0.1531
  114loPI    C3 1811  11.727  17.331  10.654  0.0465 -0.1805  0.1020
  114loPI   PO4 1812  11.436  17.796  10.487 -0.1465  0.0320  0.0480
  114loPI   GL1 1813  11.441  17.781  10.034  0.2875  0.1932 -0.3974
  114loPI   GL2 1814  11.269  17.434   9.839  0.0611  0.0117 -0.0637
  114loPI   C1A 1815  11.250  17.874   9.619  0.0344 -0.1300 -0.0687
  114loPI   C2A 1816  11.267  17.839   9.201  0.0297  0.2774  0.2105
  114loPI   C3A 1817  11.256  17.715   8.808  0.0592  0.0104  0.0924
  114loPI   C4A 1818  11.323  17.464   8.502  0.3124 -0.0779  0.1064
  114loPI   C5A 1819  11.350  17.125   8.230  0.1177 -0.1738  0.1080
  114loPI   C6A 1820  11.524  17.049   7.750  0.1897 -0.1934 -0.1130
  114loPI   C1B 1821  11.134  17.164   9.520 -0.1526 -0.2557  0.1558
  114loPI   C2B 1822  11.269  17.117   9.098  0.3600 -0.0619 -0.0139
  114loPI   C3B 1823  11.455  17.017   8.763  0.2738  0.0111  0.3170
  114loPI   C4B 1824  11.871  16.919   8.591 -0.0073  0.1853 -0.3435
  115loPI    C1 1825   4.357   5.999  10.305  0.2100 -0.0198 -0.0758
  115loPI    C2 1826   4.196   5.693  10.103 -0.0337  0.0059  0.0747
  115loPI    C3 1827   4.488   5.626  10.369 -0.0422 -0.0872  0.0609
  115loPI   PO4 1828   4.360   6.187  10.006  0.1477 -0.3079  0.0597
  115loPI   GL1 1829   4.252   6.287   9.637 -0.0645  0.1663 -0.0676
  115loPI   GL2 1830   4.358   5.984   9.489  0.0581 -0.2520 -0.2156
  115loPI   C1A 1831   3.970   6.319   9.301  0.0311  0.1076  0.4526
  115loPI   C2A 1832   3.924   6.444   8.845 -0.0401  0.2321 -0.0735
  115loPI   C3A 1833   3.916   6.399   8.369 -0.1192  0.1450  0.0625
  115loPI   C4A 1834   4.056   6.260   8.057 -0.0641 -0.0046  0.0909
  115loPI   C5A 1835   4.083   5.926   7.810  0.0569 -0.0728 -0.1676
  115loPI   C6A 1836   4.205   5.922   7.323  0.0701 -0.3387  0.0232
  115loPI   C1B 1837   4.325   6.023   9.110 -0.0937  0.0823  0.1461
  115loPI   C2B 1838   3.967   5.949   8.781 -0.0489  0.4080  0.4048
  115loPI   C3B 1839   4.013   5.914   8.373 -0.1044  0.0573 -0.1220
  115loPI   C4B 1840   3.643   5.923   8.136  0.1081 -0.0578 -0.0264
  116loPI    C1 1841  18.808  15.612  10.418  0.1254 -0.1164 -0.2057
  116loPI    C2 1842  18.903  15.244  10.542  0.0405 -0.0085  0.1941
  116loPI    C3 1843  19.170  15.541  10.572  0.0700 -0.0110 -0.0236
  116loPI   PO4 1844  18.699  15.586  10.138  0.0496  0.0442  0.4959
  116loPI   GL1 1845  18.787  15.712   9.733  0.0719 -0.2203 -0.0787
  116loPI   GL2 1846  19.116  15.648   9.845 -0.0460 -0.2349  0.3088
  116loPI   C1A 1847  18.464  15.604   9.350  0.2278 -0.2378  0.1374
  116loPI   C2A 1848  18.092  15.391   9.136 -0.1713  0.0142 -0.0321
  116loPI   C3A 1849  17.916  15.056   8.907  0.0406  0.0447 -0.0324
  116loPI   C4A 1850  17.889  14.836   8.578  0.0432  0.0440  0.0357
  116loPI   C5A 1851  17.689  14.526   8.283  0.0753  0.0798 -0.0352
  116loPI   C6A 1852  17.769  14.068   8.209  0.0136  0.0256 -0.0282
  116loPI   C1B 1853  19.222  15.714   9.383 -0.1637  0.1296 -0.2232
  116loPI   C2B 1854  19.309  15.678   8.898  0.1899 -0.2428  0.1266
  116loPI   C3B 1855  19.255  15.693   8.426 -0.2026 -0.1817 -0.0607
  116loPI   C4B 1856  19.071  15.534   8.099  0.1310 -0.1337 -0.0234
  117loPI    C1 1857  18.722  11.531  10.621 -0.0670 -0.2278  0.0746
  117loPI    C2 1858  19.100  11.493  10.748 -0.1006  0.0144  0.2554
  117loPI    C3 1859  18.798  11.466  11.009 -0.2039 -0.0692  0.1290
  117loPI   PO4 1860  18.700  11.339  10.349  0.0377  0.1273 -0.0135
  117loPI   GL1 1861  18.575  11.242   9.855  0.0288  0.0108 -0.2142
  117loPI   GL2 1862  18.316  11.336   9.604 -0.1160 -0.0374 -0.1518
  117loPI   C1A 1863  18.771  11.126   9.402 -0.0200  0.2944  0.1808
  117loPI   C2A 1864  18.983  11.168   8.966 -0.0739  0.1133 -0.0005
  117loPI   C3A 1865  19.317  11.353   8.729  0.0930 -0.0266  0.2158
  117loPI   C4A 1866  19.566  11.510   8.296 -0.0330 -0.1879  0.0804
  117loPI   C5A 1867  19.763  11.472   7.925  0.2504 -0.1952  0.4072
  117loPI   C6A 1868  19.725  11.362   7.538  0.0432  0.1271 -0.1235
  117loPI   C1B 1869  18.314  11.299   9.143  0.1293  0.1122 -0.1741
  117loPI   C2B 1870  18.087  11.174   8.717 -0.1088 -0.0278  0.0788
  117loPI   C3B 1871  18.019  11.264   8.302 -0.1116  0.1096 -0.0784
  117loPI   C4B 1872  18.040  11.122   7.792 -0.1194  0.3599  0.2638
  118loPI    C1 1873  15.158   6.586  10.046 -0.0188  0.0182  0.0349
  118loPI    C2 1874  15.198   6.973  10.138 -0.3218  0.0653 -0.0217
  118loPI    C3 1875  15.177   6.699  10.429  0.5060  0.0171  0.0170
  118loPI   PO4 1876  14.950   6.486   9.915  0.1135  0.0561 -0.2003
  118loPI   GL1 1877  15.012   6.303   9.622 -0.0747 -0.2385  0.0210
  118loPI   GL2 1878  14.875   6.561   9.382 -0.4912 -0.0327 -0.0412
  118loPI   C1A 1879  14.833   6.133   9.235 -0.0601  0.1683  0.1660
  118loPI   C2A 1880  15.001   6.106   8.784 -0.2166 -0.0448  0.1756
  118loPI   C3A 1881  15.273   6.082   8.433 -0.1963 -0.0804  0.0896
  118loPI   C4A 1882  15.370   6.011   7.916 -0.4663  0.1694 -0.0558
  118loPI   C5A 1883  15.198   5.877   7.513 -0.2115 -0.0554  0.1419
  118loPI   C6A 1884  14.994   5.654   7.603  0.0334  0.0024 -0.1356
  118loPI   C1B 1885  14.964   6.611   9.014  0.1347  0.2225  0.0121
  118loPI   C2B 1886  14.967   6.554   8.606  0.1764  0.0732  0.0247
  118loPI   C3B 1887  14.895   6.347   8.234 -0.2689  0.3178 -0.2916
  118loPI   C4B 1888  14.966   6.267   7.707  0.4852  0.1768 -0.0492
  119loPI    C1 1889   5.636   4.519   9.778 -0.1271 -0.0171 -0.1444
  119loPI    C2 1890   5.750   4.245  10.046 -0.1881 -0.0713 -0.1738
  119loPI    C3 1891   5.584   4.587  10.169  0.0261  0.0185 -0.1293
  119loPI   PO4 1892   5.809   4.447   9.603  0.2313  0.1606 -0.0596
  119loPI   GL1 1893   5.556   4.342   9.224 -0.0145  0.0508 -0.0148
  119loPI   GL2 1894   5.709   4.096   9.116  0.1738 -0.0158 -0.1103
  119loPI   C1A 1895   5.510   4.597   8.906 -0.1911 -0.3111  0.0841
  119loPI   C2A 1896   5.398   4.596   8.535  0.0232 -0.2762 -0.0447
  119loPI   C3A 1897   5.242   4.481   8.178 -0.0543  0.0179 -0.1392
  119loPI   C4A 1898   5.081   4.081   8.034  0.2372  0.1887  0.1350
  119loPI   C5A 1899   4.994   3.768   7.972 -0.2141  0.1099 -0.1582
  119loPI   C6A 1900   5.135   3.422   8.236 -0.2634 -0.0589  0.2926
  119loPI   C1B 1901   5.998   3.968   8.862  0.1891 -0.0312 -0.0488
  119loPI   C2B 1902   5.976   3.975   8.390  0.1464  0.1198 -0.0860
  119loPI   C3B 1903   5.988   3.771   7.909  0.2392  0.5608  0.2657
  119loPI   C4B 1904   5.746   3.402   7.711 -0.1720 -0.2505  0.1415
  120loPI    C1 1905  12.188   4.318  10.211  0.2807  0.0459  0.0147
  120loPI    C2 1906  12.100   4.588   9.929 -0.1800  0.0139  0.1202
  120loPI    C3 1907  12.176   4.707  10.303  0.0569  0.0270  0.0699
  120loPI   PO4 1908  12.327   4.171  10.137 -0.0967  0.4453  0.1733
  120loPI   GL1 1909  12.518   4.088   9.680 -0.3485  0.0888 -0.2057
  120loPI   GL2 1910  12.254   4.152   9.663  0.2076 -0.1102 -0.1648
  120loPI   C1A 1911  12.331   4.248   9.219  0.0448 -0.1372 -0.2343
  120loPI   C2A 1912  12.054   4.429   8.912 -0.2810 -0.0230  0.2277
  120loPI   C3A 1913  11.982   4.539   8.494 -0.0199 -0.2598 -0.0175
  120loPI   C4A 1914  11.629   4.643   8.307 -0.0803 -0.1908 -0.4359
  120loPI   C5A 1915  11.433   4.725   7.954  0.2351 -0.3621 -0.1434
  120loPI   C6A 1916  11.140   4.706   7.556  0.4679  0.2216 -0.0090
  120loPI   C1B 1917  11.926   4.377   9.430  0.3212 -0.1485 -0.0738
  120loPI   C2B 1918  11.546   4.613   9.052  0.3511 -0.0652 -0.3647
  120loPI   C3B 1919  11.355   4.634   8.713  0.2042 -0.0085  0.0756
  120loPI   C4B 1920  11.109   4.568   8.424  0.0438  0.3536 -0.0552
  121loPI    C1 1921  17.317  17.747  10.284  0.0461 -0.1721 -0.1306
  121loPI    C2 1922  16.958  17.919  10.316  0.1848  0.0906  0.0464
  121loPI    C3 1923  17.036  17.581  10.516  0.0795  0.1054  0.1136
  121loPI   PO4 1924  17.316  17.753  10.028 -0.2977 -0.1775  0.0394
  121loPI   GL1 1925  17.293  17.872   9.641 -0.0040  0.1706  0.2363
  121loPI   GL2 1926  17.516  17.888   9.402  0.2089  0.1673  0.1046
  121loPI   C1A 1927  16.974  18.113   9.369  0.1389 -0.4059  0.0552
  121loPI   C2A 1928  16.999  18.268   8.968  0.1872  0.1764  0.0643
  121loPI   C3A 1929  16.894  18.387   8.608  0.1879 -0.0912 -0.0986
  121loPI   C4A 1930  16.850  18.547   8.186  0.2807  0.2536  0.0327
  121loPI   C5A 1931  16.560  18.691   7.850 -0.1135 -0.0370  0.0145
  121loPI   C6A 1932  16.459  18.733   7.408 -0.2853  0.3324 -0.1549
  121loPI   C1B 1933  17.261  17.854   9.061 -0.1233  0.1145  0.3192
  121loPI   C2B 1934  17.125  17.889   8.669  0.1539  0.0183 -0.1655
  121loPI   C3B 1935  16.988  17.947   8.284  0.0430 -0.1731 -0.0281
  121loPI   C4B 1936  16.923  17.776   7.820  0.0433 -0.1329  0.1106
  122loPI    C1 1937   2.466  13.052  10.151 -0.1619  0.2394 -0.0701
  122loPI    C2 1938   2.356  13.388  10.336 -0.1412  0.1070  0.1875
  122loPI    C3 1939   2.316  13.036  10.521 -0.0688 -0.0234 -0.0411
  122loPI   PO4 1940   2.317  12.996   9.966  0.2661  0.2204  0.1583
  122loPI   GL1 1941   2.412  12.876   9.601  0.0307 -0.1502  0.0351
  122loPI   GL2 1942   2.220  13.087   9.439 -0.3307  0.1153  0.0848
  122loPI   C1A 1943   2.469  12.692   9.141 -0.1377 -0.2190 -0.0802
  122loPI   C2A 1944   2.281  12.521   8.733 -0.0469 -0.2287 -0.1058
  122loPI   C3A 1945   2.118  12.428   8.333  0.0403  0.2156 -0.2626
  122loPI   C4A 1946   1.893  12.348   7.981 -0.1343  0.0008  0.1510
  122loPI   C5A 1947   1.640  12.321   7.571  0.1659 -0.0320  0.0589
  122loPI   C6A 1948   1.385  12.020   7.282  0.1918 -0.0670  0.0414
  122loPI   C1B 1949   2.065  13.002   8.989 -0.1191 -0.0219  0.1186
  122loPI   C2B 1950   1.990  13.049   8.552 -0.2545 -0.0432  0.1616
  122loPI   C3B 1951   1.900  12.875   8.194 -0.0568 -0.0492  0.0361
  122loPI   C4B 1952   1.867  12.777   7.729 -0.0958  0.0530 -0.3630
  123loPI    C1 1953   6.479  12.637   9.992  0.1744 -0.1999  0.1047
  123loPI    C2 1954   6.464  12.605  10.390  0.1673  0.4015  0.1627
  123loPI    C3 1955   6.143  12.732  10.188  0.0173 -0.3373 -0.0942
  123loPI   PO4 1956   6.658  12.752   9.897 -0.2843 -0.1965 -0.2578
  123loPI   GL1 1957   6.827  12.760   9.565 -0.2908 -0.0574  0.1774
  123loPI   GL2 1958   6.646  12.976   9.406  0.0051 -0.2376  0.3727
  123loPI   C1A 1959   7.116  12.736   9.286 -0.1897 -0.1430 -0.0218
  123loPI   C2A 1960   7.168  13.123   8.911 -0.0439  0.2283  0.1405
  123loPI   C3A 1961   7.194  13.098   8.524  0.0020  0.0453 -0.3119
  123loPI   C4A 1962   7.393  12.996   8.164  0.1096  0.2417 -0.3074
  123loPI   C5A 1963   7.497  12.804   7.710  0.0364  0.3353  0.0376
  123loPI   C6A 1964   7.881  12.705   7.506 -0.3866 -0.0627 -0.0329
  123loPI   C1B 1965   6.767  12.858   8.980  0.0603 -0.1092 -0.4076
  123loPI   C2B 1966   6.730  13.005   8.541  0.0277  0.0017 -0.0554
  123loPI   C3B 1967   6.638  13.159   8.160  0.0417  0.0671  0.2110
  123loPI   C4B 1968   6.533  13.062   7.773  0.0481 -0.0871 -0.0835
  124loPI    C1 1969   9.281   5.560  10.575  0.2255 -0.1332 -0.1285
  124loPI    C2 1970   9.518   5.782  10.809  0.1274  0.0402 -0.1919
  124loPI    C3 1971   9.245   5.540  10.973 -0.0504  0.2811 -0.1268
  124loPI   PO4 1972   9.181   5.732  10.329 -0.0727  0.3207 -0.2582
  124loPI   GL1 1973   9.482   5.718   9.975  0.1790  0.0768 -0.2781
  124loPI   GL2 1974   9.716   5.802   9.936 -0.0641  0.4014 -0.0641
  124loPI   C1A 1975   9.428   5.498   9.619  0.2509 -0.0643  0.2781
  124loPI   C2A 1976   9.398   5.579   9.187 -0.0939  0.0871  0.0590
  124loPI   C3A 1977   9.285   5.451   8.703  0.0618  0.0171  0.4309
  124loPI   C4A 1978   9.271   5.393   8.191 -0.2858  0.2127 -0.0489
  124loPI   C5A 1979   9.162   5.329   7.735  0.1753 -0.2712 -0.2581
  124loPI   C6A 1980   8.894   5.598   7.435 -0.2738  0.1134  0.3900
  124loPI   C1B 1981   9.647   5.981   9.544  0.1170  0.3902 -0.1526
  124loPI   C2B 1982   9.785   5.979   9.177 -0.2001 -0.5078  0.0515
  124loPI   C3B 1983   9.816   5.890   8.650  0.4605  0.1967 -0.3265
  124loPI   C4B 1984   9.685   5.551   8.473  0.4594  0.0892  0.0293
  125loPI    C1 1985   9.775   9.557  10.272 -0.1956  0.2344  0.0489
  125loPI    C2 1986   9.999   9.818  10.476  0.0860  0.0785 -0.0547
  125loPI    C3 1987   9.600   9.838  10.496  0.1062  0.3791  0.1084
  125loPI   PO4 1988   9.892   9.561   9.962 -0.0327 -0.0678 -0.0870
  125loPI   GL1 1989  10.165   9.643   9.719  0.4589  0.0693 -0.2062
  125loPI   GL2 1990   9.870   9.823   9.509  0.2690  0.0798  0.0102
  125loPI   C1A 1991  10.065   9.429   9.274 -0.3706 -0.0099  0.1240
  125loPI   C2A 1992  10.133   9.309   8.962  0.1217  0.2094 -0.1879
  125loPI   C3A 1993  10.110   9.227   8.505 -0.0854 -0.1076  0.2400
  125loPI   C4A 1994   9.912   9.128   8.086  0.2322 -0.1207  0.1909
  125loPI   C5A 1995  10.096   9.226   7.658 -0.2269  0.1267 -0.0320
  125loPI   C6A 1996  10.270   9.653   7.714 -0.1844  0.0672 -0.0805
  125loPI   C1B 1997   9.780   9.786   9.077 -0.3883  0.1865  0.0858
  125loPI   C2B 1998   9.720   9.687   8.677 -0.0465  0.0409  0.3271
  125loPI   C3B 1999   9.704   9.558   8.287 -0.2503  0.1049  0.0715
  125loPI   C4B 2000   9.691   9.584   7.820 -0.3419 -0.1303  0.3313
  126loPI    C1 2001   4.406   8.764  10.142 -0.3439  0.1939 -0.0648
  126loPI    C2 2002   4.098   8.533  10.254  0.0119 -0.2367  0.0535
  126loPI    C3 2003   4.368   8.652  10.524  0.0164  0.0421 -0.0701
  126loPI   PO4 2004   4.386   8.669   9.845 -0.1851 -0.1516 -0.3927
  126loPI   GL1 2005   4.398   8.469   9.549  0.2013  0.1481  0.0890
  126loPI   GL2 2006   4.169   8.651   9.374 -0.0343  0.0071  0.1286
  126loPI   C1A 2007   4.515   8.286   9.066 -0.1716 -0.3104  0.4924
  126loPI   C2A 2008   4.789   7.964   8.820  0.2721  0.2106 -0.1497
  126loPI   C3A 2009   4.938   7.854   8.375  0.1624 -0.2157 -0.0744
  126loPI   C4A 2010   5.121   7.852   7.911 -0.1623  0.0355 -0.3820
  126loPI   C5A 2011   5.432   7.865   7.641  0.4210 -0.2274  0.2082
  126loPI   C6A 2012   5.798   7.974   7.361 -0.0147 -0.2876 -0.0950
  126loPI   C1B 2013   4.189   8.574   8.856 -0.0675 -0.0959 -0.0081
  126loPI   C2B 2014   4.316   8.609   8.415 -0.0002 -0.0617  0.0006
  126loPI   C3B 2015   4.340   8.707   8.064  0.1682  0.2239  0.1857
  126loPI   C4B 2016   4.177   8.674   7.573  0.1558  0.2710 -0.1954
  127loPI    C1 2017   2.120   1.961  10.210  0.1136  0.1693  0.1963
  127loPI    C2 2018   2.474   2.099  10.336  0.1494  0.1645  0.1017
  127loPI    C3 2019   2.145   2.165  10.553  0.2340  0.0254  0.2746
  127loPI   PO4 2020   2.073   2.039   9.972 -0.2243 -0.0972 -0.0906
  127loPI   GL1 2021   2.127   1.874   9.620 -0.2922 -0.1032 -0.1201
  127loPI   GL2 2022   2.099   1.609   9.461  0.1892 -0.1712  0.4023
  127loPI   C1A 2023   1.995   2.053   9.233 -0.2591 -0.1965  0.0537
  127loPI   C2A 2024   1.913   1.857   8.883  0.0877  0.2048  0.1875
  127loPI   C3A 2025   1.687   1.804   8.481 -0.4182 -0.1203  0.1678
  127loPI   C4A 2026   1.771   1.641   8.029 -0.0898 -0.1166  0.2363
  127loPI   C5A 2027   1.979   1.813   7.701 -0.4736 -0.0016  0.1581
  127loPI   C6A 2028   1.863   2.022   7.304 -0.3198 -0.1350 -0.0095
  127loPI   C1B 2029   2.178   1.470   8.977 -0.1120 -0.0676  0.1424
  127loPI   C2B 2030   1.989   1.418   8.580  0.2859  0.1081 -0.3263
  127loPI   C3B 2031   1.699   1.117   8.364 -0.1196 -0.0170  0.1021
  127loPI   C4B 2032   1.543   1.166   8.003 -0.1456 -0.0017  0.2700
  128loPI    C1 2033   4.413   9.434  10.152 -0.2138 -0.0042  0.0209
  128loPI    C2 2034   4.227   9.785  10.103 -0.0540  0.0502 -0.2082
  128loPI    C3 2035   4.538   9.757  10.353 -0.2943 -0.0147  0.0887
  128loPI   PO4 2036   4.293   9.244   9.985  0.1150 -0.0282 -0.2125
  128loPI   GL1 2037   4.076   9.152   9.558  0.0032  0.0238 -0.1847
  128loPI   GL2 2038   4.376   9.062   9.536  0.0448  0.0529 -0.1177
  128loPI   C1A 2039   4.225   9.013   9.088 -0.1336 -0.3609 -0.2261
  128loPI   C2A 2040   4.226   9.119   8.527 -0.2456 -0.3320  0.0044
  128loPI   C3A 2041   4.185   9.164   8.134  0.0911  0.2676  0.4330
  128loPI   C4A 2042   4.148   9.134   7.676 -0.1194  0.1279  0.0732
  128loPI   C5A 2043   3.718   9.375   7.393  0.0163 -0.0463  0.1134
  128loPI   C6A 2044   3.262   9.510   7.456  0.1433  0.3315 -0.1227
  128loPI   C1B 2045   4.696   9.222   9.255 -0.2254 -0.1623 -0.1272
  128loPI   C2B 2046   4.670   9.145   8.793 -0.2593 -0.4046 -0.3185
  128loPI   C3B 2047   4.747   9.037   8.287  0.2469  0.0875 -0.1669
  128loPI   C4B 2048   4.647   9.015   7.834  0.2034 -0.1322  0.2237
  129loPI    C1 2049   5.684  11.192  10.188 -0.1716 -0.1848 -0.0208
  129loPI    C2 2050   5.526  11.272  10.547 -0.1931  0.0141 -0.0734
  129loPI    C3 2051   5.795  11.522  10.387  0.2250 -0.3499  0.0419
  129loPI   PO4 2052   5.673  11.137   9.990  0.5136 -0.1444 -0.2821
  129loPI   GL1 2053   5.677  11.221   9.544  0.1819 -0.0522  0.2668
  129loPI   GL2 2054   5.811  11.128   9.299 -0.2000  0.0412  0.1544
  129loPI   C1A 2055   5.264  11.237   9.328 -0.3074 -0.2589  0.2083
  129loPI   C2A 2056   5.083  11.393   8.958 -0.0340  0.0283  0.0098
  129loPI   C3A 2057   4.885  11.250   8.596 -0.1758 -0.1032 -0.0933
  129loPI   C4A 2058   4.930  11.255   8.090  0.0389 -0.3851  0.0179
  129loPI   C5A 2059   4.863  11.349   7.647 -0.1404 -0.0079  0.1715
  129loPI   C6A 2060   4.728  11.613   7.291  0.0643 -0.0087  0.0041
  129loPI   C1B 2061   5.575  11.203   8.895  0.1271  0.1127  0.1079
  129loPI   C2B 2062   5.344  11.062   8.565 -0.0669  0.0697  0.1648
  129loPI   C3B 2063   5.353  10.984   8.166 -0.1749 -0.2500 -0.0335
  129loPI   C4B 2064   5.254  11.056   7.773  0.4271  0.3087 -0.1692
  130loPI    C1 2065   9.360   2.682  10.564 -0.2028  0.0352 -0.1116
  130loPI    C2 2066   9.484   2.302  10.573 -0.0039  0.1010 -0.0180
  130loPI    C3 2067   9.264   2.447  10.873  0.0658  0.1076  0.0304
  130loPI   PO4 2068   9.259   2.702  10.369  0.0958  0.0485 -0.0754
  130loPI   GL1 2069   9.452   2.462   9.980 -0.3008 -0.0077 -0.1907
  130loPI   GL2 2070   9.502   2.142  10.049 -0.1477 -0.4553  0.1765
  130loPI   C1A 2071   9.532   2.554   9.615  0.1563 -0.0721 -0.5422
  130loPI   C2A 2072   9.714   2.313   9.215  0.0883  0.1813 -0.0983
  130loPI   C3A 2073   9.612   2.174   8.865 -0.1282  0.3020 -0.2427
  130loPI   C4A 2074   9.649   1.778   8.726 -0.2233  0.0542 -0.1273
  130loPI   C5A 2075   9.612   1.399   8.445  0.0313  0.1022  0.0298
  130loPI   C6A 2076   9.518   1.046   8.206  0.2355 -0.2315 -0.0466
  130loPI   C1B 2077   9.639   1.998   9.647 -0.1033 -0.0824  0.1449
  130loPI   C2B 2078   9.858   1.710   9.376  0.1729  0.1437  0.3498
  130loPI   C3B 2079   9.736   1.391   9.112 -0.3606  0.1690 -0.2582
  130loPI   C4B 2080   9.979   1.300   8.782  0.1015 -0.1163  0.1317
  131loPI    C1 2081  17.225   3.264   9.781  0.0909  0.1001 -0.0622
  131loPI    C2 2082  17.271   3.078  10.132 -0.0717  0.0806 -0.0504
  131loPI    C3 2083  17.349   3.469  10.102  0.0022  0.0694 -0.0079
  131loPI   PO4 2084  16.998   3.052   9.653 -0.1520  0.2058 -0.0583
  131loPI   GL1 2085  17.096   2.945   9.273 -0.0433 -0.0332 -0.2519
  131loPI   GL2 2086  16.700   2.924   9.129  0.0204 -0.1039  0.2451
  131loPI   C1A 2087  17.079   2.968   8.819  0.2662  0.3718 -0.2336
  131loPI   C2A 2088  17.030   2.796   8.414  0.2574 -0.0952 -0.1979
  131loPI   C3A 2089  17.079   2.586   7.987  0.4433 -0.0536 -0.0917
  131loPI   C4A 2090  17.263   2.423   7.628 -0.1194 -0.0838 -0.1846
  131loPI   C5A 2091  17.603   2.265   7.337 -0.0225  0.0235  0.2100
  131loPI   C6A 2092  17.742   2.265   6.892  0.1597  0.2730 -0.0164
  131loPI   C1B 2093  16.609   3.119   8.654 -0.3010 -0.2435  0.0711
  131loPI   C2B 2094  16.595   3.113   8.234 -0.0582 -0.1425 -0.0384
  131loPI   C3B 2095  16.522   3.272   7.728  0.2091 -0.0339 -0.4549
  131loPI   C4B 2096  16.482   3.681   7.419  0.0218 -0.2478  0.0445
  132loPI    C1 2097  11.778   6.053  10.351  0.1727  0.0466  0.1360
  132loPI    C2 2098  11.448   6.272  10.404  0.1636  0.1696 -0.3764
  132loPI    C3 2099  11.809   6.433  10.471  0.1276 -0.0002  0.2985
  132loPI   PO4 2100  11.645   5.802  10.058  0.0709  0.2089  0.0890
  132loPI   GL1 2101  11.660   5.696   9.652  0.4211 -0.1491 -0.0143
  132loPI   GL2 2102  11.393   5.691   9.471 -0.3080  0.1027 -0.0840
  132loPI   C1A 2103  11.966   5.966   9.468  0.1573  0.2188  0.3895
  132loPI   C2A 2104  12.128   6.160   9.106  0.1872  0.3457 -0.0664
  132loPI   C3A 2105  12.037   6.194   8.760 -0.2782  0.0733  0.1832
  132loPI   C4A 2106  12.041   5.933   8.401 -0.0580 -0.1843  0.0501
  132loPI   C5A 2107  12.108   6.143   7.919  0.1612  0.0483 -0.3185
  132loPI   C6A 2108  12.237   6.219   7.502  0.0889 -0.0124  0.0758
  132loPI   C1B 2109  11.401   5.639   9.057  0.0134  0.0539  0.2233
  132loPI   C2B 2110  11.343   5.683   8.604 -0.0402  0.1441  0.2144
  132loPI   C3B 2111  11.125   5.539   8.283 -0.0964  0.0785  0.0076
  132loPI   C4B 2112  10.988   5.587   7.839  0.1008  0.3103  0.2064
  133loPI    C1 2113   8.734   5.919  10.493  0.0730 -0.0738 -0.1331
  133loPI    C2 2114   8.810   5.597  10.718  0.2433  0.1846  0.1870
  133loPI    C3 2115   9.014   5.936  10.778 -0.0727  0.4158 -0.0102
  133loPI   PO4 2116   8.704   5.795  10.245  0.0930 -0.1277 -0.0970
  133loPI   GL1 2117   8.642   5.894   9.800  0.1686  0.1215  0.2389
  133loPI   GL2 2118   8.682   6.229   9.543 -0.1021 -0.0837 -0.0091
  133loPI   C1A 2119   8.866   5.796   9.414  0.1543 -0.0327  0.3996
  133loPI   C2A 2120   8.818   5.734   8.912  0.3088 -0.0058  0.1131
  133loPI   C3A 2121   8.854   5.748   8.549 -0.0636  0.0845 -0.0012
  133loPI   C4A 2122   8.768   5.894   8.305  0.2226  0.0976  0.4765
  133loPI   C5A 2123   8.894   5.970   7.911 -0.0502 -0.1355  0.3065
  133loPI   C6A 2124   9.214   5.830   7.871  0.0952  0.0430  0.1115
  133loPI   C1B 2125   8.678   6.164   9.124 -0.0193  0.2604  0.0098
  133loPI   C2B 2126   8.655   6.199   8.729 -0.4534  0.3385  0.2525
  133loPI   C3B 2127   8.366   6.234   8.408 -0.0323  0.0273  0.2205
  133loPI   C4B 2128   8.398   6.072   8.062 -0.1508  0.0928 -0.2600
  134loPI    C1 2129  11.211   2.704   9.965  0.0494 -0.2459 -0.0046
  134loPI    C2 2130  11.511   2.626  10.218  0.0557 -0.0491  0.0498
  134loPI    C3 2131  11.199   2.844  10.340  0.0582  0.0461 -0.1115
  134loPI   PO4 2132  11.235   2.480   9.853  0.2857 -0.1249  0.2246
  134loPI   GL1 2133  11.555   2.299   9.581 -0.1743  0.1287  0.3945
  134loPI   GL2 2134  11.616   2.669   9.657 -0.0169  0.2244 -0.1455
  134loPI   C1A 2135  11.496   2.259   9.143  0.2003  0.0165  0.3231
  134loPI   C2A 2136  11.434   2.306   8.756  0.1787 -0.1613  0.0381
  134loPI   C3A 2137  11.417   2.200   8.358 -0.1615  0.2348  0.1506
  134loPI   C4A 2138  11.299   1.811   8.022  0.2881 -0.1101  0.1855
  134loPI   C5A 2139  11.706   1.759   7.670  0.1692 -0.0989 -0.0454
  134loPI   C6A 2140  12.116   1.606   7.606  0.4230 -0.1024 -0.0532
  134loPI   C1B 2141  11.678   2.868   9.266  0.2602 -0.1902 -0.1566
  134loPI   C2B 2142  11.361   2.787   8.932 -0.0640  0.0042  0.1979
  134loPI   C3B 2143  11.141   2.912   8.640  0.0363  0.1642  0.0495
  134loPI   C4B 2144  11.074   2.521   8.443 -0.1400  0.2999  0.0844
  135loPI    C1 2145   4.403  13.353  10.073  0.1900 -0.1353 -0.1019
  135loPI    C2 2146   4.597  13.360  10.423 -0.1965  0.0297  0.1149
  135loPI    C3 2147   4.273  13.589  10.369 -0.2281 -0.1052 -0.3028
  135loPI   PO4 2148   4.552  13.390   9.851  0.0941  0.0096  0.1741
  135loPI   GL1 2149   4.649  13.587   9.490 -0.2133  0.0116 -0.1650
  135loPI   GL2 2150   4.434  13.732   9.465  0.0181  0.0720 -0.1123
  135loPI   C1A 2151   4.500  13.389   9.033  0.0772 -0.1057 -0.0624
  135loPI   C2A 2152   4.507  13.238   8.548  0.1626  0.1718  0.0049
  135loPI   C3A 2153   4.385  13.244   8.116  0.0591  0.1311 -0.2629
  135loPI   C4A 2154   4.169  13.277   7.614 -0.0419 -0.2226 -0.0806
  135loPI   C5A 2155   4.400  13.510   7.317 -0.3636 -0.0262  0.1119
  135loPI   C6A 2156   4.555  13.936   7.367 -0.0450 -0.1317  0.2115
  135loPI   C1B 2157   4.358  13.944   9.130  0.1782  0.0652  0.0242
  135loPI   C2B 2158   4.345  13.783   8.686  0.1629  0.1480 -0.0928
  135loPI   C3B 2159   4.126  13.807   8.282 -0.3738 -0.1487 -0.0590
  135loPI   C4B 2160   3.857  13.795   7.994  0.2651 -0.4924 -0.0854
  136loPI    C1 2161   4.827   6.600  10.023 -0.0421  0.0617  0.0115
  136loPI    C2 2162   5.028   6.507  10.356  0.0906  0.0646 -0.0672
  136loPI    C3 2163   4.819   6.226  10.164 -0.0140  0.0706  0.0368
  136loPI   PO4 2164   4.959   6.716   9.880  0.2221 -0.0326 -0.1601
  136loPI   GL1 2165   5.208   6.657   9.541 -0.0082 -0.2484  0.0335
  136loPI   GL2 2166   5.038   6.714   9.417  0.1082  0.0875 -0.1692
  136loPI   C1A 2167   5.647   6.511   9.473 -0.0685 -0.1876 -0.0392
  136loPI   C2A 2168   6.083   6.684   9.348 -0.1032 -0.0862 -0.3473
  136loPI   C3A 2169   6.329   6.763   9.020  0.2503 -0.0792 -0.3796
  136loPI   C4A 2170   6.375   6.739   8.627  0.1656 -0.0445  0.1493
  136loPI   C5A 2171   6.094   6.732   8.226 -0.0179  0.0134 -0.1660
  136loPI   C6A 2172   5.921   6.861   7.846  0.1191 -0.1938 -0.0378
  136loPI   C1B 2173   4.861   6.768   8.984 -0.2828  0.4976 -0.1750
  136loPI   C2B 2174   4.925   6.493   8.607 -0.2145  0.0196 -0.0375
  136loPI   C3B 2175   4.810   6.201   8.406 -0.1783 -0.0015  0.0972
  136loPI   C4B 2176   4.974   5.883   8.193 -0.1211 -0.0938 -0.0463
  137loPI    C1 2177  17.982   6.866  10.342 -0.3794 -0.0140 -0.0973
  137loPI    C2 2178  17.912   6.484  10.435 -0.2378 -0.0944 -0.3142
  137loPI    C3 2179  17.705   6.774  10.615 -0.3220 -0.2707 -0.1230
  137loPI   PO4 2180  17.952   6.876  10.077 -0.1420 -0.1319  0.4180
  137loPI   GL1 2181  17.958   6.858   9.729  0.3506 -0.1960  0.4388
  137loPI   GL2 2182  17.729   6.846   9.567  0.1414 -0.2250 -0.0782
  137loPI   C1A 2183  18.271   6.869   9.450  0.1698  0.0838  0.0203
  137loPI   C2A 2184  18.224   6.905   9.007 -0.1173  0.1029  0.3548
  137loPI   C3A 2185  18.198   6.876   8.607 -0.2175 -0.0335 -0.2336
  137loPI   C4A 2186  18.008   6.680   8.283 -0.1827 -0.2020 -0.0969
  137loPI   C5A 2187  17.931   6.604   7.847  0.0652 -0.0873  0.1886
  137loPI   C6A 2188  17.700   6.585   7.469 -0.3429  0.1806  0.0042
  137loPI   C1B 2189  17.813   7.112   9.176 -0.2678  0.0311 -0.1294
  137loPI   C2B 2190  17.975   7.423   8.848  0.0193 -0.0486 -0.3534
  137loPI   C3B 2191  18.047   7.314   8.456  0.2745 -0.3271  0.0948
  137loPI   C4B 2192  18.183   7.066   7.983 -0.2428  0.1568  0.0750
  138loPI    C1 2193   1.223   0.080   9.920 -0.3520  0.1065 -0.0795
  138loPI    C2 2194   1.379   0.354  10.165 -0.2366  0.0413 -0.0791
  138loPI    C3 2195   1.231   0.014  10.314 -0.0538 -0.0528 -0.1090
  138loPI   PO4 2196   1.440  -0.009   9.722 -0.3845  0.2142 -0.0217
  138loPI   GL1 2197   1.725   0.201   9.342 -0.2333 -0.1147  0.0181
  138loPI   GL2 2198   1.913  -0.035   9.386  0.2404  0.0739 -0.4173
  138loPI   C1A 2199   1.535   0.087   8.998  0.1201 -0.0190  0.0232
  138loPI   C2A 2200   1.449   0.101   8.571 -0.2025  0.2054 -0.0712
  138loPI   C3A 2201   1.329  -0.196   8.304  0.0314  0.2353 -0.6186
  138loPI   C4A 2202   1.555  -0.516   8.137  0.2959 -0.1996 -0.1485
  138loPI   C5A 2203   1.654  -0.915   8.072 -0.1696 -0.0322  0.0773
  138loPI   C6A 2204   2.059  -0.943   8.108 -0.1567 -0.4004  0.0127
  138loPI   C1B 2205   1.690  -0.414   9.184 -0.0578 -0.1685 -0.1421
  138loPI   C2B 2206   1.961  -0.654   9.013  0.1487 -0.0293  0.4484
  138loPI   C3B 2207   2.447  -0.884   9.041 -0.0251  0.3085 -0.0882
  138loPI   C4B 2208   2.511  -1.283   9.025  0.1348  0.0354 -0.2131
  139loPI    C1 2209  13.073  13.977  10.573 -0.1812  0.0293 -0.1340
  139loPI    C2 2210  13.345  14.144  10.813 -0.4356  0.3013 -0.0292
  139loPI    C3 2211  13.355  13.751  10.743  0.0504  0.3235 -0.1195
  139loPI   PO4 2212  13.141  14.125  10.252  0.0086 -0.2166  0.1578
  139loPI   GL1 2213  13.441  13.943   9.931  0.1076 -0.0502  0.2047
  139loPI   GL2 2214  13.507  14.256   9.945  0.1423 -0.0746 -0.1290
  139loPI   C1A 2215  13.376  13.666   9.508  0.1673  0.1555  0.2909
  139loPI   C2A 2216  13.268  13.725   9.081  0.0250 -0.0478  0.0235
  139loPI   C3A 2217  13.233  13.639   8.790 -0.3754  0.1898 -0.0713
  139loPI   C4A 2218  13.573  13.411   8.467 -0.0051 -0.2277  0.4156
  139loPI   C5A 2219  13.831  13.420   7.986  0.1537 -0.0523  0.1616
  139loPI   C6A 2220  14.228  13.353   7.799 -0.1708 -0.2478  0.1635
  139loPI   C1B 2221  13.124  14.520   9.724  0.0847 -0.0052 -0.1543
  139loPI   C2B 2222  12.870  14.597   9.434  0.0798  0.0126 -0.1635
  139loPI   C3B 2223  12.902  14.683   8.953 -0.2423 -0.2624 -0.1084
  139loPI   C4B 2224  12.785  14.468   8.574  0.2388  0.0381 -0.2218
  140loPI    C1 2225   1.387  13.813  10.351  0.0113  0.1158 -0.0152
  140loPI    C2 2226   1.527  13.562  10.629  0.3524  0.2584 -0.0530
  140loPI    C3 2227   1.301  13.874  10.737  0.1720  0.1039  0.0229
  140loPI   PO4 2228   1.653  13.754  10.173 -0.2579 -0.2389 -0.2287
  140loPI   GL1 2229   1.761  13.770   9.792 -0.0006 -0.0994  0.0673
  140loPI   GL2 2230   1.767  13.428   9.718 -0.0425  0.0051  0.0365
  140loPI   C1A 2231   1.636  13.831   9.287  0.0222 -0.0507  0.0923
  140loPI   C2A 2232   1.533  13.817   8.794  0.0289 -0.1356  0.0988
  140loPI   C3A 2233   1.278  13.617   8.629 -0.0703  0.1314  0.0906
  140loPI   C4A 2234   1.236  13.511   8.202 -0.1600  0.2695  0.1724
  140loPI   C5A 2235   1.340  13.683   7.870  0.1752  0.1685  0.1161
  140loPI   C6A 2236   1.682  13.841   7.613  0.0563 -0.2916  0.1342
  140loPI   C1B 2237   2.083  13.612   9.289 -0.1955  0.2578  0.2145
  140loPI   C2B 2238   2.298  13.703   8.959 -0.1208  0.1397  0.5053
  140loPI   C3B 2239   2.366  13.467   8.609 -0.1913  0.1408  0.0125
  140loPI   C4B 2240   2.263  13.336   8.264  0.0993 -0.0104  0.1353
  141loPI    C1 2241  18.067  14.873  10.323  0.0994  0.1727  0.1613
  141loPI    C2 2242  17.788  14.631  10.476  0.1788 -0.1122 -0.1342
  141loPI    C3 2243  18.140  14.673  10.662  0.1240 -0.1375 -0.0240
  141loPI   PO4 2244  17.995  14.843   9.956  0.0406  0.0262 -0.0863
  141loPI   GL1 2245  18.100  15.070   9.599 -0.0637 -0.1878 -0.0576
  141loPI   GL2 2246  17.850  15.198   9.464  0.2985 -0.2732  0.0111
  141loPI   C1A 2247  18.422  15.129   9.380 -0.0710 -0.1502  0.1093
  141loPI   C2A 2248  18.463  15.093   8.941  0.0563 -0.1323  0.1293
  141loPI   C3A 2249  18.218  15.198   8.524  0.2012  0.0986 -0.0422
  141loPI   C4A 2250  18.291  15.489   8.302  0.1729 -0.1177  0.0365
  141loPI   C5A 2251  18.438  15.473   7.891 -0.0576 -0.0650  0.1755
  141loPI   C6A 2252  18.501  15.897   7.701 -0.0976 -0.1057  0.2185
  141loPI   C1B 2253  17.403  15.470   9.469  0.0201  0.1741  0.0835
  141loPI   C2B 2254  17.215  15.721   9.217  0.2119  0.7141  0.2126
  141loPI   C3B 2255  17.212  15.749   8.748 -0.0237 -0.4318 -0.0663
  141loPI   C4B 2256  17.465  15.727   8.333 -0.0345  0.3849 -0.0477
  142loPI    C1 2257   5.610   8.059  10.162  0.1942 -0.3279  0.0496
  142loPI    C2 2258   5.820   8.320   9.943 -0.1566 -0.1326 -0.0614
  142loPI    C3 2259   5.754   8.391  10.331  0.3157 -0.3921  0.0736
  142loPI   PO4 2260   5.424   7.962   9.979  0.0621 -0.0479 -0.0388
  142loPI   GL1 2261   5.212   8.006   9.711  0.0818 -0.1087 -0.2015
  142loPI   GL2 2262   5.500   8.182   9.571 -0.1691  0.1579  0.0193
  142loPI   C1A 2263   5.218   7.834   9.236 -0.2606 -0.0117 -0.1165
  142loPI   C2A 2264   5.234   7.959   8.851 -0.2463  0.1000 -0.0640
  142loPI   C3A 2265   5.327   8.180   8.429  0.2840  0.0513  0.0295
  142loPI   C4A 2266   5.590   8.089   8.007 -0.0055 -0.3649 -0.2567
  142loPI   C5A 2267   5.906   7.844   7.835 -0.2031 -0.0453 -0.0333
  142loPI   C6A 2268   6.354   7.634   7.903  0.0303  0.1730 -0.0823
  142loPI   C1B 2269   5.804   8.008   9.399  0.0635 -0.3076 -0.0761
  142loPI   C2B 2270   5.715   7.991   8.892 -0.2406 -0.0838  0.1510
  142loPI   C3B 2271   5.745   7.906   8.484  0.2252 -0.1750 -0.3684
  142loPI   C4B 2272   5.470   7.590   8.216  0.0796 -0.0656 -0.0647
  143loPI    C1 2273   6.014  18.239  10.316  0.0717  0.0288 -0.0276
  143loPI    C2 2274   6.241  17.974  10.512  0.4271  0.2891 -0.0780
  143loPI    C3 2275   6.028  18.245  10.716 -0.0251 -0.0964 -0.0217
  143loPI   PO4 2276   5.906  18.187  10.099  0.4454  0.1687 -0.1141
  143loPI   GL1 2277   5.845  18.151   9.721 -0.1540 -0.0925  0.1119
  143loPI   GL2 2278   5.858  18.460   9.565 -0.0635  0.1360 -0.1817
  143loPI   C1A 2279   6.114  18.053   9.427  0.0055  0.1720 -0.3392
  143loPI   C2A 2280   6.146  17.891   8.979  0.0692 -0.0379  0.2729
  143loPI   C3A 2281   6.426  17.926   8.567 -0.1780  0.1595 -0.2346
  143loPI   C4A 2282   6.740  17.510   8.473  0.0264  0.0590 -0.0101
  143loPI   C5A 2283   6.874  17.256   8.163 -0.1812 -0.2030  0.0219
  143loPI   C6A 2284   6.775  16.909   7.784 -0.2333  0.2621 -0.3147
  143loPI   C1B 2285   5.709  18.322   9.178  0.1168 -0.0674 -0.3500
  143loPI   C2B 2286   5.644  18.029   8.864  0.1955  0.0941 -0.2987
  143loPI   C3B 2287   5.914  17.970   8.511 -0.0053  0.1540  0.1700
  143loPI   C4B 2288   5.972  18.003   8.062 -0.1423 -0.3685 -0.0135
  144loPI    C1 2289  15.376  13.397  10.565  0.1350  0.1816  0.1370
  144loPI    C2 2290  15.207  13.189  10.862  0.2420 -0.1298 -0.0153
  144loPI    C3 2291  15.578  13.100  10.741  0.2168  0.0248 -0.2117
  144loPI   PO4 2292  15.182  13.424  10.344 -0.0253 -0.0123  0.2278
  144loPI   GL1 2293  14.956  13.548   9.935  0.1644  0.0210 -0.2153
  144loPI   GL2 2294  14.747  13.344   9.833 -0.2903  0.6063 -0.2120
  144loPI   C1A 2295  14.837  13.913   9.701  0.1262 -0.1314  0.2983
  144loPI   C2A 2296  14.816  14.091   9.248 -0.0448  0.0076  0.4978
  144loPI   C3A 2297  14.548  14.072   8.805  0.1378  0.2265 -0.1989
  144loPI   C4A 2298  14.498  13.854   8.409  0.2727  0.1708  0.4392
  144loPI   C5A 2299  14.292  13.858   8.101 -0.0563 -0.0961 -0.4609
  144loPI   C6A 2300  13.835  13.901   8.144  0.0291 -0.2048  0.1246
  144loPI   C1B 2301  14.810  13.499   9.412  0.2831 -0.0081  0.0160
  144loPI   C2B 2302  14.695  13.687   9.045  0.2250 -0.0954  0.2146
  144loPI   C3B 2303  14.966  13.781   8.597  0.2853  0.1450 -0.1537
  144loPI   C4B 2304  14.913  13.916   8.196  0.0228  0.0277  0.0626
  145loPI    C1 2305   7.299  15.220  10.415  0.1578  0.2492  0.0895
  145loPI    C2 2306   7.034  15.384  10.665  0.0332  0.2546 -0.0448
  145loPI    C3 2307   7.105  14.990  10.678  0.1121  0.2724  0.0760
  145loPI   PO4 2308   7.241  15.429  10.131 -0.1324 -0.0020 -0.0390
  145loPI   GL1 2309   6.951  15.452   9.748 -0.1313  0.0612 -0.1154
  145loPI   GL2 2310   6.659  15.391   9.789  0.1020  0.0881  0.1679
  145loPI   C1A 2311   7.065  15.266   9.326  0.0066 -0.1934  0.0323
  145loPI   C2A 2312   7.215  14.951   8.981 -0.0839  0.1738 -0.1230
  145loPI   C3A 2313   7.369  14.792   8.616  0.1613  0.2460 -0.5472
  145loPI   C4A 2314   7.566  14.617   8.325  0.1209  0.2974 -0.0913
  145loPI   C5A 2315   7.698  14.696   7.857 -0.2049  0.0089  0.3730
  145loPI   C6A 2316   7.958  14.567   7.432  0.4329  0.3223  0.1422
  145loPI   C1B 2317   6.570  15.370   9.366 -0.1487 -0.0027  0.1520
  145loPI   C2B 2318   6.610  15.391   8.875 -0.0873 -0.2198  0.2248
  145loPI   C3B 2319   6.616  15.269   8.474  0.4828  0.0647  0.1303
  145loPI   C4B 2320   6.957  14.934   8.321  0.1859 -0.0884  0.1192
  146loPI    C1 2321   5.783  14.076   9.901  0.4104 -0.0644 -0.0632
  146loPI    C2 2322   5.774  14.457   9.781 -0.2131 -0.0270  0.0677
  146loPI    C3 2323   5.780  14.370  10.171 -0.3674 -0.1497  0.0435
  146loPI   PO4 2324   5.841  13.963   9.724  0.1419  0.2288 -0.0784
  146loPI   GL1 2325   5.720  13.828   9.397  0.1290  0.1318 -0.0858
  146loPI   GL2 2326   5.465  13.652   9.346 -0.1228  0.0211  0.2290
  146loPI   C1A 2327   5.915  13.521   9.079 -0.0511  0.0122 -0.0581
  146loPI   C2A 2328   5.891  13.471   8.735 -0.0240 -0.1612 -0.1644
  146loPI   C3A 2329   5.757  13.395   8.249 -0.1946  0.2812 -0.3456
  146loPI   C4A 2330   5.663  13.373   7.823 -0.0547 -0.1332 -0.1819
  146loPI   C5A 2331   5.660  13.114   7.475 -0.1362  0.0043  0.4894
  146loPI   C6A 2332   6.028  13.065   7.207  0.0431 -0.0066  0.0480
  146loPI   C1B 2333   5.428  13.745   8.919 -0.0532 -0.1924  0.1615
  146loPI   C2B 2334   5.395  13.629   8.544  0.0699  0.3170  0.1672
  146loPI   C3B 2335   5.277  13.580   8.096  0.1970  0.5636 -0.0869
  146loPI   C4B 2336   5.234  13.484   7.674  0.0500  0.2106 -0.0220
  147loPI    C1 2337   3.755  14.506  10.152  0.1652  0.1930 -0.0037
  147loPI    C2 2338   3.580  14.856  10.071  0.0056  0.1364  0.0909
  147loPI    C3 2339   3.360  14.549  10.203  0.1069 -0.0699 -0.2091
  147loPI   PO4 2340   3.948  14.484   9.912  0.0938 -0.0941 -0.3551
  147loPI   GL1 2341   4.163  14.622   9.517  0.3675  0.1981  0.1475
  147loPI   GL2 2342   4.416  14.837   9.422 -0.1018  0.2605 -0.4414
  147loPI   C1A 2343   4.425  14.427   9.180 -0.1320  0.1536 -0.1918
  147loPI   C2A 2344   4.295  14.286   8.761 -0.0613  0.2948 -0.3417
  147loPI   C3A 2345   4.093  14.255   8.354  0.1262 -0.0366  0.2180
  147loPI   C4A 2346   3.708  14.291   8.082  0.2375  0.2108  0.2777
  147loPI   C5A 2347   3.435  14.059   7.899  0.2571 -0.0562  0.1947
  147loPI   C6A 2348   3.048  14.085   7.848  0.0589  0.0921  0.1365
  147loPI   C1B 2349   4.379  14.925   8.979  0.4094 -0.5162  0.1110
  147loPI   C2B 2350   4.572  14.716   8.655  0.5656 -0.0640 -0.1225
  147loPI   C3B 2351   4.662  14.707   8.222 -0.1799 -0.4775  0.0296
  147loPI   C4B 2352   4.794  14.772   7.714 -0.0005 -0.0711 -0.0622
  148loPI    C1 2353   1.284   4.391   9.931  0.3228 -0.0904 -0.1842
  148loPI    C2 2354   1.433   4.702  10.135 -0.2238  0.1296 -0.1015
  148loPI    C3 2355   1.196   4.437  10.318 -0.1127 -0.0947 -0.2768
  148loPI   PO4 2356   1.396   4.396   9.654  0.1449 -0.1990 -0.1983
  148loPI   GL1 2357   1.415   4.570   9.260 -0.2710  0.2684  0.0995
  148loPI   GL2 2358   1.773   4.692   9.208  0.0014  0.1058 -0.0957
  148loPI   C1A 2359   1.767   4.210   9.096  0.2941 -0.1653 -0.0701
  148loPI   C2A 2360   1.716   4.071   8.655  0.0709  0.0273  0.0474
  148loPI   C3A 2361   1.720   3.921   8.236 -0.1728 -0.0297 -0.0895
  148loPI   C4A 2362   1.762   3.742   7.803 -0.2033  0.2824  0.0411
  148loPI   C5A 2363   1.508   3.973   7.445  0.1516  0.1024 -0.2013
  148loPI   C6A 2364   1.329   4.276   7.124  0.1710 -0.1274  0.1389
  148loPI   C1B 2365   1.713   4.570   8.769  0.1588  0.0125 -0.3874
  148loPI   C2B 2366   1.668   4.495   8.321  0.0366 -0.1590 -0.2812
  148loPI   C3B 2367   1.613   4.376   7.835  0.0618  0.2044 -0.3055
  148loPI   C4B 2368   1.226   4.371   7.585 -0.1067  0.1875  0.3039
  149loPI    C1 2369   5.220  10.796   9.771 -0.1594 -0.0187  0.0207
  149loPI    C2 2370   4.837  10.729   9.675 -0.2248  0.2795  0.0620
  149loPI    C3 2371   4.989  11.098   9.644  0.0820  0.1485 -0.0281
  149loPI   PO4 2372   5.360  10.682   9.664 -0.2819 -0.0535  0.1272
  149loPI   GL1 2373   5.435  10.794   9.191 -0.2388 -0.0609 -0.2190
  149loPI   GL2 2374   5.724  10.461   9.201  0.2821  0.0133 -0.1580
  149loPI   C1A 2375   5.363  10.590   8.816 -0.0678 -0.4323 -0.3126
  149loPI   C2A 2376   5.381  10.519   8.400  0.3934 -0.0929 -0.0457
  149loPI   C3A 2377   5.331  10.436   7.945 -0.2340  0.2292  0.0208
  149loPI   C4A 2378   5.449  10.331   7.421 -0.1825 -0.1572 -0.4682
  149loPI   C5A 2379   5.217  10.302   7.037  0.1620  0.1895  0.4041
  149loPI   C6A 2380   5.175  10.028   6.652 -0.0338 -0.1076  0.1284
  149loPI   C1B 2381   5.853  10.354   8.759 -0.2139 -0.1182  0.0770
  149loPI   C2B 2382   5.709  10.078   8.432  0.2226 -0.4452  0.0212
  149loPI   C3B 2383   5.614  10.025   7.937 -0.0092 -0.3014 -0.0763
  149loPI   C4B 2384   5.288   9.891   7.692 -0.1232 -0.0698 -0.2444
  150loPI    C1 2385  16.602  16.278  10.194  0.1724 -0.0679  0.1007
  150loPI    C2 2386  16.280  16.273  10.431  0.1500 -0.3025  0.0679
  150loPI    C3 2387  16.638  16.370  10.581 -0.0028  0.4077  0.0115
  150loPI   PO4 2388  16.573  16.083  10.072 -0.3105  0.0813  0.0208
  150loPI   GL1 2389  16.405  15.939   9.691  0.1912 -0.2376  0.2458
  150loPI   GL2 2390  16.742  15.953   9.610 -0.2088 -0.0412  0.0548
  150loPI   C1A 2391  16.439  16.190   9.252  0.1155 -0.2951 -0.1236
  150loPI   C2A 2392  16.576  16.386   8.833  0.2286  0.2450  0.1498
  150loPI   C3A 2393  16.612  16.540   8.446 -0.4766 -0.0533 -0.2271
  150loPI   C4A 2394  16.664  16.879   8.034  0.0613 -0.0467 -0.2691
  150loPI   C5A 2395  16.924  17.028   7.748 -0.2782  0.0660 -0.2704
  150loPI   C6A 2396  17.031  17.298   7.484  0.2184 -0.0594 -0.1403
  150loPI   C1B 2397  16.802  16.361   9.551 -0.0909 -0.2289  0.5271
  150loPI   C2B 2398  16.534  16.674   9.282  0.0066 -0.1127  0.0944
  150loPI   C3B 2399  16.520  16.860   8.834  0.1291  0.0302  0.0805
  150loPI   C4B 2400  16.709  17.180   8.563  0.1930 -0.3071  0.1796
  151loPI    C1 2401   3.794  12.469  10.093 -0.1565 -0.0311  0.0868
  151loPI    C2 2402   4.104  12.470  10.345 -0.3401 -0.0220  0.3155
  151loPI    C3 2403   3.935  12.124  10.237 -0.1958 -0.0331  0.1208
  151loPI   PO4 2404   3.875  12.629   9.928  0.1647 -0.0438 -0.2755
  151loPI   GL1 2405   3.986  12.637   9.503 -0.3103  0.0038  0.1979
  151loPI   GL2 2406   3.673  12.597   9.440  0.1081  0.0550 -0.0809
  151loPI   C1A 2407   4.025  12.294   9.102 -0.1103 -0.0969  0.3071
  151loPI   C2A 2408   3.989  12.232   8.658  0.1800 -0.1023 -0.0357
  151loPI   C3A 2409   3.917  12.239   8.173  0.3346  0.1227 -0.2346
  151loPI   C4A 2410   3.869  12.259   7.746  0.2294  0.1628 -0.0610
  151loPI   C5A 2411   3.961  11.987   7.467  0.0063 -0.0051  0.1844
  151loPI   C6A 2412   4.222  11.532   7.345 -0.1400 -0.3676 -0.1689
  151loPI   C1B 2413   3.555  12.500   9.003  0.1779 -0.0625 -0.4157
  151loPI   C2B 2414   3.598  12.623   8.614 -0.2384 -0.3927 -0.0474
  151loPI   C3B 2415   3.605  12.617   8.235 -0.3094  0.0193 -0.0455
  151loPI   C4B 2416   3.642  12.635   7.867 -0.0694 -0.3334  0.1235
  152loPI    C1 2417   5.109   9.662   9.905 -0.0109  0.0755  0.0395
  152loPI    C2 2418   4.843   9.457   9.689 -0.0047 -0.0035  0.1064
  152loPI    C3 2419   4.724   9.768   9.910 -0.0313 -0.0002  0.0873
  152loPI   PO4 2420   5.272   9.756   9.761 -0.3306 -0.3667 -0.2389
  152loPI   GL1 2421   5.259   9.864   9.427  0.0875  0.2802  0.2022
  152loPI   GL2 2422   5.572   9.816   9.317  0.0117  0.2672  0.0478
  152loPI   C1A 2423   5.044   9.580   9.130 -0.0351  0.0695 -0.0432
  152loPI   C2A 2424   5.111   9.400   8.861 -0.0271  0.1272 -0.3478
  152loPI   C3A 2425   5.229   9.325   8.486  0.3245  0.0819  0.1271
  152loPI   C4A 2426   5.430   9.269   8.079 -0.0228 -0.3542  0.1989
  152loPI   C5A 2427   5.618   9.063   7.673  0.4454 -0.1316 -0.1060
  152loPI   C6A 2428   5.669   8.840   7.359  0.0609  0.1134  0.2198
  152loPI   C1B 2429   5.397   9.897   8.805  0.1687  0.2335 -0.2961
  152loPI   C2B 2430   5.267   9.798   8.358 -0.0653  0.0450 -0.3102
  152loPI   C3B 2431   5.032   9.568   8.024 -0.1493 -0.0321  0.0519
  152loPI   C4B 2432   5.220   9.395   7.630  0.0932  0.0367  0.0101
  153loPI    C1 2433  13.794   9.996  10.055  0.0828  0.1440  0.0418
  153loPI    C2 2434  14.192   9.995  10.087  0.0787 -0.0436  0.1011
  153loPI    C3 2435  13.979   9.696  10.246 -0.0662 -0.0898 -0.1749
  153loPI   PO4 2436  13.771  10.165   9.815 -0.2227  0.1571  0.1890
  153loPI   GL1 2437  13.997  10.144   9.433  0.0871  0.0725  0.1297
  153loPI   GL2 2438  14.205  10.151   9.188 -0.2611 -0.0447 -0.1875
  153loPI   C1A 2439  13.788  10.381   8.989 -0.1527  0.2319 -0.1491
  153loPI   C2A 2440  13.703  10.289   8.541 -0.1422 -0.0409  0.0654
  153loPI   C3A 2441  13.480  10.524   8.146  0.1474 -0.0855  0.0860
  153loPI   C4A 2442  13.195  10.443   7.802  0.2776 -0.0523 -0.0660
  153loPI   C5A 2443  12.931  10.690   7.465  0.0926 -0.0265 -0.1696
  153loPI   C6A 2444  12.695  10.707   7.081  0.0831  0.3102 -0.1413
  153loPI   C1B 2445  14.214  10.280   8.759  0.1177  0.0119  0.1216
  153loPI   C2B 2446  14.204  10.244   8.399 -0.1954  0.1980 -0.4814
  153loPI   C3B 2447  13.913  10.165   7.995 -0.4662 -0.1970  0.1170
  153loPI   C4B 2448  13.528  10.052   7.676  0.5052  0.1731 -0.1770
  154loPI    C1 2449   6.347   9.652   9.987  0.2305 -0.0809 -0.3494
  154loPI    C2 2450   6.349  10.046  10.061 -0.0743 -0.1382 -0.0066
  154loPI    C3 2451   6.032   9.877   9.886  0.0463 -0.2366 -0.1324
  154loPI   PO4 2452   6.668   9.628  10.002 -0.0716 -0.0243 -0.1235
  154loPI   GL1 2453   7.013   9.476   9.658  0.1913 -0.2725 -0.1518
  154loPI   GL2 2454   7.220   9.784   9.680 -0.2838  0.0243  0.2774
  154loPI   C1A 2455   6.822   9.555   9.238 -0.2466  0.0153 -0.0842
  154loPI   C2A 2456   6.811   9.416   8.823 -0.0090  0.1549  0.0253
  154loPI   C3A 2457   6.901   9.452   8.422  0.2236 -0.0726 -0.1288
  154loPI   C4A 2458   6.680   9.164   8.153  0.1071  0.1057  0.4640
  154loPI   C5A 2459   6.379   8.799   8.107  0.1944 -0.0157  0.3333
  154loPI   C6A 2460   6.231   8.601   7.813 -0.0901 -0.0464 -0.1126
  154loPI   C1B 2461   7.388   9.509   9.314 -0.0856  0.2957  0.0202
  154loPI   C2B 2462   7.319   9.258   9.034 -0.0099 -0.3224 -0.1626
  154loPI   C3B 2463   7.267   9.068   8.670 -0.1486 -0.0434 -0.3695
  154loPI   C4B 2464   7.260   9.252   8.226 -0.1779 -0.0501  0.0079
  155loPI    C1 2465  15.811  15.713  10.599 -0.1108 -0.0465 -0.1316
  155loPI    C2 2466  15.831  15.387  10.368 -0.1128 -0.1273 -0.0186
  155loPI    C3 2467  15.481  15.499  10.527 -0.1306 -0.0148 -0.1347
  155loPI   PO4 2468  15.822  15.964  10.424  0.1288 -0.1237 -0.1279
  155loPI   GL1 2469  15.968  16.081  10.066  0.2165 -0.1012 -0.1659
  155loPI   GL2 2470  16.181  16.353   9.946 -0.2669  0.2906  0.0027
  155loPI   C1A 2471  15.909  15.962   9.578 -0.1970  0.1088  0.0010
  155loPI   C2A 2472  15.898  16.019   9.121  0.2362  0.1112 -0.0480
  155loPI   C3A 2473  16.132  16.054   8.803  0.0325 -0.4946 -0.0927
  155loPI   C4A 2474  16.187  16.276   8.537 -0.0875 -0.1331  0.3033
  155loPI   C5A 2475  16.200  16.417   8.121  0.2956  0.1815 -0.2431
  155loPI   C6A 2476  16.353  16.345   7.754  0.0076  0.0670  0.0353
  155loPI   C1B 2477  16.060  16.451   9.452 -0.3054  0.0327  0.0043
  155loPI   C2B 2478  16.108  16.575   9.003  0.0619  0.1038 -0.0238
  155loPI   C3B 2479  16.057  16.728   8.603 -0.4951  0.0231 -0.1016
  155loPI   C4B 2480  16.160  17.019   8.332 -0.1592 -0.0598 -0.2480
  156loPI    C1 2481   7.213   1.147  10.520  0.1010 -0.1505 -0.0363
  156loPI    C2 2482   7.140   0.774  10.395 -0.1355 -0.0536 -0.1946
  156loPI    C3 2483   6.902   0.944  10.668  0.0177 -0.0448 -0.0651
  156loPI   PO4 2484   7.250   1.283  10.249  0.2565 -0.1269 -0.1643
  156loPI   GL1 2485   7.370   1.328   9.814 -0.0939  0.2348 -0.1531
  156loPI   GL2 2486   7.718   1.216   9.843  0.1653 -0.1727 -0.0891
  156loPI   C1A 2487   7.472   1.300   9.286 -0.1016  0.3131 -0.0698
  156loPI   C2A 2488   7.635   1.373   8.829 -0.0567  0.0423 -0.0337
  156loPI   C3A 2489   7.576   1.181   8.447  0.1640 -0.0911  0.2026
  156loPI   C4A 2490   7.701   1.164   7.998 -0.2906  0.0569  0.1423
  156loPI   C5A 2491   7.935   1.174   7.678 -0.1651  0.0207 -0.1753
  156loPI   C6A 2492   8.059   1.010   7.237 -0.0233 -0.0664 -0.2853
  156loPI   C1B 2493   7.918   1.085   9.564  0.2285  0.1220 -0.0471
  156loPI   C2B 2494   8.016   1.091   9.140 -0.2123  0.2053  0.1871
  156loPI   C3B 2495   7.961   1.014   8.740  0.0417  0.2131  0.2648
  156loPI   C4B 2496   8.098   1.242   8.326  0.1332 -0.1721  0.0214
  157loPI    C1 2497  12.174  11.255  10.223 -0.1748 -0.0879  0.0222
  157loPI    C2 2498  12.108  11.616  10.382 -0.1732 -0.1592  0.1867
  157loPI    C3 2499  12.171  11.301  10.620  0.0538 -0.2258  0.0415
  157loPI   PO4 2500  12.301  11.375  10.025  0.0730  0.0638 -0.1464
  157loPI   GL1 2501  11.986  11.411   9.625  0.1321  0.1533 -0.1950
  157loPI   GL2 2502  12.158  11.056   9.678 -0.1153 -0.0229 -0.1379
  157loPI   C1A 2503  11.879  11.299   9.233  0.0043 -0.2858 -0.2419
  157loPI   C2A 2504  11.796  11.318   8.750 -0.1764  0.2545 -0.1970
  157loPI   C3A 2505  11.779  11.112   8.393  0.0408 -0.0538  0.0055
  157loPI   C4A 2506  11.770  10.986   7.902  0.0892  0.1503  0.1424
  157loPI   C5A 2507  11.981  11.114   7.564 -0.0894  0.2666 -0.1778
  157loPI   C6A 2508  12.190  11.428   7.253  0.3766 -0.0206  0.0205
  157loPI   C1B 2509  11.935  10.762   9.403 -0.2599 -0.3054 -0.4581
  157loPI   C2B 2510  11.700  10.434   9.246 -0.2177 -0.0271  0.1365
  157loPI   C3B 2511  11.699  10.307   8.825  0.0438 -0.0048  0.2078
  157loPI   C4B 2512  11.651  10.217   8.373 -0.2063  0.2527 -0.1043
  158loPI    C1 2513  16.580   7.657  10.105 -0.1486 -0.0918  0.2236
  158loPI    C2 2514  16.774   7.794  10.426  0.1070 -0.0418  0.0511
  158loPI    C3 2515  16.417   7.945  10.329  0.2126  0.2331  0.0808
  158loPI   PO4 2516  16.784   7.622   9.823  0.1517  0.1158  0.1141
  158loPI   GL1 2517  16.898   7.422   9.475 -0.1095  0.3055 -0.0097
  158loPI   GL2 2518  16.558   7.383   9.400  0.0315 -0.0025 -0.1210
  158loPI   C1A 2519  16.844   7.333   9.022 -0.1257 -0.0115  0.1992
  158loPI   C2A 2520  16.998   7.218   8.535  0.0873 -0.2366  0.4213
  158loPI   C3A 2521  17.158   7.105   8.101 -0.0371  0.0346 -0.0937
  158loPI   C4A 2522  17.459   7.001   7.599  0.0135 -0.0385  0.3688
  158loPI   C5A 2523  17.861   7.180   7.651  0.2185 -0.0586  0.3544
  158loPI   C6A 2524  18.278   7.324   7.514  0.0426  0.2558  0.0889
  158loPI   C1B 2525  16.402   7.595   8.928  0.0647  0.1027  0.2544
  158loPI   C2B 2526  16.505   7.661   8.555 -0.3330 -0.2655  0.3200
  158loPI   C3B 2527  16.689   7.827   8.159  0.0726 -0.0082 -0.0076
  158loPI   C4B 2528  16.894   7.751   7.771  0.0224 -0.2317 -0.0906
  159loPI    C1 2529  11.540  11.067  10.253 -0.1131 -0.0445  0.0153
  159loPI    C2 2530  11.808  10.915   9.998 -0.1315  0.0094 -0.0363
  159loPI    C3 2531  11.843  10.844  10.390  0.0765  0.1865 -0.0208
  159loPI   PO4 2532  11.322  11.063  10.056  0.0449  0.2547 -0.1885
  159loPI   GL1 2533  11.415  10.877   9.675  0.1250  0.0207 -0.0318
  159loPI   GL2 2534  11.545  11.255   9.666 -0.3344 -0.0317 -0.3272
  159loPI   C1A 2535  11.481  10.881   9.256  0.1970 -0.1705 -0.1919
  159loPI   C2A 2536  11.610  10.874   8.945 -0.2561  0.0176 -0.1331
  159loPI   C3A 2537  11.405  10.867   8.645 -0.1849 -0.0478  0.3984
  159loPI   C4A 2538  11.361  10.676   8.172 -0.0953  0.0514 -0.1490
  159loPI   C5A 2539  11.495  10.379   7.895 -0.3500  0.1776 -0.0472
  159loPI   C6A 2540  11.614  10.164   7.489 -0.0656  0.1240  0.3122
  159loPI   C1B 2541  11.321  11.328   9.318 -0.0754  0.1859 -0.1213
  159loPI   C2B 2542  11.303  11.278   8.945  0.1558 -0.2876  0.3747
  159loPI   C3B 2543  11.268  11.398   8.521 -0.0418  0.0183  0.0003
  159loPI   C4B 2544  11.343  11.208   8.190 -0.1875 -0.3041  0.2176
  160loPI    C1 2545   3.912   1.630   9.910  0.0024 -0.2300 -0.1414
  160loPI    C2 2546   3.851   1.551  10.297  0.0356  0.0162 -0.0841
  160loPI    C3 2547   4.115   1.832  10.190 -0.1543  0.1232 -0.2769
  160loPI   PO4 2548   3.885   1.363   9.784  0.0220  0.1534  0.0908
  160loPI   GL1 2549   3.929   1.462   9.418 -0.2291  0.2312  0.3198
  160loPI   GL2 2550   3.870   1.753   9.306 -0.1840  0.0074  0.2263
  160loPI   C1A 2551   4.235   1.635   8.940 -0.0157 -0.1155 -0.3934
  160loPI   C2A 2552   4.060   1.800   8.574 -0.2737  0.1502  0.0258
  160loPI   C3A 2553   3.703   1.862   8.414 -0.3299  0.4409  0.1233
  160loPI   C4A 2554   3.529   1.784   8.186  0.3008  0.3203 -0.1700
  160loPI   C5A 2555   3.377   1.432   7.894 -0.2688 -0.1477 -0.0098
  160loPI   C6A 2556   3.427   1.202   7.583 -0.1980 -0.0316  0.2375
  160loPI   C1B 2557   3.563   1.961   9.018 -0.0567  0.3639  0.3171
  160loPI   C2B 2558   3.537   2.227   8.636  0.2254 -0.0535 -0.2767
  160loPI   C3B 2559   3.572   2.337   8.161 -0.1300 -0.0319 -0.0807
  160loPI   C4B 2560   3.440   2.043   7.739 -0.1062  0.0191  0.2897
  161loPI    C1 2561  13.142   4.796  10.395  0.0364 -0.0976 -0.0859
  161loPI    C2 2562  13.523   4.675  10.387  0.0638 -0.0277  0.1130
  161loPI    C3 2563  13.248   4.459  10.581  0.0223 -0.0215  0.0612
  161loPI   PO4 2564  13.016   4.837  10.108  0.0520 -0.0941 -0.2915
  161loPI   GL1 2565  12.880   5.048   9.920 -0.0069 -0.1857 -0.1409
  161loPI   GL2 2566  12.684   5.369   9.965 -0.1581 -0.3409  0.1096
  161loPI   C1A 2567  12.941   4.937   9.497 -0.0617 -0.3856  0.0171
  161loPI   C2A 2568  12.803   4.929   9.091  0.3010 -0.1266 -0.0265
  161loPI   C3A 2569  12.852   5.005   8.630  0.1224  0.1923  0.0817
  161loPI   C4A 2570  13.015   4.962   8.236  0.0627  0.0830  0.1651
  161loPI   C5A 2571  13.171   4.855   7.851  0.1048 -0.2519 -0.0346
  161loPI   C6A 2572  13.319   4.840   7.557  0.1119  0.2694 -0.0066
  161loPI   C1B 2573  12.935   5.414   9.539  0.1235 -0.3366 -0.1790
  161loPI   C2B 2574  12.896   5.460   9.086 -0.1630 -0.0391 -0.3762
  161loPI   C3B 2575  12.754   5.492   8.695  0.0618  0.1287  0.0874
  161loPI   C4B 2576  12.871   5.498   8.253  0.3100  0.0116 -0.1777
  162loPI    C1 2577  16.951  15.829  10.232 -0.2163 -0.4402 -0.0604
  162loPI    C2 2578  17.049  16.127  10.479 -0.0211 -0.2894 -0.3143
  162loPI    C3 2579  16.753  15.876  10.576 -0.1234 -0.0728 -0.0538
  162loPI   PO4 2580  17.197  15.920   9.981 -0.4597  0.0960 -0.2375
  162loPI   GL1 2581  17.291  16.174   9.536 -0.1863  0.0393  0.0819
  162loPI   GL2 2582  17.537  16.446   9.589 -0.1095 -0.2431  0.3984
  162loPI   C1A 2583  17.129  16.191   9.104  0.2062  0.0554  0.2471
  162loPI   C2A 2584  17.044  16.248   8.775 -0.3192  0.0468  0.1057
  162loPI   C3A 2585  17.191  16.262   8.338 -0.2730  0.0154  0.1335
  162loPI   C4A 2586  17.119  16.008   8.111 -0.0592  0.0502 -0.0302
  162loPI   C5A 2587  17.028  16.100   7.642  0.1334  0.0300  0.3249
  162loPI   C6A 2588  16.742  16.526   7.516  0.1658  0.1258  0.1979
  162loPI   C1B 2589  17.748  16.268   9.204 -0.2112  0.1474 -0.0938
  162loPI   C2B 2590  17.623  15.999   8.891 -0.0732  0.0730  0.3707
  162loPI   C3B 2591  17.700  16.134   8.484  0.0517 -0.2635  0.2377
  162loPI   C4B 2592  17.645  16.064   7.980  0.3602 -0.2513 -0.0786
  163loPI    C1 2593  14.679  11.621  10.163  0.0299  0.1506  0.1343
  163loPI    C2 2594  14.544  11.337  10.410  0.1725  0.0228  0.0672
  163loPI    C3 2595  14.321  11.661  10.336 -0.1406 -0.2294 -0.1187
  163loPI   PO4 2596  14.776  11.569   9.920 -0.3105  0.0588  0.0523
  163loPI   GL1 2597  14.960  11.622   9.516 -0.0882  0.1588 -0.1285
  163loPI   GL2 2598  14.765  11.966   9.554  0.0547 -0.1018 -0.0684
  163loPI   C1A 2599  15.055  11.737   9.207 -0.0703 -0.2880  0.3017
  163loPI   C2A 2600  15.035  11.620   8.817 -0.1384  0.0822 -0.1396
  163loPI   C3A 2601  14.975  11.758   8.376 -0.1773  0.1667 -0.1372
  163loPI   C4A 2602  14.975  11.744   7.855  0.0107 -0.2746 -0.2905
  163loPI   C5A 2603  15.339  11.729   7.641 -0.0572 -0.0516 -0.0368
  163loPI   C6A 2604  15.583  11.345   7.643 -0.0332  0.1279  0.4143
  163loPI   C1B 2605  14.602  12.085   9.224  0.1326  0.1553  0.1388
  163loPI   C2B 2606  14.739  12.099   8.681  0.1123 -0.1890  0.0573
  163loPI   C3B 2607  14.686  12.212   8.279  0.2066  0.2185  0.0985
  163loPI   C4B 2608  14.986  12.289   8.035  0.1453 -0.0883  0.1558
  164loPI    C1 2609  10.524  18.224  10.696 -0.0639 -0.1427  0.1846
  164loPI    C2 2610  10.681  18.588  10.750  0.1060 -0.1559 -0.1875
  164loPI    C3 2611  10.284  18.538  10.760  0.0859  0.0225 -0.0467
  164loPI   PO4 2612  10.652  18.109  10.452 -0.1611 -0.0918 -0.0481
  164loPI   GL1 2613  10.795  18.147   9.975  0.3128  0.2742  0.0578
  164loPI   GL2 2614  10.468  18.212   9.909  0.2519  0.0291  0.1637
  164loPI   C1A 2615  10.796  18.047   9.608  0.1965  0.3990 -0.1552
  164loPI   C2A 2616  10.685  17.944   9.247 -0.0096 -0.2032  0.3807
  164loPI   C3A 2617  10.775  18.054   8.870 -0.1026 -0.0509 -0.0732
  164loPI   C4A 2618  10.996  18.019   8.517 -0.4909 -0.1530 -0.0497
  164loPI   C5A 2619  11.381  17.906   8.280 -0.0887 -0.1159 -0.1289
  164loPI   C6A 2620  11.669  17.601   8.075  0.1638 -0.0255  0.1048
  164loPI   C1B 2621  10.109  18.406   9.608 -0.0181 -0.0991  0.1691
  164loPI   C2B 2622   9.691  18.275   9.418 -0.1042  0.2351  0.1322
  164loPI   C3B 2623   9.477  18.018   9.193 -0.1106  0.0604 -0.0737
  164loPI   C4B 2624   9.495  17.613   8.995 -0.0850  0.4690  0.0031
  165loPI    C1 2625  14.653   9.822   9.723  0.0050  0.1042 -0.0471
  165loPI    C2 2626  14.688  10.053  10.047 -0.0438  0.1024 -0.0405
  165loPI    C3 2627  14.878   9.702  10.031 -0.0338  0.1068 -0.0177
  165loPI   PO4 2628  14.403   9.855   9.643  0.2659  0.2115  0.2076
  165loPI   GL1 2629  14.201   9.673   9.230  0.0171  0.1641 -0.2385
  165loPI   GL2 2630  14.261   9.508   9.302  0.2411 -0.0223 -0.0173
  165loPI   C1A 2631  14.390   9.773   8.893 -0.0943 -0.0173  0.1984
  165loPI   C2A 2632  14.622  10.000   8.698  0.1496  0.2698 -0.2188
  165loPI   C3A 2633  14.820  10.072   8.310 -0.3517 -0.0259 -0.0684
  165loPI   C4A 2634  14.972  10.310   8.117  0.0190 -0.0348  0.1112
  165loPI   C5A 2635  14.853  10.346   7.650 -0.0105  0.1260  0.1387
  165loPI   C6A 2636  14.563  10.053   7.299 -0.0963  0.2506 -0.4006
  165loPI   C1B 2637  14.515   9.298   8.962 -0.2983  0.4239  0.2844
  165loPI   C2B 2638  14.767   9.466   8.625 -0.1273  0.4034  0.0210
  165loPI   C3B 2639  14.793   9.617   8.169 -0.0878 -0.2997 -0.1680
  165loPI   C4B 2640  15.119   9.905   7.841 -0.2679 -0.2845 -0.1834
  166loPI    C1 2641  11.724   3.243  10.239  0.5311 -0.0937 -0.0787
  166loPI    C2 2642  11.610   3.053  10.573  0.0208 -0.1099 -0.2531
  166loPI    C3 2643  11.748   3.428  10.593  0.2519 -0.2058  0.0020
  166loPI   PO4 2644  11.655   3.077  10.067  0.1783  0.0523 -0.1618
  166loPI   GL1 2645  11.951   3.025   9.727 -0.3161 -0.2566 -0.2490
  166loPI   GL2 2646  12.218   2.903   9.766 -0.0495 -0.0453 -0.4040
  166loPI   C1A 2647  12.058   3.220   9.330  0.1667 -0.2331 -0.1274
  166loPI   C2A 2648  12.123   2.950   8.997  0.2515 -0.2148  0.4312
  166loPI   C3A 2649  12.087   2.831   8.472 -0.0804 -0.3539 -0.0529
  166loPI   C4A 2650  12.171   3.024   8.080  0.0801  0.4460 -0.3987
  166loPI   C5A 2651  12.011   3.295   7.898 -0.1187  0.1062 -0.1545
  166loPI   C6A 2652  11.553   3.319   7.668  0.0292 -0.4481  0.0521
  166loPI   C1B 2653  12.158   2.648   9.376  0.1374  0.1766  0.1036
  166loPI   C2B 2654  12.398   2.511   9.008  0.0887  0.1921 -0.0320
  166loPI   C3B 2655  12.509   2.453   8.511 -0.0687 -0.0007  0.1971
  166loPI   C4B 2656  12.397   2.302   8.192 -0.2160 -0.0750  0.2747
  167loPI    C1 2657   0.511  12.699   9.631 -0.4851  0.0011  0.0044
  167loPI    C2 2658   0.359  12.571   9.284  0.0759 -0.0535 -0.2326
  167loPI    C3 2659   0.460  12.308   9.567 -0.0197 -0.0361 -0.1820
  167loPI   PO4 2660   0.659  12.934   9.563  0.1259 -0.0217 -0.3413
  167loPI   GL1 2661   0.774  13.028   9.268  0.4796 -0.1413  0.2256
  167loPI   GL2 2662   0.520  13.103   8.991 -0.0769 -0.2090  0.0717
  167loPI   C1A 2663   0.955  13.216   8.897  0.0962  0.2403  0.2348
  167loPI   C2A 2664   0.879  13.404   8.531 -0.1714  0.1508  0.0593
  167loPI   C3A 2665   0.881  13.841   8.136  0.2013 -0.0036 -0.1273
  167loPI   C4A 2666   0.771  14.172   7.939  0.3472  0.1913 -0.1971
  167loPI   C5A 2667   0.432  14.304   7.730  0.0461  0.0832 -0.3090
  167loPI   C6A 2668   0.009  14.449   7.730  0.0230  0.0362 -0.0634
  167loPI   C1B 2669   0.586  13.049   8.558  0.1297  0.1324 -0.3144
  167loPI   C2B 2670   0.560  12.844   8.221 -0.1695  0.1258 -0.1581
  167loPI   C3B 2671   0.315  12.697   7.865  0.1737 -0.0579 -0.2755
  167loPI   C4B 2672   0.061  12.424   7.683  0.0220 -0.2522  0.2717
  168loPI    C1 2673  12.772   8.183  10.242 -0.1090  0.3901 -0.0312
  168loPI    C2 2674  12.639   8.227  10.617 -0.0290 -0.0515  0.0548
  168loPI    C3 2675  13.017   8.115  10.551 -0.0379  0.0408 -0.1597
  168loPI   PO4 2676  12.632   8.378  10.138  0.0123  0.3530  0.3482
  168loPI   GL1 2677  12.441   8.385   9.639  0.2717  0.1184  0.1148
  168loPI   GL2 2678  12.166   8.411   9.594 -0.2791 -0.0203 -0.3207
  168loPI   C1A 2679  12.501   8.360   9.142  0.0940  0.0682 -0.0108
  168loPI   C2A 2680  12.672   8.228   8.763 -0.2728 -0.1727  0.0863
  168loPI   C3A 2681  12.680   8.096   8.394  0.0033 -0.5204 -0.0428
  168loPI   C4A 2682  12.684   8.060   7.985 -0.2231  0.1780  0.0411
  168loPI   C5A 2683  12.546   7.840   7.689 -0.1800  0.1837 -0.0277
  168loPI   C6A 2684  12.445   7.867   7.259  0.0467  0.0105  0.1425
  168loPI   C1B 2685  12.030   8.497   9.210  0.1177 -0.0729 -0.1132
  168loPI   C2B 2686  11.920   8.291   8.851  0.1321  0.0119 -0.2844
  168loPI   C3B 2687  11.727   8.298   8.441  0.0360  0.1227  0.0043
  168loPI   C4B 2688  11.618   8.278   8.064 -0.1169  0.0179 -0.2556
  169loPI    C1 2689  15.398  17.627  10.323  0.1674  0.1200  0.0759
  169loPI    C2 2690  15.511  17.370  10.607 -0.0852 -0.2004 -0.1057
  169loPI    C3 2691  15.239  17.651  10.688  0.0065 -0.1486  0.0261
  169loPI   PO4 2692  15.269  17.386  10.082  0.3029 -0.1000  0.2694
  169loPI   GL1 2693  15.085  17.605   9.865 -0.0399 -0.0215  0.1304
  169loPI   GL2 2694  14.878  17.306   9.741 -0.1431  0.0700  0.1922
  169loPI   C1A 2695  14.717  17.959   9.791 -0.3096 -0.0216 -0.1351
  169loPI   C2A 2696  14.498  17.994   9.338 -0.1888  0.1643  0.0749
  169loPI   C3A 2697  14.588  17.989   8.933  0.0022  0.1513 -0.1392
  169loPI   C4A 2698  14.682  18.294   8.549  0.0340 -0.2260  0.0249
  169loPI   C5A 2699  14.494  18.511   8.257 -0.0731 -0.1712 -0.0395
  169loPI   C6A 2700  14.765  18.866   8.135 -0.2793  0.1546 -0.2774
  169loPI   C1B 2701  15.247  17.347   9.416 -0.2624 -0.0973 -0.1863
  169loPI   C2B 2702  15.399  17.334   9.007  0.1388  0.2553  0.0457
  169loPI   C3B 2703  15.275  17.352   8.573 -0.0859 -0.1952  0.2734
  169loPI   C4B 2704  15.241  17.591   8.237 -0.0662 -0.3576 -0.2011
  170loPI    C1 2705  18.142  13.511  10.501 -0.1066  0.0282  0.1012
  170loPI    C2 2706  18.068  13.119  10.474 -0.0803  0.0218  0.1203
  170loPI    C3 2707  18.008  13.311  10.820 -0.0411  0.0238  0.1260
  170loPI   PO4 2708  18.022  13.508  10.220 -0.0546  0.0537  0.0597
  170loPI   GL1 2709  18.171  13.463   9.782  0.4737 -0.2005 -0.1831
  170loPI   GL2 2710  18.269  13.891   9.641  0.2083  0.1926  0.0388
  170loPI   C1A 2711  17.895  13.710   9.422 -0.1273 -0.6231  0.0667
  170loPI   C2A 2712  18.015  13.544   8.983 -0.0708  0.2323 -0.1617
  170loPI   C3A 2713  18.305  13.384   8.711 -0.3716  0.2961  0.4675
  170loPI   C4A 2714  18.442  13.126   8.426 -0.1856  0.3164  0.1388
  170loPI   C5A 2715  18.680  13.026   8.060 -0.0571 -0.4667 -0.1031
  170loPI   C6A 2716  18.635  12.854   7.675 -0.2455 -0.1286  0.0348
  170loPI   C1B 2717  18.186  14.061   9.260 -0.2270  0.0933  0.0638
  170loPI   C2B 2718  18.119  14.100   8.848 -0.2802  0.0838 -0.1416
  170loPI   C3B 2719  18.243  13.903   8.492  0.3500 -0.0192  0.0100
  170loPI   C4B 2720  18.313  13.915   8.077 -0.1264  0.3503 -0.1006
  171loPI    C1 2721   2.208   3.930   9.859  0.2231 -0.1556 -0.1499
  171loPI    C2 2722   1.917   3.805  10.103 -0.0263  0.2633 -0.2240
  171loPI    C3 2723   2.298   3.798  10.226 -0.0844 -0.0985 -0.0513
  171loPI   PO4 2724   2.157   3.973   9.586 -0.0531 -0.0803 -0.1533
  171loPI   GL1 2725   2.252   3.935   9.173 -0.1144  0.0977 -0.1485
  171loPI   GL2 2726   2.263   4.265   9.162  0.2532  0.0308 -0.2390
  171loPI   C1A 2727   1.974   3.703   8.867  0.1848 -0.3148  0.0735
  171loPI   C2A 2728   1.921   3.549   8.463 -0.2725  0.0882 -0.3283
  171loPI   C3A 2729   1.991   3.397   8.051 -0.5305 -0.3072  0.0062
  171loPI   C4A 2730   1.816   3.251   7.610  0.1974  0.0151  0.2323
  171loPI   C5A 2731   1.539   3.010   7.366 -0.0882 -0.1761 -0.1667
  171loPI   C6A 2732   1.390   2.863   7.093  0.3633 -0.1084  0.4520
  171loPI   C1B 2733   2.141   4.184   8.764 -0.3007  0.3300  0.1854
  171loPI   C2B 2734   2.237   4.257   8.403 -0.2221 -0.0782  0.1984
  171loPI   C3B 2735   2.155   4.449   7.965  0.1313 -0.1938  0.1647
  171loPI   C4B 2736   2.056   4.090   7.686  0.3510 -0.0856 -0.1350
  172loPI    C1 2737  10.749  17.332  10.518 -0.3459  0.2171  0.1291
  172loPI    C2 2738  10.984  17.525  10.778 -0.2393  0.1963  0.0489
  172loPI    C3 2739  10.617  17.664  10.698 -0.2574  0.2248  0.1805
  172loPI   PO4 2740  10.868  17.253  10.210 -0.0126 -0.1508 -0.0155
  172loPI   GL1 2741  10.731  17.204   9.785  0.1462 -0.3346 -0.1314
  172loPI   GL2 2742  10.795  17.589   9.856 -0.2521 -0.0630 -0.0738
  172loPI   C1A 2743  10.637  17.012   9.388  0.2146  0.0507 -0.0262
  172loPI   C2A 2744  10.658  16.968   9.013 -0.1365 -0.0833 -0.2208
  172loPI   C3A 2745  10.958  16.961   8.631  0.2166 -0.0141 -0.0861
  172loPI   C4A 2746  10.995  16.805   8.316  0.2291  0.1222 -0.4106
  172loPI   C5A 2747  10.807  16.669   7.928 -0.2259 -0.1196 -0.0382
  172loPI   C6A 2748  10.482  16.672   7.696  0.0302  0.1984 -0.2572
  172loPI   C1B 2749  10.893  17.548   9.347  0.1831  0.4202  0.0306
  172loPI   C2B 2750  10.850  17.461   8.895 -0.0961  0.0425  0.1153
  172loPI   C3B 2751  10.629  17.310   8.449 -0.0290 -0.0726 -0.0130
  172loPI   C4B 2752  10.748  17.164   8.015 -0.0153  0.0390 -0.4016
  173loPI    C1 2753   2.465   8.640   9.814  0.2980 -0.1462 -0.0056
  173loPI    C2 2754   2.615   8.985   9.677 -0.0593 -0.0462 -0.1544
  173loPI    C3 2755   2.650   8.891  10.064  0.2318  0.0534 -0.1544
  173loPI   PO4 2756   2.551   8.478   9.703 -0.0348  0.1669 -0.3032
  173loPI   GL1 2757   2.784   8.584   9.297  0.0658  0.1237  0.1472
  173loPI   GL2 2758   2.462   8.706   9.283 -0.3133 -0.1428 -0.0266
  173loPI   C1A 2759   2.675   8.345   8.929 -0.2227  0.1292 -0.1039
  173loPI   C2A 2760   2.672   8.010   8.525 -0.0530  0.1555  0.0565
  173loPI   C3A 2761   2.780   7.523   8.513 -0.2143 -0.2564  0.0646
  173loPI   C4A 2762   2.576   7.195   8.333  0.0073 -0.2159  0.2229
  173loPI   C5A 2763   2.278   7.088   8.052  0.2414 -0.4714  0.1382
  173loPI   C6A 2764   2.405   6.980   7.630  0.1659  0.1868  0.2990
  173loPI   C1B 2765   2.273   8.707   8.843 -0.0545 -0.1381  0.2955
  173loPI   C2B 2766   1.947   8.680   8.526  0.0135  0.1439  0.3501
  173loPI   C3B 2767   1.875   8.913   8.130  0.0671 -0.0207  0.2220
  173loPI   C4B 2768   1.614   8.958   7.722  0.1068  0.1428  0.0626
  174loPI    C1 2769  15.424   2.978  10.366  0.3962  0.0405  0.2207
  174loPI    C2 2770  15.502   2.872  10.744  0.0490 -0.0153  0.2803
  174loPI    C3 2771  15.126   2.953  10.632  0.1570  0.0592 -0.0400
  174loPI   PO4 2772  15.541   2.729  10.196 -0.0138 -0.0581  0.2548
  174loPI   GL1 2773  15.375   2.558   9.839  0.1767  0.1715 -0.0296
  174loPI   GL2 2774  15.065   2.427   9.871 -0.4073  0.2966 -0.1673
  174loPI   C1A 2775  15.569   2.313   9.530 -0.0363 -0.1151  0.0574
  174loPI   C2A 2776  15.571   2.414   9.077  0.1166 -0.0076  0.1704
  174loPI   C3A 2777  15.485   2.294   8.587  0.0822 -0.0404  0.0324
  174loPI   C4A 2778  15.561   2.159   8.212 -0.2647 -0.1726 -0.3486
  174loPI   C5A 2779  15.475   2.185   7.775 -0.0694  0.0783 -0.2417
  174loPI   C6A 2780  15.183   2.368   7.511  0.2321 -0.0072  0.1035
  174loPI   C1B 2781  15.184   2.477   9.369  0.1779 -0.0270  0.4201
  174loPI   C2B 2782  15.133   2.160   9.007 -0.0289  0.0897 -0.1258
  174loPI   C3B 2783  14.957   2.099   8.583  0.0899  0.2041 -0.0491
  174loPI   C4B 2784  15.107   2.283   8.222 -0.2023  0.2092  0.0496
  175loPI    C1 2785  15.666   6.767  10.287  0.1505  0.1226  0.0232
  175loPI    C2 2786  15.632   7.066  10.551  0.0692  0.0500  0.0955
  175loPI    C3 2787  15.709   6.694  10.678 -0.0134  0.0070  0.0206
  175loPI   PO4 2788  15.668   6.777  10.038  0.0244 -0.1370 -0.3023
  175loPI   GL1 2789  15.464   6.946   9.673 -0.1573 -0.2502 -0.1984
  175loPI   GL2 2790  15.219   6.917   9.594 -0.0619  0.0695 -0.1095
  175loPI   C1A 2791  15.538   7.070   9.199  0.3225 -0.1591  0.0960
  175loPI   C2A 2792  15.761   7.336   9.051 -0.1826 -0.2190  0.0182
  175loPI   C3A 2793  15.968   7.489   8.636  0.2971 -0.0184  0.1951
  175loPI   C4A 2794  16.177   7.460   8.190  0.0992  0.1398 -0.0603
  175loPI   C5A 2795  16.263   7.752   7.901 -0.1174  0.2786 -0.2668
  175loPI   C6A 2796  16.223   8.229   7.769  0.0511  0.3066  0.1018
  175loPI   C1B 2797  15.045   7.057   9.250  0.2258 -0.0813  0.3221
  175loPI   C2B 2798  15.240   6.978   8.809  0.0917 -0.1014  0.0408
  175loPI   C3B 2799  15.285   6.925   8.357  0.0249 -0.0554  0.1237
  175loPI   C4B 2800  15.462   7.154   7.965  0.1924  0.0751 -0.1736
  176loPI    C1 2801   6.196   8.832  10.421  0.1413 -0.0522  0.0538
  176loPI    C2 2802   5.921   8.732  10.693  0.1283  0.1296  0.1093
  176loPI    C3 2803   6.307   8.658  10.763  0.0974 -0.1029  0.0423
  176loPI   PO4 2804   6.159   8.732  10.214 -0.2820  0.0762 -0.1249
  176loPI   GL1 2805   6.030   8.815   9.860  0.2567 -0.3449 -0.0220
  176loPI   GL2 2806   5.750   8.910   9.804 -0.3283  0.1780  0.2046
  176loPI   C1A 2807   5.948   8.466   9.512  0.0742  0.1098  0.0602
  176loPI   C2A 2808   6.041   8.357   9.094  0.1008  0.0949 -0.0534
  176loPI   C3A 2809   6.057   8.215   8.663  0.0109  0.0774 -0.0047
  176loPI   C4A 2810   6.173   8.154   8.184 -0.3074 -0.0156  0.1991
  176loPI   C5A 2811   6.386   8.125   7.770 -0.2633 -0.3795 -0.2104
  176loPI   C6A 2812   6.665   8.445   7.505  0.1631 -0.0399  0.2636
  176loPI   C1B 2813   5.618   8.825   9.382 -0.2028 -0.0137  0.1142
  176loPI   C2B 2814   5.850   8.818   9.163  0.1942  0.2030 -0.0651
  176loPI   C3B 2815   6.103   8.781   8.786  0.0006  0.1921  0.0119
  176loPI   C4B 2816   6.345   9.083   8.506 -0.0884  0.0405  0.1480
  177loPI    C1 2817  15.611  14.960  10.964 -0.0645  0.0781  0.2034
  177loPI    C2 2818  15.914  14.721  11.070 -0.0593 -0.0845 -0.1605
  177loPI    C3 2819  15.739  14.955  11.343  0.2455 -0.1532  0.1007
  177loPI   PO4 2820  15.544  15.072  10.738  0.1259  0.0589 -0.1911
  177loPI   GL1 2821  15.343  14.996  10.325  0.0986  0.0740  0.2754
  177loPI   GL2 2822  15.631  14.988  10.194 -0.0379 -0.1007  0.0644
  177loPI   C1A 2823  15.270  15.049   9.784 -0.0087 -0.1941 -0.2890
  177loPI   C2A 2824  15.399  15.220   9.349  0.2056 -0.0168  0.0305
  177loPI   C3A 2825  15.366  15.344   8.930 -0.0422  0.0248  0.1518
  177loPI   C4A 2826  15.458  15.479   8.479  0.0725  0.1794  0.0492
  177loPI   C5A 2827  15.511  15.243   8.163 -0.1645 -0.1476  0.0629
  177loPI   C6A 2828  15.401  15.170   7.815  0.3013  0.2038  0.0538
  177loPI   C1B 2829  15.714  15.224   9.822 -0.1164 -0.2307 -0.0614
  177loPI   C2B 2830  15.903  15.168   9.416  0.0287  0.0598 -0.2375
  177loPI   C3B 2831  16.168  15.166   9.120  0.0270  0.0719 -0.2217
  177loPI   C4B 2832  16.535  15.148   9.042  0.2343 -0.0316  0.2012
  178loPI    C1 2833  15.476   1.613  10.251 -0.2350 -0.0857  0.0242
  178loPI    C2 2834  15.608   1.499  10.611 -0.1215 -0.1348 -0.0324
  178loPI    C3 2835  15.377   1.823  10.577  0.0624  0.0080  0.0578
  178loPI   PO4 2836  15.678   1.675  10.056  0.3007  0.0063  0.1514
  178loPI   GL1 2837  15.869   1.655   9.645 -0.0453  0.0203  0.1426
  178loPI   GL2 2838  15.915   1.870   9.553  0.2415 -0.2673 -0.2402
  178loPI   C1A 2839  15.870   1.552   9.146  0.0863 -0.1678  0.0109
  178loPI   C2A 2840  15.792   1.423   8.677 -0.1023  0.1079 -0.1903
  178loPI   C3A 2841  15.674   1.227   8.306  0.0525  0.2413  0.0150
  178loPI   C4A 2842  15.771   1.006   7.889  0.2156  0.1368  0.2771
  178loPI   C5A 2843  15.914   0.648   7.941  0.2388  0.0281 -0.2166
  178loPI   C6A 2844  15.740   0.293   7.971  0.0189  0.2928  0.1916
  178loPI   C1B 2845  15.871   2.089   9.250 -0.1777  0.0457  0.3116
  178loPI   C2B 2846  16.000   2.209   8.936  0.2696 -0.0096  0.0557
  178loPI   C3B 2847  15.963   2.363   8.496 -0.0122  0.0776 -0.2396
  178loPI   C4B 2848  15.888   2.605   8.049 -0.0921 -0.0595 -0.2523
  179loPI    C1 2849  13.582   1.094  10.656 -0.0098 -0.0620  0.1388
  179loPI    C2 2850  13.907   1.080  10.889  0.0201  0.2265  0.1173
  179loPI    C3 2851  13.604   1.325  10.982 -0.1852 -0.0267  0.1267
  179loPI   PO4 2852  13.655   1.012  10.398 -0.0857 -0.2135 -0.0293
  179loPI   GL1 2853  13.896   0.973  10.063 -0.1792  0.3794 -0.1174
  179loPI   GL2 2854  14.225   1.014   9.820 -0.0406 -0.2988  0.3810
  179loPI   C1A 2855  13.908   0.795   9.544 -0.2335  0.0425  0.0599
  179loPI   C2A 2856  13.977   0.741   9.124  0.0764 -0.0368 -0.0156
  179loPI   C3A 2857  13.944   0.517   8.738 -0.2246 -0.5765 -0.1182
  179loPI   C4A 2858  13.936   0.384   8.305  0.3652 -0.1226 -0.0222
  179loPI   C5A 2859  13.815   0.743   8.031  0.1707 -0.2040  0.0848
  179loPI   C6A 2860  13.502   0.965   7.714 -0.0177  0.2109  0.4233
  179loPI   C1B 2861  14.215   1.377   9.511 -0.3697 -0.0151 -0.0286
  179loPI   C2B 2862  14.131   1.622   9.148 -0.0084  0.1296  0.2608
  179loPI   C3B 2863  14.146   1.655   8.706 -0.0382  0.2063  0.3370
  179loPI   C4B 2864  13.978   1.619   8.284 -0.0684  0.2745  0.0634
  180loPI    C1 2865  11.161  14.688  10.631 -0.3652  0.2217 -0.1434
  180loPI    C2 2866  10.880  14.404  10.617 -0.0101 -0.1573  0.1395
  180loPI    C3 2867  10.866  14.685  10.902  0.0934 -0.3936  0.3820
  180loPI   PO4 2868  11.149  14.814  10.397 -0.2215  0.0638  0.1778
  180loPI   GL1 2869  11.367  14.744   9.981  0.1433 -0.0402 -0.0572
  180loPI   GL2 2870  11.155  15.080   9.994  0.2971  0.1282 -0.3265
  180loPI   C1A 2871  11.440  14.724   9.476 -0.2054 -0.2403 -0.3646
  180loPI   C2A 2872  11.665  15.037   9.269 -0.0204  0.0127 -0.3614
  180loPI   C3A 2873  11.672  15.073   8.872  0.1262  0.0076 -0.2432
  180loPI   C4A 2874  11.599  15.240   8.395 -0.4300 -0.0459  0.1589
  180loPI   C5A 2875  11.422  15.316   8.008 -0.0605 -0.0938  0.0129
  180loPI   C6A 2876  11.484  15.761   7.987  0.1352  0.1748 -0.1063
  180loPI   C1B 2877  11.324  15.206   9.634 -0.1495  0.1083 -0.4479
  180loPI   C2B 2878  11.252  15.241   9.247  0.2919 -0.0446  0.0948
  180loPI   C3B 2879  11.209  15.218   8.815 -0.0781 -0.0327  0.2031
  180loPI   C4B 2880  10.943  15.057   8.447  0.0894  0.3405 -0.2208
  181loPI    C1 2881  12.545   3.625  10.365  0.0072 -0.3468  0.1002
  181loPI    C2 2882  12.644   3.321  10.605  0.1305 -0.1765  0.2690
  181loPI    C3 2883  12.690   3.697  10.731  0.1408 -0.0848 -0.0014
  181loPI   PO4 2884  12.664   3.592  10.080 -0.2349  0.2608  0.4248
  181loPI   GL1 2885  12.810   3.662   9.737 -0.4380 -0.3081  0.2372
  181loPI   GL2 2886  12.973   3.406   9.637 -0.3477  0.0315  0.2241
  181loPI   C1A 2887  13.002   3.871   9.343 -0.1081  0.1160 -0.1848
  181loPI   C2A 2888  12.768   3.995   8.922 -0.1997 -0.2685  0.0643
  181loPI   C3A 2889  12.444   4.224   8.691 -0.3366 -0.1172 -0.4653
  181loPI   C4A 2890  12.391   4.236   8.262  0.0211 -0.0914 -0.5037
  181loPI   C5A 2891  12.437   4.322   7.809  0.1850 -0.4005 -0.1253
  181loPI   C6A 2892  12.533   4.772   7.691 -0.1215 -0.2009  0.2218
  181loPI   C1B 2893  12.971   3.323   9.282 -0.1310 -0.1591 -0.1149
  181loPI   C2B 2894  13.162   3.250   8.971 -0.6314  0.3633  0.1784
  181loPI   C3B 2895  12.936   3.497   8.744  0.0483 -0.0174 -0.1888
  181loPI   C4B 2896  12.549   3.774   8.469  0.0406  0.0185  0.0808
  182loPI    C1 2897   7.347  10.836  10.235 -0.1480  0.0444 -0.2318
  182loPI    C2 2898   6.969  10.916  10.338 -0.0911  0.0256 -0.0033
  182loPI    C3 2899   7.242  10.842  10.621  0.0207 -0.2471 -0.1786
  182loPI   PO4 2900   7.405  11.083  10.133  0.0056  0.0263  0.0218
  182loPI   GL1 2901   7.539  11.029   9.749  0.0566  0.0154  0.0712
  182loPI   GL2 2902   7.724  11.122   9.577  0.1004 -0.1744  0.0863
  182loPI   C1A 2903   7.234  11.005   9.325  0.0880  0.1918 -0.2165
  182loPI   C2A 2904   7.351  10.867   8.896  0.2300 -0.1027  0.0569
  182loPI   C3A 2905   7.498  10.874   8.421 -0.0306  0.3247 -0.1762
  182loPI   C4A 2906   7.581  10.785   8.017 -0.0400 -0.1925  0.1325
  182loPI   C5A 2907   7.445  10.554   7.644 -0.1701 -0.0477  0.0884
  182loPI   C6A 2908   7.528  10.288   7.247  0.1053 -0.0605  0.0599
  182loPI   C1B 2909   7.687  11.114   9.158 -0.1500 -0.0350 -0.1866
  182loPI   C2B 2910   7.826  10.996   8.730 -0.0040  0.0507 -0.5122
  182loPI   C3B 2911   7.939  11.071   8.244 -0.1583  0.1686 -0.3055
  182loPI   C4B 2912   7.893  11.296   7.831  0.2199  0.0674  0.0179
  183loPI    C1 2913  11.996   5.186  10.350 -0.1656  0.2523 -0.1709
  183loPI    C2 2914  11.675   5.281  10.132 -0.2467  0.0104 -0.1601
  183loPI    C3 2915  11.720   4.908  10.268 -0.0239  0.0748 -0.0537
  183loPI   PO4 2916  12.182   5.209  10.255  0.0988 -0.1237  0.0208
  183loPI   GL1 2917  12.262   5.071   9.887 -0.1649 -0.0471  0.2469
  183loPI   GL2 2918  11.942   5.030   9.780 -0.4507  0.0461 -0.0213
  183loPI   C1A 2919  12.454   5.154   9.493 -0.0424 -0.3023 -0.0321
  183loPI   C2A 2920  12.388   5.189   8.945  0.1559  0.1108 -0.1002
  183loPI   C3A 2921  12.306   5.321   8.553 -0.0078  0.0101 -0.1241
  183loPI   C4A 2922  12.227   5.541   8.104  0.0859 -0.0350  0.1988
  183loPI   C5A 2923  11.819   5.506   7.654 -0.3488 -0.0416 -0.2932
  183loPI   C6A 2924  11.832   5.292   7.329  0.3081 -0.1525  0.1810
  183loPI   C1B 2925  11.863   4.913   9.354 -0.1337  0.1726  0.0609
  183loPI   C2B 2926  11.888   4.985   8.932  0.0722  0.2387  0.0539
  183loPI   C3B 2927  11.905   5.031   8.558  0.2665  0.0279  0.3167
  183loPI   C4B 2928  12.096   5.033   8.166  0.0818 -0.1934 -0.3089
  184loPI    C1 2929   3.883  18.334   9.834  0.0583 -0.0546 -0.1339
  184loPI    C2 2930   3.937  18.010  10.062  0.1513  0.2365  0.2683
  184loPI    C3 2931   4.046  18.370  10.197  0.1454  0.4265 -0.2145
  184loPI   PO4 2932   3.871  18.194   9.592 -0.0934  0.1755  0.0664
  184loPI   GL1 2933   3.842  18.221   9.219  0.1784  0.0313 -0.1150
  184loPI   GL2 2934   3.517  18.081   9.166  0.1294 -0.0203  0.2822
  184loPI   C1A 2935   4.003  18.123   8.862  0.0302 -0.2101  0.4038
  184loPI   C2A 2936   4.288  18.036   8.635 -0.1972  0.1589 -0.2349
  184loPI   C3A 2937   4.526  18.056   8.313  0.0309  0.1462 -0.0703
  184loPI   C4A 2938   4.656  18.206   7.909  0.0213 -0.1186 -0.0077
  184loPI   C5A 2939   4.911  18.659   7.864  0.1102  0.0120  0.2131
  184loPI   C6A 2940   5.271  18.895   7.705 -0.3935 -0.2317 -0.0876
  184loPI   C1B 2941   3.535  18.324   8.786 -0.0547  0.3114  0.1189
  184loPI   C2B 2942   3.772  18.323   8.460 -0.1292 -0.0166  0.0262
  184loPI   C3B 2943   4.029  18.163   8.194 -0.0117  0.0669 -0.0920
  184loPI   C4B 2944   4.226  17.989   7.846  0.1352 -0.0099  0.2430
  185loPI    C1 2945   2.985  11.901   9.725 -0.0577 -0.0419  0.0208
  185loPI    C2 2946   2.929  11.854  10.118 -0.3196 -0.1083 -0.0227
  185loPI    C3 2947   2.840  12.203   9.944  0.3967  0.1415  0.0797
  185loPI   PO4 2948   2.887  11.735   9.529  0.0074  0.4269 -0.2209
  185loPI   GL1 2949   2.726  11.637   9.187  0.4349  0.2072  0.0420
  185loPI   GL2 2950   2.583  11.955   9.147  0.2794 -0.3803 -0.3070
  185loPI   C1A 2951   2.809  11.755   8.769  0.0471  0.0636  0.1609
  185loPI   C2A 2952   2.836  11.877   8.360 -0.2808 -0.0400  0.0531
  185loPI   C3A 2953   2.839  12.074   7.929 -0.1024 -0.5465  0.1250
  185loPI   C4A 2954   3.091  11.967   7.539 -0.1088 -0.0750 -0.0916
  185loPI   C5A 2955   2.925  11.890   7.169  0.4165 -0.2778 -0.0232
  185loPI   C6A 2956   2.718  11.755   6.760 -0.0986 -0.0735  0.3582
  185loPI   C1B 2957   2.228  12.075   9.057  0.0181 -0.1819 -0.1635
  185loPI   C2B 2958   1.897  12.054   8.794  0.0553 -0.3223  0.5165
  185loPI   C3B 2959   1.688  12.067   8.408  0.0848 -0.0290  0.0954
  185loPI   C4B 2960   1.403  12.208   8.089 -0.2364  0.0121  0.1139
  186loPI    C1 2961  16.519  17.647  10.432 -0.2141 -0.0905 -0.1756
  186loPI    C2 2962  16.290  17.947  10.566  0.0601  0.0982 -0.1208
  186loPI    C3 2963  16.557  17.774  10.809  0.2501  0.1445 -0.2944
  186loPI   PO4 2964  16.419  17.640  10.232  0.1949  0.0062  0.2857
  186loPI   GL1 2965  16.212  17.726   9.905 -0.0166 -0.1297  0.0783
  186loPI   GL2 2966  15.990  17.980   9.850  0.6502  0.1545  0.0027
  186loPI   C1A 2967  16.255  17.458   9.573 -0.2833 -0.0971  0.1535
  186loPI   C2A 2968  16.271  17.208   9.126 -0.5007  0.2340  0.0418
  186loPI   C3A 2969  16.244  17.400   8.647 -0.0208  0.0606 -0.1854
  186loPI   C4A 2970  16.505  17.530   8.286  0.0028  0.3586 -0.4640
  186loPI   C5A 2971  16.431  17.467   7.913  0.2409  0.2263  0.0827
  186loPI   C6A 2972  16.559  17.452   7.510 -0.0199  0.0808 -0.2250
  186loPI   C1B 2973  16.223  18.045   9.488  0.4236 -0.0170  0.0744
  186loPI   C2B 2974  16.484  18.171   9.117  0.2915 -0.2021 -0.1688
  186loPI   C3B 2975  16.498  18.033   8.662 -0.1760 -0.0023 -0.0113
  186loPI   C4B 2976  16.538  18.194   8.142  0.2149 -0.0362 -0.1432
  187loPI    C1 2977   7.904  15.929  10.410 -0.0125  0.0549 -0.0385
  187loPI    C2 2978   8.147  15.919  10.729 -0.0032 -0.1433 -0.0503
  187loPI    C3 2979   7.761  16.017  10.773  0.0567  0.0844 -0.0182
  187loPI   PO4 2980   8.008  16.128  10.213 -0.0318  0.1080 -0.1302
  187loPI   GL1 2981   8.061  16.136   9.789 -0.0552 -0.1514 -0.1897
  187loPI   GL2 2982   8.192  16.450   9.641 -0.2656 -0.0616  0.1757
  187loPI   C1A 2983   7.946  15.876   9.455  0.2042 -0.1175  0.0380
  187loPI   C2A 2984   7.914  15.891   9.050 -0.2115 -0.0539  0.0407
  187loPI   C3A 2985   8.079  16.029   8.579 -0.0409 -0.0493  0.1296
  187loPI   C4A 2986   8.292  15.910   8.155  0.1744 -0.0019 -0.0455
  187loPI   C5A 2987   8.500  15.830   7.826 -0.2251  0.1338  0.1698
  187loPI   C6A 2988   8.486  15.647   7.402  0.0854  0.2172  0.0519
  187loPI   C1B 2989   8.383  16.660   9.338 -0.2941 -0.2273 -0.1657
  187loPI   C2B 2990   8.672  16.662   8.998  0.2135  0.0495  0.1159
  187loPI   C3B 2991   8.848  16.355   8.658  0.1553 -0.2325  0.3500
  187loPI   C4B 2992   8.748  16.030   8.330  0.1494 -0.2233  0.0883
  188loPI    C1 2993   0.781  13.755  10.072  0.0893  0.0096  0.0070
  188loPI    C2 2994   0.872  13.928  10.421 -0.0114  0.0871 -0.0048
  188loPI    C3 2995   0.640  13.602  10.413 -0.1061  0.1543 -0.0077
  188loPI   PO4 2996   0.769  13.911   9.878 -0.1431 -0.0655 -0.0540
  188loPI   GL1 2997   0.501  13.968   9.607 -0.2115  0.1427  0.0173
  188loPI   GL2 2998   0.460  14.248   9.705 -0.0314  0.0317 -0.2168
  188loPI   C1A 2999   0.522  14.047   9.241 -0.0607  0.2854 -0.1280
  188loPI   C2A 3000   0.241  13.908   8.899  0.1823 -0.0799 -0.0815
  188loPI   C3A 3001  -0.107  13.785   8.626 -0.0986 -0.0185 -0.2434
  188loPI   C4A 3002  -0.222  13.538   8.211  0.0573 -0.0358 -0.0066
  188loPI   C5A 3003  -0.622  13.295   7.987 -0.1860  0.0028  0.1362
  188loPI   C6A 3004  -0.797  12.903   7.862 -0.0931 -0.0625 -0.2727
  188loPI   C1B 3005   0.498  14.600   9.418 -0.0492  0.0266 -0.1054
  188loPI   C2B 3006   0.432  14.848   9.145 -0.1247 -0.0817  0.0752
  188loPI   C3B 3007   0.211  15.147   8.872  0.0151 -0.2500 -0.1097
  188loPI   C4B 3008  -0.054  15.371   8.485  0.1172  0.0091  0.0640
  189loPI    C1 3009   8.662   3.738   9.969 -0.0445  0.0414 -0.0864
  189loPI    C2 3010   9.055   3.665   9.997 -0.0569 -0.0305 -0.0973
  189loPI    C3 3011   8.805   3.375   9.881 -0.1199  0.0001 -0.0389
  189loPI   PO4 3012   8.656   3.905   9.860  0.4907  0.2004 -0.5346
  189loPI   GL1 3013   8.682   4.277   9.538  0.1019  0.5936 -0.2136
  189loPI   GL2 3014   8.383   3.993   9.460 -0.2155  0.3587 -0.0187
  189loPI   C1A 3015   8.633   4.260   9.097  0.0407  0.1726 -0.1224
  189loPI   C2A 3016   8.772   4.331   8.654  0.4165 -0.1277  0.1747
  189loPI   C3A 3017   8.622   4.298   8.314  0.1033  0.1346  0.0888
  189loPI   C4A 3018   8.449   4.181   7.852 -0.1250  0.1369  0.1568
  189loPI   C5A 3019   8.375   4.048   7.507 -0.0277  0.1065  0.0495
  189loPI   C6A 3020   8.316   3.799   7.155  0.0427 -0.0543 -0.0212
  189loPI   C1B 3021   8.118   4.048   8.997 -0.0927  0.1796 -0.1120
  189loPI   C2B 3022   7.972   3.855   8.701  0.1665 -0.1276  0.2271
  189loPI   C3B 3023   7.777   3.761   8.284 -0.3578  0.1245 -0.0602
  189loPI   C4B 3024   7.506   3.635   7.938 -0.3237 -0.1051 -0.0137
  190loPI    C1 3025   7.580   5.490  10.185 -0.2393 -0.0819  0.0084
  190loPI    C2 3026   7.605   5.121  10.339 -0.1487 -0.0695  0.0240
  190loPI    C3 3027   7.385   5.400  10.523 -0.0617 -0.0621  0.1174
  190loPI   PO4 3028   7.533   5.415   9.929 -0.2481 -0.2963  0.1629
  190loPI   GL1 3029   7.405   5.426   9.511  0.0745  0.2002  0.3272
  190loPI   GL2 3030   7.105   5.515   9.405  0.2024 -0.0853 -0.0148
  190loPI   C1A 3031   7.360   5.263   9.069 -0.3943  0.3549 -0.2888
  190loPI   C2A 3032   7.532   5.192   8.612  0.0490  0.2142  0.0438
  190loPI   C3A 3033   7.396   5.096   8.253  0.0054 -0.2680 -0.3712
  190loPI   C4A 3034   7.221   5.111   7.919  0.0120 -0.0156 -0.0428
  190loPI   C5A 3035   7.131   5.366   7.625 -0.0972  0.1056  0.3686
  190loPI   C6A 3036   7.050   5.876   7.662  0.2028  0.0197 -0.1133
  190loPI   C1B 3037   6.988   5.569   9.039 -0.1678  0.0317  0.0204
  190loPI   C2B 3038   7.054   5.453   8.572 -0.1096 -0.0375  0.0585
  190loPI   C3B 3039   7.160   5.568   8.078  0.4328  0.0642  0.0510
  190loPI   C4B 3040   7.558   5.679   7.838  0.0939  0.0788 -0.1177
  191loPI    C1 3041   9.614  18.654  10.217  0.0267 -0.0497 -0.2240
  191loPI    C2 3042   9.842  18.417   9.990  0.2943  0.0169 -0.0302
  191loPI    C3 3043   9.868  18.397  10.389  0.0602  0.1241 -0.0081
  191loPI   PO4 3044   9.625  18.863   9.970  0.3015 -0.0065  0.3053
  191loPI   GL1 3045   9.531  18.726   9.595  0.2356  0.1692  0.0747
  191loPI   GL2 3046   9.763  18.974   9.449 -0.1417 -0.1445 -0.0617
  191loPI   C1A 3047   9.151  18.971   9.288  0.3499  0.3988  0.3439
  191loPI   C2A 3048   9.017  19.055   8.865  0.1292  0.0392  0.2384
  191loPI   C3A 3049   8.939  19.066   8.459  0.1490  0.5003 -0.1870
  191loPI   C4A 3050   8.631  18.845   8.119  0.2467 -0.1471 -0.0731
  191loPI   C5A 3051   8.328  18.713   7.908  0.2356 -0.0006 -0.0459
  191loPI   C6A 3052   7.909  18.739   8.123  0.1655  0.0249  0.0928
  191loPI   C1B 3053   9.627  18.999   9.080  0.0202  0.0367  0.1361
  191loPI   C2B 3054   9.813  18.999   8.665  0.1343  0.0098 -0.1528
  191loPI   C3B 3055  10.015  19.150   8.313 -0.3459 -0.2022  0.2794
  191loPI   C4B 3056  10.228  19.357   8.021 -0.0393 -0.1952  0.0496
  192loPI    C1 3057   2.813   3.435  10.050 -0.1032 -0.1528 -0.1526
  192loPI    C2 3058   2.757   3.667  10.370 -0.0728  0.0204 -0.2716
  192loPI    C3 3059   3.126   3.608  10.229 -0.0982  0.0460 -0.3491
  192loPI   PO4 3060   2.560   3.481   9.854  0.1272 -0.0447 -0.0528
  192loPI   GL1 3061   2.590   3.692   9.501  0.3036  0.1387  0.0822
  192loPI   GL2 3062   2.641   4.022   9.487 -0.1007  0.1116  0.0348
  192loPI   C1A 3063   2.424   3.530   8.984 -0.2231 -0.3360 -0.0392
  192loPI   C2A 3064   2.456   3.663   8.488  0.0765 -0.1380  0.1524
  192loPI   C3A 3065   2.233   3.807   8.124 -0.0017  0.2113  0.0296
  192loPI   C4A 3066   2.271   3.592   7.627  0.1974  0.0918 -0.2504
  192loPI   C5A 3067   2.398   3.284   7.372 -0.1780 -0.4237  0.0181
  192loPI   C6A 3068   2.631   3.331   7.017  0.1958  0.0350 -0.1623
  192loPI   C1B 3069   2.784   3.939   9.166  0.3641 -0.0941  0.1768
  192loPI   C2B 3070   2.871   4.002   8.687  0.2459 -0.1544 -0.2089
  192loPI   C3B 3071   2.705   4.075   8.297  0.3334 -0.2219  0.1286
  192loPI   C4B 3072   2.546   4.186   7.834  0.0981  0.0524 -0.1296
  193loPI    C1 3073   8.461   5.383  10.150  0.1523 -0.1858 -0.0662
  193loPI    C2 3074   8.487   5.000  10.262 -0.4425 -0.2035  0.0408
  193loPI    C3 3075   8.429   5.285  10.536 -0.1796 -0.0524 -0.0569
  193loPI   PO4 3076   8.546   5.419   9.937 -0.0806 -0.0531 -0.1452
  193loPI   GL1 3077   8.471   5.218   9.597  0.0541  0.0187 -0.1375
  193loPI   GL2 3078   8.144   5.239   9.573  0.2337 -0.1364  0.0275
  193loPI   C1A 3079   8.645   5.373   9.189 -0.0608 -0.2157 -0.1362
  193loPI   C2A 3080   8.660   5.204   8.780  0.0838  0.1104 -0.1659
  193loPI   C3A 3081   8.828   5.211   8.380  0.1870  0.0318 -0.1601
  193loPI   C4A 3082   8.822   5.485   8.019 -0.1461 -0.0667  0.1308
  193loPI   C5A 3083   8.507   5.648   7.794  0.2444 -0.0306 -0.0182
  193loPI   C6A 3084   8.108   5.717   7.496 -0.0881 -0.0967  0.1630
  193loPI   C1B 3085   8.205   5.088   9.105  0.2077  0.1968  0.3922
  193loPI   C2B 3086   8.203   5.100   8.639 -0.1326 -0.1789 -0.3897
  193loPI   C3B 3087   7.928   5.155   8.277 -0.1407 -0.0449  0.0859
  193loPI   C4B 3088   7.797   5.220   7.865  0.0142  0.0304 -0.0041
  194loPI    C1 3089  11.007  16.332  10.395 -0.0494  0.0811  0.0849
  194loPI    C2 3090  11.267  16.479  10.661  0.0464  0.1500 -0.0454
  194loPI    C3 3091  11.147  16.098  10.687 -0.0752  0.2031  0.1959
  194loPI   PO4 3092  11.131  16.392  10.202 -0.3424 -0.2385  0.4231
  194loPI   GL1 3093  11.217  16.417   9.701 -0.1182 -0.1981 -0.1648
  194loPI   GL2 3094  11.449  16.585   9.879  0.2982  0.2534 -0.0903
  194loPI   C1A 3095  11.469  16.254   9.281 -0.0462  0.1589 -0.1506
  194loPI   C2A 3096  11.498  16.133   8.816 -0.5408  0.2275  0.0014
  194loPI   C3A 3097  11.600  16.046   8.339  0.1952  0.0675  0.0789
  194loPI   C4A 3098  11.901  16.154   8.057 -0.2004 -0.3912 -0.2253
  194loPI   C5A 3099  12.184  16.346   7.733 -0.0081  0.2073 -0.1718
  194loPI   C6A 3100  12.575  16.505   7.621  0.2147 -0.1842 -0.1597
  194loPI   C1B 3101  11.549  16.762   9.431  0.1356 -0.1812  0.0149
  194loPI   C2B 3102  11.788  16.932   9.133 -0.1370  0.0775 -0.3027
  194loPI   C3B 3103  12.279  16.871   9.029 -0.1898 -0.2361 -0.5122
  194loPI   C4B 3104  12.446  16.716   8.696  0.0115  0.2192 -0.0802
  195loPI    C1 3105   2.876  13.713   9.935  0.0420 -0.0458 -0.0473
  195loPI    C2 3106   2.842  13.432  10.218 -0.4288  0.1821  0.1342
  195loPI    C3 3107   3.104  13.731  10.263 -0.1821 -0.0270  0.1102
  195loPI   PO4 3108   2.674  13.760   9.896 -0.1529  0.2383  0.0633
  195loPI   GL1 3109   2.408  13.973   9.590  0.1337  0.2242  0.0526
  195loPI   GL2 3110   2.714  14.064   9.497 -0.2119  0.0112 -0.0570
  195loPI   C1A 3111   2.091  14.136   9.258 -0.0984 -0.2432 -0.1571
  195loPI   C2A 3112   1.959  14.114   8.824 -0.3868  0.1025  0.2588
  195loPI   C3A 3113   1.840  14.166   8.491 -0.1424  0.2907  0.0191
  195loPI   C4A 3114   1.673  14.224   7.977  0.3827  0.2269  0.1632
  195loPI   C5A 3115   1.311  14.171   7.595 -0.0737  0.1549  0.3324
  195loPI   C6A 3116   1.442  14.169   7.183 -0.0447  0.0421  0.1210
  195loPI   C1B 3117   2.995  14.011   9.198 -0.1629  0.2484 -0.3476
  195loPI   C2B 3118   3.309  13.910   8.912  0.1772 -0.0893 -0.2028
  195loPI   C3B 3119   3.543  13.511   8.771  0.0683  0.2679  0.2016
  195loPI   C4B 3120   3.977  13.452   8.566  0.0768 -0.1340 -0.4164
  196loPI    C1 3121  13.275  15.909  10.788  0.0273 -0.3151  0.1055
  196loPI    C2 3122  12.913  16.048  10.887  0.1766  0.1101  0.0717
  196loPI    C3 3123  13.171  15.940  11.173  0.1295  0.0863  0.1052
  196loPI   PO4 3124  13.311  15.846  10.567 -0.1299  0.1276  0.1296
  196loPI   GL1 3125  13.444  15.813  10.140  0.1564 -0.1367 -0.2771
  196loPI   GL2 3126  13.141  15.725  10.034  0.1731 -0.0795  0.2307
  196loPI   C1A 3127  13.542  15.439   9.947  0.2318  0.2156  0.2955
  196loPI   C2A 3128  13.654  15.116   9.615 -0.2972 -0.0460 -0.0771
  196loPI   C3A 3129  13.718  15.092   9.207 -0.3346 -0.1943 -0.0975
  196loPI   C4A 3130  13.726  14.840   8.763  0.0791  0.1196  0.0941
  196loPI   C5A 3131  13.809  14.881   8.406 -0.1398 -0.2049 -0.2686
  196loPI   C6A 3132  13.576  14.728   7.918 -0.0711  0.0211  0.1738
  196loPI   C1B 3133  13.321  15.799   9.669  0.2504 -0.0958  0.1573
  196loPI   C2B 3134  13.428  15.640   9.197 -0.3106 -0.1678  0.1666
  196loPI   C3B 3135  13.704  15.978   8.889  0.1414 -0.0333 -0.2707
  196loPI   C4B 3136  13.846  16.306   8.707 -0.0533 -0.3119  0.0920
  197loPI    C1 3137   9.203   9.145  10.089 -0.1209 -0.0984  0.3940
  197loPI    C2 3138   9.343   9.502   9.975  0.0143 -0.2436  0.0948
  197loPI    C3 3139   9.178   9.459  10.337  0.0845  0.0980  0.1715
  197loPI   PO4 3140   9.186   9.024   9.882 -0.0682 -0.3239 -0.5019
  197loPI   GL1 3141   9.112   9.253   9.483 -0.0455  0.0852 -0.2908
  197loPI   GL2 3142   8.935   9.509   9.499 -0.3434  0.2159 -0.2728
  197loPI   C1A 3143   9.100   9.065   9.149  0.0737  0.1904 -0.0623
  197loPI   C2A 3144   9.125   8.860   8.798 -0.0107 -0.3608 -0.4279
  197loPI   C3A 3145   9.193   8.909   8.408  0.2318  0.1758  0.0953
  197loPI   C4A 3146   9.554   8.820   8.071  0.2328  0.1588  0.1391
  197loPI   C5A 3147   9.547   8.990   7.659 -0.1872  0.3246  0.1143
  197loPI   C6A 3148   9.690   9.106   7.349 -0.1537 -0.1539 -0.3730
  197loPI   C1B 3149   8.715   9.375   9.212 -0.1193 -0.0384 -0.0487
  197loPI   C2B 3150   8.824   9.242   8.787  0.1417  0.0334 -0.0436
  197loPI   C3B 3151   8.703   9.265   8.340 -0.3144 -0.1540  0.1269
  197loPI   C4B 3152   8.390   9.161   8.060  0.1745 -0.0307  0.0224
  198loPI    C1 3153   0.805   4.539   9.939  0.1222  0.2519 -0.0069
  198loPI    C2 3154   0.565   4.260   9.782  0.1635  0.2812 -0.1229
  198loPI    C3 3155   0.881   4.151  10.002 -0.0740  0.2464  0.2073
  198loPI   PO4 3156   0.632   4.739   9.656 -0.2020 -0.2502  0.1726
  198loPI   GL1 3157   0.531   4.664   9.283 -0.0207  0.3259 -0.0482
  198loPI   GL2 3158   0.471   4.356   9.317  0.3598 -0.2430 -0.3215
  198loPI   C1A 3159   0.580   4.815   8.973 -0.2168 -0.2734  0.0832
  198loPI   C2A 3160   0.650   4.819   8.483 -0.2386 -0.1714 -0.1527
  198loPI   C3A 3161   0.721   4.931   8.153 -0.0023 -0.0305  0.1259
  198loPI   C4A 3162   0.662   4.929   7.782  0.0470  0.0441  0.1087
  198loPI   C5A 3163   0.741   4.628   7.496  0.0374 -0.0196  0.2109
  198loPI   C6A 3164   0.753   4.515   7.096 -0.2324 -0.1570  0.0486
  198loPI   C1B 3165   0.772   4.253   9.005  0.2716 -0.1192 -0.2254
  198loPI   C2B 3166   0.761   4.296   8.614  0.0014 -0.0765 -0.0415
  198loPI   C3B 3167   0.835   3.980   8.276  0.3673  0.1071  0.0824
  198loPI   C4B 3168   0.649   3.610   8.310 -0.1896 -0.0227  0.1098
  199loPI    C1 3169   3.196   3.120  10.066 -0.0819  0.1300  0.1199
  199loPI    C2 3170   3.445   3.180  10.373  0.0655  0.0737  0.0125
  199loPI    C3 3171   3.053   3.141  10.439  0.1041 -0.0061  0.2007
  199loPI   PO4 3172   3.386   2.998   9.904 -0.2308 -0.3545 -0.0205
  199loPI   GL1 3173   3.335   2.849   9.545 -0.1628  0.2827  0.0102
  199loPI   GL2 3174   3.048   2.939   9.314 -0.1316  0.0269 -0.2222
  199loPI   C1A 3175   3.608   2.799   9.239  0.0525 -0.4356  0.1349
  199loPI   C2A 3176   3.572   2.726   8.759  0.1457 -0.1160 -0.0911
  199loPI   C3A 3177   3.554   2.893   8.254 -0.2874 -0.0376  0.0050
  199loPI   C4A 3178   3.519   2.728   7.811  0.2430 -0.0939  0.0504
  199loPI   C5A 3179   3.643   2.443   7.502 -0.0087 -0.0075  0.3666
  199loPI   C6A 3180   3.915   2.471   7.133 -0.3503  0.2326  0.0400
  199loPI   C1B 3181   3.163   2.854   8.938  0.4146  0.0584 -0.0649
  199loPI   C2B 3182   3.079   2.897   8.398  0.1418  0.0431  0.0379
  199loPI   C3B 3183   3.020   3.023   7.926  0.0316 -0.0446 -0.1394
  199loPI   C4B 3184   2.845   3.215   7.526  0.1790  0.1684 -0.0237
  200loPI    C1 3185  10.976   9.067  10.503 -0.0868 -0.1057 -0.1535
  200loPI    C2 3186  10.686   9.256  10.303 -0.1933 -0.0708  0.0316
  200loPI    C3 3187  10.781   9.372  10.674  0.2198  0.0711 -0.1136
  200loPI   PO4 3188  11.069   8.936  10.313 -0.0050  0.0743 -0.0685
  200loPI   GL1 3189  10.955   8.947   9.961 -0.6053 -0.0963 -0.1074
  200loPI   GL2 3190  10.618   8.827  10.116  0.4139  0.1271  0.2583
  200loPI   C1A 3191  10.942   9.018   9.531  0.0505  0.0600  0.2691
  200loPI   C2A 3192  10.845   9.019   9.155 -0.1726  0.1440  0.0900
  200loPI   C3A 3193  10.705   8.971   8.744 -0.0357 -0.0663 -0.0411
  200loPI   C4A 3194  10.568   9.013   8.307  0.1099 -0.0499  0.1891
  200loPI   C5A 3195  10.327   8.920   8.021 -0.3018 -0.1386  0.0797
  200loPI   C6A 3196  10.018   8.782   7.753  0.0724 -0.3259  0.0491
  200loPI   C1B 3197  10.599   8.710   9.647  0.2671 -0.3386 -0.2509
  200loPI   C2B 3198  10.417   8.684   9.301 -0.2931  0.0616  0.0407
  200loPI   C3B 3199  10.234   8.832   8.921  0.2556  0.0855 -0.1889
  200loPI   C4B 3200  10.320   8.519   8.603  0.0075  0.0278  0.1243
  201loPI    C1 3201  16.805   7.216  10.323 -0.0415 -0.1876  0.0676
  201loPI    C2 3202  16.552   6.920  10.414 -0.1679 -0.0549  0.1522
  201loPI    C3 3203  16.632   7.205  10.684  0.1020 -0.1164  0.1395
  201loPI   PO4 3204  16.982   7.103  10.200 -0.0251 -0.1709 -0.0773
  201loPI   GL1 3205  16.994   7.111   9.811 -0.1274 -0.0275 -0.0366
  201loPI   GL2 3206  17.115   6.833   9.716 -0.1230  0.0741  0.3388
  201loPI   C1A 3207  17.356   7.271   9.428 -0.0356  0.0397 -0.0290
  201loPI   C2A 3208  17.376   7.360   9.040  0.1264 -0.1095  0.2318
  201loPI   C3A 3209  17.528   7.496   8.684 -0.0218  0.0550  0.1919
  201loPI   C4A 3210  17.659   7.512   8.184 -0.2931 -0.3632  0.2145
  201loPI   C5A 3211  18.150   7.566   8.009  0.2686 -0.3460  0.1806
  201loPI   C6A 3212  18.511   7.532   7.929 -0.1667  0.0446 -0.0470
  201loPI   C1B 3213  16.957   6.983   9.335  0.0629 -0.0953  0.4231
  201loPI   C2B 3214  17.014   6.882   8.869  0.0460  0.0355  0.2785
  201loPI   C3B 3215  16.808   6.745   8.622 -0.1846 -0.0562  0.1010
  201loPI   C4B 3216  16.762   6.366   8.431 -0.3884  0.1077 -0.0409
  202loPI    C1 3217   1.115   2.788   9.938  0.0167  0.1379 -0.0504
  202loPI    C2 3218   1.159   3.152  10.100  0.0567  0.0759  0.0797
  202loPI    C3 3219   0.980   2.861  10.308  0.0827  0.0030  0.0009
  202loPI   PO4 3220   1.180   2.821   9.642 -0.2779 -0.0223 -0.3292
  202loPI   GL1 3221   1.250   2.855   9.263 -0.4415  0.0297 -0.2231
  202loPI   GL2 3222   1.588   2.948   9.325  0.2048  0.0674  0.2530
  202loPI   C1A 3223   1.258   2.685   8.861 -0.0098  0.0204 -0.0916
  202loPI   C2A 3224   1.419   2.617   8.447 -0.1009 -0.1679 -0.2181
  202loPI   C3A 3225   1.431   2.636   7.992 -0.3065  0.2959 -0.0144
  202loPI   C4A 3226   1.502   2.379   7.614 -0.0324 -0.1902  0.0949
  202loPI   C5A 3227   1.189   2.135   7.387  0.1140 -0.1736  0.0729
  202loPI   C6A 3228   1.057   2.467   7.121  0.1102 -0.0298 -0.2031
  202loPI   C1B 3229   1.615   3.128   8.872 -0.2499  0.3065 -0.2192
  202loPI   C2B 3230   1.610   3.108   8.378  0.2334  0.2648  0.3979
  202loPI   C3B 3231   1.530   3.169   8.018  0.0931 -0.0005 -0.5207
  202loPI   C4B 3232   1.393   3.459   7.639  0.0719 -0.1028 -0.1265
  203loPI    C1 3233   3.301  12.353   9.966  0.0020  0.0358 -0.1476
  203loPI    C2 3234   3.409  12.014  10.148 -0.2559 -0.0737 -0.1930
  203loPI    C3 3235   3.146  12.260  10.323 -0.1347  0.0621 -0.1993
  203loPI   PO4 3236   3.319  12.306   9.686  0.0300  0.1485 -0.1555
  203loPI   GL1 3237   3.357  12.148   9.278 -0.2774 -0.1333  0.0677
  203loPI   GL2 3238   3.630  12.030   9.208  0.1767  0.1045  0.2773
  203loPI   C1A 3239   3.051  12.171   9.050 -0.2028  0.3946 -0.1767
  203loPI   C2A 3240   2.762  12.275   8.700 -0.0053  0.1994 -0.3409
  203loPI   C3A 3241   2.629  12.351   8.341 -0.0181  0.0799 -0.0025
  203loPI   C4A 3242   2.431  12.484   7.917 -0.1137  0.3132 -0.1548
  203loPI   C5A 3243   2.163  12.343   7.596  0.1331  0.1939  0.2435
  203loPI   C6A 3244   2.115  12.340   7.085  0.0773  0.2147  0.1461
  203loPI   C1B 3245   3.460  12.057   8.732 -0.1172  0.0758 -0.1236
  203loPI   C2B 3246   3.312  12.234   8.414  0.1805  0.0595  0.1567
  203loPI   C3B 3247   3.525  12.008   8.033 -0.0457  0.1362  0.0458
  203loPI   C4B 3248   3.519  11.841   7.662  0.0576 -0.1153 -0.0403
  204loPI    C1 3249  16.038  11.079  10.304  0.2755  0.0010  0.1050
  204loPI    C2 3250  15.972  11.192  10.682 -0.0841  0.0363  0.0353
  204loPI    C3 3251  15.769  10.884  10.527 -0.0179  0.0905 -0.1626
  204loPI   PO4 3252  16.209  11.270  10.238  0.1293 -0.2338 -0.1651
  204loPI   GL1 3253  16.152  11.337   9.813 -0.0014 -0.1730  0.2502
  204loPI   GL2 3254  16.094  11.013   9.776 -0.0343  0.2087  0.1079
  204loPI   C1A 3255  15.900  11.500   9.475  0.0270  0.2126  0.0955
  204loPI   C2A 3256  15.938  11.544   9.080  0.2135  0.0117 -0.2533
  204loPI   C3A 3257  15.957  11.618   8.628 -0.0003 -0.1624 -0.1857
  204loPI   C4A 3258  16.209  11.854   8.289 -0.0669 -0.0789 -0.2157
  204loPI   C5A 3259  15.873  11.937   7.825 -0.0407 -0.2596  0.5361
  204loPI   C6A 3260  15.892  12.018   7.362 -0.1254  0.1654  0.1637
  204loPI   C1B 3261  15.905  10.968   9.408  0.0564  0.1659 -0.1563
  204loPI   C2B 3262  15.886  11.040   8.993 -0.1380  0.1216  0.1179
  204loPI   C3B 3263  15.882  11.118   8.564  0.1349  0.0946  0.0902
  204loPI   C4B 3264  15.820  11.451   8.166  0.1322  0.0014 -0.0373
  205loPI    C1 3265  17.858  10.175  10.056  0.1139  0.1031 -0.2080
  205loPI    C2 3266  17.589   9.999  10.294  0.4011  0.0966  0.1182
  205loPI    C3 3267  17.466  10.223   9.987  0.0281 -0.1900  0.0503
  205loPI   PO4 3268  18.014   9.964   9.981 -0.1832 -0.1422 -0.2329
  205loPI   GL1 3269  18.320   9.933   9.636 -0.0005  0.2163  0.3586
  205loPI   GL2 3270  18.159   9.599   9.719 -0.1662 -0.0534  0.1269
  205loPI   C1A 3271  18.433  10.068   9.243 -0.1858  0.2597  0.2085
  205loPI   C2A 3272  18.505  10.361   9.030  0.0037  0.1651  0.1419
  205loPI   C3A 3273  18.488  10.448   8.610  0.1370 -0.3392  0.0455
  205loPI   C4A 3274  18.717  10.498   8.189 -0.0621  0.3398 -0.0497
  205loPI   C5A 3275  18.639  10.514   7.848 -0.4464 -0.0524  0.2876
  205loPI   C6A 3276  18.349  10.346   7.621 -0.0786 -0.0143 -0.0757
  205loPI   C1B 3277  17.965   9.596   9.333  0.0747 -0.0624 -0.1629
  205loPI   C2B 3278  17.929   9.675   8.937  0.1088 -0.1114 -0.2504
  205loPI   C3B 3279  17.831   9.833   8.551  0.1804  0.1724 -0.0546
  205loPI   C4B 3280  17.873   9.799   8.147  0.0705 -0.0043  0.1254
  206loPI    C1 3281  12.474   7.662  10.335 -0.1114  0.0060  0.0342
  206loPI    C2 3282  12.169   7.900  10.438  0.0025  0.1082  0.1390
  206loPI    C3 3283  12.438   7.789  10.713  0.0006 -0.0690  0.0707
  206loPI   PO4 3284  12.479   7.735  10.069  0.0077 -0.1827 -0.3165
  206loPI   GL1 3285  12.226   7.731   9.753  0.0300 -0.4732  0.0410
  206loPI   GL2 3286  12.382   7.436   9.645  0.1183  0.4560 -0.0579
  206loPI   C1A 3287  12.366   7.903   9.389  0.1403 -0.1081 -0.0332
  206loPI   C2A 3288  12.414   7.877   8.926 -0.1374  0.0893  0.0584
  206loPI   C3A 3289  12.265   8.001   8.549  0.0349 -0.2923  0.2675
  206loPI   C4A 3290  12.260   7.759   8.187 -0.0577  0.1707 -0.0598
  206loPI   C5A 3291  12.290   7.334   7.956 -0.1751 -0.3125 -0.0772
  206loPI   C6A 3292  11.991   7.014   7.977  0.0855 -0.0353 -0.1769
  206loPI   C1B 3293  12.100   7.479   9.323 -0.2175  0.1394  0.0515
  206loPI   C2B 3294  11.978   7.520   8.894 -0.0815 -0.2139  0.1186
  206loPI   C3B 3295  11.841   7.827   8.424 -0.0204  0.2594 -0.1956
  206loPI   C4B 3296  11.733   7.792   8.042  0.5278 -0.1569  0.0600
  207loPI    C1 3297   4.004   3.119   9.985 -0.1418  0.1042 -0.0599
  207loPI    C2 3298   3.870   2.807   9.773  0.0923  0.0296 -0.1019
  207loPI    C3 3299   3.812   2.819  10.169 -0.1471  0.0607 -0.1360
  207loPI   PO4 3300   4.244   3.190   9.861 -0.0832  0.1325 -0.0795
  207loPI   GL1 3301   4.382   2.955   9.585  0.1700  0.1303 -0.1626
  207loPI   GL2 3302   4.382   3.243   9.343 -0.0577 -0.2674 -0.0616
  207loPI   C1A 3303   4.133   2.673   9.394 -0.1026 -0.1461 -0.1994
  207loPI   C2A 3304   4.114   2.736   8.961 -0.1379 -0.0778  0.2242
  207loPI   C3A 3305   4.063   2.770   8.497 -0.0662  0.1760  0.0376
  207loPI   C4A 3306   3.975   2.742   8.032 -0.1410 -0.1900 -0.1293
  207loPI   C5A 3307   4.086   2.501   7.735  0.0644 -0.0280  0.2034
  207loPI   C6A 3308   4.470   2.317   7.578  0.2379  0.3369 -0.1017
  207loPI   C1B 3309   3.986   3.176   9.151  0.0751 -0.0107 -0.1546
  207loPI   C2B 3310   3.887   3.152   8.692  0.0858 -0.2078  0.2809
  207loPI   C3B 3311   3.901   3.263   8.278 -0.2517  0.2237 -0.1186
  207loPI   C4B 3312   3.719   3.205   7.860 -0.0221  0.0233 -0.1624
  208loPI    C1 3313  17.952  14.324  10.091  0.1566 -0.1192  0.0117
  208loPI    C2 3314  17.919  13.938   9.991 -0.1417 -0.1646  0.2703
  208loPI    C3 3315  18.061  14.040  10.351 -0.3072 -0.0416  0.3017
  208loPI   PO4 3316  17.684  14.417   9.954 -0.1459 -0.1379 -0.4639
  208loPI   GL1 3317  17.467  14.505   9.667 -0.2223 -0.1849 -0.0725
  208loPI   GL2 3318  17.609  14.775   9.567 -0.2332  0.1310 -0.4080
  208loPI   C1A 3319  17.540  14.139   9.348  0.0403  0.1884 -0.2825
  208loPI   C2A 3320  17.574  13.822   8.994  0.2175 -0.2604 -0.0430
  208loPI   C3A 3321  17.679  13.737   8.590 -0.3476  0.2874  0.0419
  208loPI   C4A 3322  17.916  13.628   8.199  0.1221 -0.0193 -0.1286
  208loPI   C5A 3323  18.006  13.664   7.724  0.1924  0.0384 -0.3452
  208loPI   C6A 3324  18.284  13.718   7.571 -0.0505  0.1714 -0.1829
  208loPI   C1B 3325  17.427  14.994   9.158 -0.2584 -0.0196  0.0986
  208loPI   C2B 3326  17.397  14.837   8.821 -0.2267 -0.4076  0.0239
  208loPI   C3B 3327  17.244  14.534   8.570 -0.2702  0.1299  0.2726
  208loPI   C4B 3328  16.796  14.414   8.470  0.0549 -0.0553  0.1633
  209loPI    C1 3329   2.432   0.393   9.939  0.2362  0.1024  0.1505
  209loPI    C2 3330   2.403   0.051  10.146 -0.1818  0.0321 -0.0137
  209loPI    C3 3331   2.326   0.400  10.325  0.1689  0.0380  0.1336
  209loPI   PO4 3332   2.699   0.466   9.741 -0.0397 -0.0471 -0.1532
  209loPI   GL1 3333   3.041   0.364   9.393  0.0956 -0.2241 -0.0004
  209loPI   GL2 3334   3.052   0.626   9.434 -0.1123  0.0756  0.2015
  209loPI   C1A 3335   3.283   0.390   9.033 -0.1538  0.0457  0.2433
  209loPI   C2A 3336   3.464   0.409   8.588 -0.0383  0.0456 -0.3845
  209loPI   C3A 3337   3.290   0.584   8.183  0.1230  0.1048 -0.2863
  209loPI   C4A 3338   3.091   0.481   7.756 -0.0380 -0.4647  0.1235
  209loPI   C5A 3339   2.634   0.651   7.496  0.2574  0.3492 -0.0563
  209loPI   C6A 3340   2.160   0.795   7.561  0.1642 -0.0619  0.0110
  209loPI   C1B 3341   2.893   0.732   9.023  0.2589  0.0835  0.2730
  209loPI   C2B 3342   2.948   0.583   8.619 -0.2403  0.0446  0.3212
  209loPI   C3B 3343   2.763   0.397   8.319 -0.2395  0.1772 -0.0006
  209loPI   C4B 3344   2.655   0.274   7.898 -0.1170 -0.1032  0.0109
  210loPI    C1 3345   6.751  10.452  10.156  0.0017 -0.1918  0.0404
  210loPI    C2 3346   7.085  10.454  10.377  0.0305  0.1605  0.0003
  210loPI    C3 3347   6.729  10.511  10.551 -0.0291 -0.3493  0.0629
  210loPI   PO4 3348   6.736  10.494   9.862 -0.0795  0.0349 -0.3108
  210loPI   GL1 3349   6.489  10.795   9.586 -0.0728 -0.2202  0.1810
  210loPI   GL2 3350   6.211  10.851   9.308 -0.3258  0.2795  0.0482
  210loPI   C1A 3351   6.688  10.791   9.146  0.0458 -0.1121 -0.2565
  210loPI   C2A 3352   6.818  10.704   8.747 -0.2072  0.1792 -0.1160
  210loPI   C3A 3353   6.704  10.479   8.434  0.1045 -0.0673 -0.3947
  210loPI   C4A 3354   6.640  10.659   8.046 -0.0359  0.1995 -0.2469
  210loPI   C5A 3355   6.666  10.493   7.702 -0.1476 -0.2576 -0.0912
  210loPI   C6A 3356   6.646  10.021   7.686  0.2288 -0.0543 -0.3194
  210loPI   C1B 3357   5.922  10.791   8.977  0.1480 -0.0521 -0.0771
  210loPI   C2B 3358   5.735  10.792   8.480 -0.2411  0.0214 -0.0485
  210loPI   C3B 3359   5.767  10.680   8.103  0.1535 -0.2465  0.2901
  210loPI   C4B 3360   5.610  10.746   7.688  0.0595 -0.0680  0.2999
  211loPI    C1 3361   0.080   9.207  10.104  0.0492  0.1315 -0.0779
  211loPI    C2 3362   0.056   8.886  10.342 -0.0098 -0.0421 -0.3140
  211loPI    C3 3363   0.189   9.234  10.488 -0.2544 -0.0870  0.0279
  211loPI   PO4 3364  -0.189   9.223   9.915 -0.0526 -0.1031  0.0492
  211loPI   GL1 3365  -0.086   9.337   9.471 -0.1039  0.0071 -0.0262
  211loPI   GL2 3366  -0.229   9.577   9.524 -0.0788 -0.4793 -0.2143
  211loPI   C1A 3367   0.097   9.517   9.130 -0.0713 -0.1723  0.2693
  211loPI   C2A 3368   0.088   9.566   8.663 -0.2365  0.0466 -0.3548
  211loPI   C3A 3369  -0.280   9.484   8.381 -0.1273 -0.0666  0.1237
  211loPI   C4A 3370  -0.558   9.572   8.054 -0.0185  0.0062 -0.2450
  211loPI   C5A 3371  -0.852   9.868   7.695  0.2051 -0.0434 -0.3228
  211loPI   C6A 3372  -1.216   9.895   7.355  0.0115 -0.2973  0.2090
  211loPI   C1B 3373  -0.402   9.574   9.099 -0.0170 -0.1685 -0.0780
  211loPI   C2B 3374  -0.482   9.786   8.729  0.3507  0.3486  0.2736
  211loPI   C3B 3375  -0.601  10.060   8.321  0.0876 -0.4439 -0.0426
  211loPI   C4B 3376  -0.721  10.400   8.119 -0.0684  0.0673 -0.0279
  212loPI    C1 3377   7.025   6.230  10.498 -0.0754  0.0025 -0.1190
  212loPI    C2 3378   7.425   6.223  10.489 -0.0721  0.1308 -0.0970
  212loPI    C3 3379   7.225   5.948  10.699  0.0111  0.1813  0.0502
  212loPI   PO4 3380   7.031   6.315  10.122 -0.1429  0.3485  0.0424
  212loPI   GL1 3381   6.915   6.545   9.708 -0.1191  0.3807  0.1830
  212loPI   GL2 3382   6.691   6.205   9.747  0.1671  0.1613 -0.1772
  212loPI   C1A 3383   7.222   6.339   9.407 -0.0317 -0.1775 -0.3243
  212loPI   C2A 3384   7.350   5.922   9.206 -0.3565  0.2881  0.2525
  212loPI   C3A 3385   7.400   5.780   8.782 -0.1645 -0.0552 -0.0413
  212loPI   C4A 3386   7.382   5.953   8.325 -0.1788  0.2078  0.0554
  212loPI   C5A 3387   7.478   6.170   8.017 -0.0451  0.0081  0.0730
  212loPI   C6A 3388   7.336   6.353   7.652 -0.2356  0.1202  0.0470
  212loPI   C1B 3389   6.592   6.533   9.338 -0.2226  0.0138  0.0854
  212loPI   C2B 3390   6.625   6.378   8.874 -0.1529 -0.0156 -0.0140
  212loPI   C3B 3391   6.603   6.308   8.517 -0.0720  0.2081 -0.0979
  212loPI   C4B 3392   6.483   6.411   8.159  0.0026  0.0948 -0.0828
  213loPI    C1 3393   2.284  16.478   9.601 -0.0257 -0.1635 -0.1451
  213loPI    C2 3394   2.458  16.458   9.960 -0.2530 -0.1328 -0.0311
  213loPI    C3 3395   2.405  16.813   9.783 -0.0124 -0.1595 -0.1612
  213loPI   PO4 3396   2.147  16.397   9.577 -0.1899  0.2399  0.2752
  213loPI   GL1 3397   1.793  16.246   9.300 -0.1718  0.1665 -0.1219
  213loPI   GL2 3398   1.721  16.510   9.268  0.3504  0.1005 -0.0231
  213loPI   C1A 3399   1.737  16.170   8.797  0.4088  0.1847 -0.0614
  213loPI   C2A 3400   1.914  16.043   8.461 -0.0878 -0.2717 -0.2602
  213loPI   C3A 3401   1.795  15.743   8.124  0.1232  0.1592 -0.0622
  213loPI   C4A 3402   1.947  15.386   7.926 -0.0800  0.0553  0.1179
  213loPI   C5A 3403   2.154  15.129   7.531  0.4815 -0.1097  0.0711
  213loPI   C6A 3404   2.289  15.445   7.271  0.0326 -0.0782  0.2145
  213loPI   C1B 3405   1.419  16.782   8.920  0.1577 -0.0634 -0.2484
  213loPI   C2B 3406   1.210  16.797   8.519  0.1418 -0.0708  0.2612
  213loPI   C3B 3407   1.082  17.050   8.188  0.1384  0.0541  0.1565
  213loPI   C4B 3408   0.771  17.136   7.917 -0.0737  0.0495  0.0830
  214loPI    C1 3409   0.356   6.272   9.786  0.1242  0.0838 -0.2525
  214loPI    C2 3410   0.450   6.137  10.151 -0.1065 -0.0605 -0.2445
  214loPI    C3 3411   0.725   6.137   9.861  0.1979  0.4287  0.0302
  214loPI   PO4 3412   0.205   6.065   9.678  0.0316 -0.0981  0.0883
  214loPI   GL1 3413   0.030   6.114   9.297 -0.0310 -0.0185 -0.1419
  214loPI   GL2 3414  -0.211   6.050   9.128 -0.4051 -0.0623 -0.1588
  214loPI   C1A 3415   0.156   6.366   9.016 -0.1358 -0.0988 -0.3645
  214loPI   C2A 3416   0.121   6.311   8.527 -0.0629 -0.0077 -0.1527
  214loPI   C3A 3417   0.066   6.300   8.009 -0.0599 -0.0402  0.0926
  214loPI   C4A 3418   0.021   6.513   7.648 -0.0302 -0.2437 -0.0196
  214loPI   C5A 3419   0.094   6.939   7.509 -0.1294  0.0685  0.2217
  214loPI   C6A 3420  -0.061   7.334   7.467  0.1366  0.1209 -0.1477
  214loPI   C1B 3421  -0.301   6.303   8.822  0.1390 -0.0708  0.0545
  214loPI   C2B 3422  -0.316   6.045   8.509  0.0958  0.1189  0.2418
  214loPI   C3B 3423  -0.352   5.963   8.111  0.2619  0.0065  0.0768
  214loPI   C4B 3424  -0.299   6.112   7.677 -0.1423  0.2187  0.1390
  215loPI    C1 3425   2.906  14.999   9.987 -0.1071 -0.1208  0.0667
  215loPI    C2 3426   2.846  14.668  10.203  0.3071 -0.1044  0.2145
  215loPI    C3 3427   2.675  15.012  10.313  0.2075 -0.1796  0.2966
  215loPI   PO4 3428   3.109  14.900   9.827 -0.0232 -0.2635  0.0792
  215loPI   GL1 3429   3.212  14.824   9.451 -0.3108 -0.2240  0.2959
  215loPI   GL2 3430   3.017  14.484   9.438 -0.0613  0.1128 -0.1883
  215loPI   C1A 3431   3.321  14.908   9.018  0.0016 -0.2294  0.2197
  215loPI   C2A 3432   3.486  15.129   8.618  0.0764 -0.1727 -0.0408
  215loPI   C3A 3433   3.805  15.268   8.396 -0.0369  0.2291  0.1154
  215loPI   C4A 3434   4.021  15.188   8.060 -0.0746  0.1114 -0.1609
  215loPI   C5A 3435   4.106  15.433   7.722  0.0056 -0.1044  0.0245
  215loPI   C6A 3436   4.006  15.739   7.418 -0.1622  0.4650  0.2871
  215loPI   C1B 3437   2.867  14.530   9.083  0.0774  0.1982 -0.0112
  215loPI   C2B 3438   2.863  14.494   8.611  0.3591 -0.2254 -0.1421
  215loPI   C3B 3439   2.612  14.772   8.281 -0.1230 -0.0663  0.1007
  215loPI   C4B 3440   2.552  14.825   7.911  0.1235 -0.1120 -0.1507
  216loPI    C1 3441   6.687  17.808  10.359  0.2744 -0.0322  0.0023
  216loPI    C2 3442   6.831  17.912  10.717  0.1931 -0.0483  0.0399
  216loPI    C3 3443   6.679  17.547  10.661  0.1466 -0.0238  0.0064
  216loPI   PO4 3444   6.891  17.917  10.120 -0.2373 -0.0404 -0.1575
  216loPI   GL1 3445   6.885  17.889   9.728 -0.0475  0.0527 -0.0410
  216loPI   GL2 3446   7.045  17.648   9.682  0.0856 -0.4238 -0.4188
  216loPI   C1A 3447   6.948  18.111   9.330 -0.1328 -0.2613 -0.0636
  216loPI   C2A 3448   7.196  18.305   9.038  0.2626 -0.2245  0.3023
  216loPI   C3A 3449   7.315  18.365   8.677  0.0014 -0.0969  0.1744
  216loPI   C4A 3450   7.482  18.444   8.291  0.1917  0.2849 -0.1003
  216loPI   C5A 3451   7.320  18.259   7.924  0.4749 -0.1949  0.1423
  216loPI   C6A 3452   7.613  18.045   7.502 -0.4301  0.2241 -0.1705
  216loPI   C1B 3453   7.122  17.532   9.303 -0.0872  0.0534 -0.5222
  216loPI   C2B 3454   7.204  17.484   8.924 -0.2263  0.0307 -0.0093
  216loPI   C3B 3455   7.276  17.506   8.481  0.4779 -0.1795  0.0536
  216loPI   C4B 3456   7.297  17.570   8.119  0.0895 -0.0286 -0.1777
  217loPI    C1 3457  15.995  16.656  10.509  0.1709 -0.1588  0.1575
  217loPI    C2 3458  16.335  16.716  10.307  0.0855 -0.0320  0.0498
  217loPI    C3 3459  16.321  16.789  10.700  0.2308 -0.2062  0.0886
  217loPI   PO4 3460  15.845  16.536  10.353 -0.1181  0.2788 -0.2322
  217loPI   GL1 3461  15.768  16.664   9.935  0.0923  0.1136  0.0110
  217loPI   GL2 3462  15.981  16.901  10.018  0.2198 -0.0798 -0.1295
  217loPI   C1A 3463  15.548  16.396   9.606  0.0800  0.0556 -0.3973
  217loPI   C2A 3464  15.569  16.373   9.203 -0.2029 -0.0630 -0.0999
  217loPI   C3A 3465  15.762  16.358   8.764 -0.3514 -0.0650  0.2128
  217loPI   C4A 3466  15.727  16.270   8.294  0.0121 -0.0776  0.1377
  217loPI   C5A 3467  15.364  16.543   8.175 -0.1234  0.2625 -0.0116
  217loPI   C6A 3468  14.837  16.460   8.238 -0.4625  0.1553  0.0198
  217loPI   C1B 3469  16.279  16.941   9.601 -0.3596  0.2054  0.0807
  217loPI   C2B 3470  16.642  17.147   9.443  0.0078  0.4493  0.0726
  217loPI   C3B 3471  16.774  17.235   9.098  0.3314 -0.1105  0.0026
  217loPI   C4B 3472  16.721  17.632   8.777  0.1400 -0.1893 -0.1594
  218loPI    C1 3473   1.862   7.408   9.965  0.0631 -0.0611 -0.0408
  218loPI    C2 3474   2.132   7.703   9.957  0.0571 -0.0521  0.0711
  218loPI    C3 3475   2.207   7.369  10.163 -0.0642 -0.0027  0.1971
  218loPI   PO4 3476   1.854   7.451   9.605 -0.1764 -0.1798 -0.0124
  218loPI   GL1 3477   2.248   7.471   9.444  0.1231 -0.1912 -0.1065
  218loPI   GL2 3478   2.550   7.586   9.385 -0.2681 -0.0679 -0.2096
  218loPI   C1A 3479   2.249   7.386   8.919  0.0690  0.0292  0.3912
  218loPI   C2A 3480   2.325   7.689   8.622 -0.1761 -0.1949 -0.0852
  218loPI   C3A 3481   2.364   7.657   8.182  0.1401 -0.2287 -0.1997
  218loPI   C4A 3482   2.753   7.542   7.977 -0.0567  0.0675 -0.0664
  218loPI   C5A 3483   3.079   7.218   7.970 -0.0925 -0.1317 -0.1647
  218loPI   C6A 3484   3.236   7.068   7.636 -0.1657 -0.2073  0.0503
  218loPI   C1B 3485   2.766   7.351   9.111  0.0807 -0.0261  0.0003
  218loPI   C2B 3486   2.702   7.081   8.891 -0.3552  0.1195 -0.2224
  218loPI   C3B 3487   3.059   6.934   8.799  0.1513 -0.0320  0.0704
  218loPI   C4B 3488   3.134   7.048   8.393 -0.0307 -0.1022 -0.0197
  219loPI    C1 3489  18.797  17.041  10.096  0.1170  0.2530  0.0618
  219loPI    C2 3490  18.865  17.325  10.369  0.0189  0.1530  0.1918
  219loPI    C3 3491  18.603  17.033  10.446  0.3788 -0.1745  0.2061
  219loPI   PO4 3492  18.801  17.232   9.901  0.3725  0.0830  0.2764
  219loPI   GL1 3493  18.556  17.261   9.510 -0.0141 -0.0607 -0.2297
  219loPI   GL2 3494  18.792  17.563   9.502 -0.2489 -0.2354  0.0509
  219loPI   C1A 3495  18.427  17.252   9.096 -0.2892  0.1788  0.1259
  219loPI   C2A 3496  18.257  17.388   8.755  0.0932 -0.1316 -0.1438
  219loPI   C3A 3497  18.207  17.470   8.316 -0.0112  0.2664 -0.0180
  219loPI   C4A 3498  18.431  17.258   8.004  0.1557 -0.0120  0.0338
  219loPI   C5A 3499  18.890  17.190   7.711  0.2826  0.0401 -0.0076
  219loPI   C6A 3500  19.273  17.101   7.636 -0.0894 -0.0467  0.2755
  219loPI   C1B 3501  18.780  17.623   9.063 -0.1189 -0.3140 -0.0358
  219loPI   C2B 3502  18.755  17.660   8.588  0.3399  0.1803 -0.2735
  219loPI   C3B 3503  18.865  17.422   8.268  0.0184 -0.0465  0.2027
  219loPI   C4B 3504  19.189  17.158   8.177 -0.2976  0.0455  0.0677
  220loPI    C1 3505  16.519   6.410  10.176 -0.0227 -0.1532 -0.0101
  220loPI    C2 3506  16.713   6.694   9.971  0.0053  0.0177  0.2480
  220loPI    C3 3507  16.887   6.522  10.288 -0.0577 -0.2076  0.1622
  220loPI   PO4 3508  16.389   6.281   9.997 -0.1223 -0.2874 -0.0365
  220loPI   GL1 3509  16.594   6.344   9.621 -0.3398  0.2242  0.1118
  220loPI   GL2 3510  16.844   6.424   9.404  0.2728  0.3033 -0.2031
  220loPI   C1A 3511  16.348   6.455   9.161 -0.1593 -0.1548 -0.4101
  220loPI   C2A 3512  16.443   6.504   8.769  0.0189  0.2920 -0.0461
  220loPI   C3A 3513  16.340   6.619   8.369  0.1040 -0.0028 -0.2494
  220loPI   C4A 3514  16.686   6.789   8.108 -0.1267 -0.0796  0.0377
  220loPI   C5A 3515  16.839   7.060   7.730  0.1081  0.0809 -0.0881
  220loPI   C6A 3516  16.836   7.321   7.328 -0.0944  0.0493 -0.0825
  220loPI   C1B 3517  16.871   6.405   9.009 -0.0803 -0.1260 -0.3718
  220loPI   C2B 3518  17.140   6.413   8.765 -0.0353 -0.1701  0.1257
  220loPI   C3B 3519  17.192   6.648   8.339 -0.0522  0.2660 -0.0645
  220loPI   C4B 3520  17.208   6.655   7.896 -0.2150 -0.1564  0.2081
  221loPI    C1 3521  13.096  17.348  10.977  0.0328 -0.1744  0.1663
  221loPI    C2 3522  12.700  17.294  11.002 -0.0443  0.1676 -0.2146
  221loPI    C3 3523  12.886  17.535  11.262 -0.0875  0.0274 -0.0516
  221loPI   PO4 3524  13.104  17.315  10.590  0.1414 -0.0484 -0.0697
  221loPI   GL1 3525  13.081  17.429  10.200 -0.1668 -0.0236 -0.2324
  221loPI   GL2 3526  13.319  17.238   9.961  0.1779 -0.1174  0.0713
  221loPI   C1A 3527  12.743  17.590   9.973 -0.1947  0.1505  0.0722
  221loPI   C2A 3528  12.457  17.666   9.608  0.1131  0.1235  0.2065
  221loPI   C3A 3529  12.263  17.852   9.323  0.1078  0.2136  0.1789
  221loPI   C4A 3530  12.285  17.950   8.882  0.0502  0.1155  0.2300
  221loPI   C5A 3531  12.244  17.997   8.500 -0.0357 -0.1046 -0.1555
  221loPI   C6A 3532  12.016  18.059   8.068 -0.0006  0.0798 -0.1578
  221loPI   C1B 3533  12.992  17.214   9.645 -0.3710 -0.2047  0.1081
  221loPI   C2B 3534  12.896  17.467   9.326  0.1183 -0.0093 -0.0256
  221loPI   C3B 3535  12.846  17.588   8.810 -0.2028 -0.1823  0.0735
  221loPI   C4B 3536  12.984  17.630   8.388  0.0217 -0.0906 -0.0640
  222loPI    C1 3537   4.111  11.786   9.972  0.1074  0.1184  0.2928
  222loPI    C2 3538   4.154  11.534  10.280 -0.1438  0.0813  0.2995
  222loPI    C3 3539   3.788  11.632  10.151 -0.0417 -0.1477 -0.1868
  222loPI   PO4 3540   4.381  11.867   9.900 -0.2251  0.0800 -0.1372
  222loPI   GL1 3541   4.438  11.882   9.475  0.0499 -0.0317 -0.1817
  222loPI   GL2 3542   4.125  11.916   9.361  0.0960  0.0747 -0.0162
  222loPI   C1A 3543   4.683  11.754   9.155 -0.0371  0.0771  0.2937
  222loPI   C2A 3544   4.841  11.854   8.782 -0.0946 -0.0712  0.0355
  222loPI   C3A 3545   4.873  11.744   8.341 -0.0500  0.1609  0.0357
  222loPI   C4A 3546   4.834  11.810   7.962 -0.2635 -0.1404  0.1359
  222loPI   C5A 3547   5.054  11.859   7.615 -0.0702 -0.1969 -0.0215
  222loPI   C6A 3548   5.165  11.880   7.120 -0.3010  0.1765 -0.1814
  222loPI   C1B 3549   4.219  11.541   9.076 -0.0070  0.0297  0.0228
  222loPI   C2B 3550   4.375  11.514   8.677  0.2143 -0.0166  0.2055
  222loPI   C3B 3551   4.522  11.365   8.246  0.0737 -0.0468  0.0545
  222loPI   C4B 3552   4.447  11.487   7.849 -0.1736 -0.0933 -0.4124
  223loPI    C1 3553   0.495  17.210  10.294  0.1540 -0.2018 -0.3336
  223loPI    C2 3554   0.830  17.429  10.279  0.0488 -0.0019  0.0868
  223loPI    C3 3555   0.785  17.150  10.562 -0.0320 -0.2155 -0.1326
  223loPI   PO4 3556   0.489  17.123  10.006  0.1577 -0.1553 -0.1542
  223loPI   GL1 3557   0.432  16.970   9.633 -0.4187  0.1253  0.0914
  223loPI   GL2 3558   0.307  17.231   9.551  0.3421 -0.2168  0.0675
  223loPI   C1A 3559   0.660  16.826   9.398 -0.0514  0.2929  0.0062
  223loPI   C2A 3560   0.526  17.002   9.057  0.0401 -0.0703 -0.1991
  223loPI   C3A 3561   0.636  17.084   8.639  0.2720 -0.0639 -0.2147
  223loPI   C4A 3562   0.694  17.432   8.350  0.1140 -0.0809  0.0817
  223loPI   C5A 3563   0.718  17.653   7.969 -0.0023  0.1748  0.1062
  223loPI   C6A 3564   0.613  18.028   7.670  0.0378  0.1042  0.2416
  223loPI   C1B 3565   0.051  17.148   9.200  0.1578  0.1099 -0.2103
  223loPI   C2B 3566  -0.116  17.188   8.764  0.1091 -0.1410  0.0676
  223loPI   C3B 3567  -0.273  17.033   8.399  0.0605  0.2695  0.0662
  223loPI   C4B 3568  -0.101  16.891   8.056 -0.1414  0.3484 -0.3321
  224loPI    C1 3569  17.719  11.465  10.143 -0.3394  0.2111 -0.0262
  224loPI    C2 3570  17.771  11.621  10.508  0.0586  0.0524 -0.0103
  224loPI    C3 3571  17.692  11.231  10.466  0.0232  0.0685 -0.0949
  224loPI   PO4 3572  17.581  11.544   9.995 -0.0829  0.1183  0.0485
  224loPI   GL1 3573  17.212  11.464   9.685  0.1479  0.1342 -0.0845
  224loPI   GL2 3574  17.146  11.166   9.731 -0.3344  0.1051 -0.3002
  224loPI   C1A 3575  17.348  11.349   9.307 -0.2820 -0.2176  0.1368
  224loPI   C2A 3576  17.171  11.272   8.925 -0.0901 -0.1688 -0.0295
  224loPI   C3A 3577  16.833  11.329   8.741  0.4846  0.0397  0.0433
  224loPI   C4A 3578  16.678  11.476   8.395  0.3162 -0.2413  0.0894
  224loPI   C5A 3579  16.366  11.460   8.052  0.2883 -0.0464 -0.3563
  224loPI   C6A 3580  16.052  11.404   7.726 -0.1382 -0.0574 -0.1888
  224loPI   C1B 3581  16.892  11.101   9.340  0.1724 -0.0055  0.0486
  224loPI   C2B 3582  16.800  11.546   9.144  0.2708 -0.0690 -0.3190
  224loPI   C3B 3583  16.800  11.972   9.259 -0.1845  0.0803 -0.1665
  224loPI   C4B 3584  16.785  12.303   9.492 -0.2442 -0.2201  0.0856
  225loPI    C1 3585   0.972   0.775  10.090  0.0330 -0.0172 -0.4822
  225loPI    C2 3586   0.683   1.053  10.090  0.1383  0.0952 -0.2553
  225loPI    C3 3587   1.067   1.163  10.116  0.1624 -0.0838  0.2464
  225loPI   PO4 3588   0.921   0.577   9.882  0.0300  0.2720  0.0154
  225loPI   GL1 3589   0.905   0.496   9.443  0.1405 -0.2188 -0.4988
  225loPI   GL2 3590   1.099   0.227   9.354 -0.1355 -0.1180 -0.0465
  225loPI   C1A 3591   0.844   0.734   9.037 -0.2316 -0.3935 -0.2025
  225loPI   C2A 3592   0.790   0.672   8.616 -0.1838  0.1430 -0.1258
  225loPI   C3A 3593   0.753   0.612   8.311  0.2013 -0.0056 -0.0018
  225loPI   C4A 3594   0.722   0.591   7.836  0.0994 -0.2368 -0.1096
  225loPI   C5A 3595   0.996   0.515   7.441 -0.2490 -0.0701  0.3672
  225loPI   C6A 3596   1.377   0.473   7.166 -0.0336 -0.0504  0.0717
  225loPI   C1B 3597   1.050   0.258   8.887  0.0611 -0.0204  0.3105
  225loPI   C2B 3598   0.902   0.065   8.474  0.1799  0.3259  0.2706
  225loPI   C3B 3599   0.765   0.142   8.059 -0.0768  0.2249 -0.3099
  225loPI   C4B 3600   0.993  -0.007   7.609  0.0787  0.4064  0.1342
  226loPI    C1 3601  16.224  12.168  10.358  0.0270  0.0594  0.0971
  226loPI    C2 3602  16.574  12.300  10.500  0.1379 -0.1303  0.0044
  226loPI    C3 3603  16.291  12.173  10.753  0.1417  0.0073  0.0787
  226loPI   PO4 3604  16.125  12.315  10.189 -0.2790  0.2037  0.0887
  226loPI   GL1 3605  16.109  12.402   9.813 -0.2098 -0.0703 -0.0487
  226loPI   GL2 3606  15.900  12.231   9.704  0.0702  0.2800 -0.1648
  226loPI   C1A 3607  16.309  12.413   9.496  0.4876 -0.3215  0.0727
  226loPI   C2A 3608  16.279  12.582   9.059 -0.0065 -0.3507  0.0990
  226loPI   C3A 3609  16.210  12.739   8.769 -0.1793  0.1469 -0.2146
  226loPI   C4A 3610  16.246  12.610   8.387 -0.1919  0.0653  0.2085
  226loPI   C5A 3611  16.359  12.382   8.057 -0.4627  0.2676 -0.1519
  226loPI   C6A 3612  16.518  12.042   7.765  0.1849 -0.2784 -0.2239
  226loPI   C1B 3613  15.774  12.309   9.309  0.0654  0.2471  0.0462
  226loPI   C2B 3614  15.704  12.332   8.952  0.1024  0.0258 -0.0072
  226loPI   C3B 3615  15.843  12.298   8.496  0.2899  0.1226 -0.0150
  226loPI   C4B 3616  15.872  12.560   8.082  0.2146 -0.0564 -0.0051
  227loPI    C1 3617   5.276  17.262  10.278  0.3400 -0.4444 -0.1369
  227loPI    C2 3618   5.107  17.108  10.606 -0.0088  0.0479 -0.0745
  227loPI    C3 3619   5.440  17.326  10.637 -0.0688  0.1353 -0.0392
  227loPI   PO4 3620   5.117  17.204  10.125  0.1214  0.0334 -0.2485
  227loPI   GL1 3621   5.045  16.980   9.779  0.1006 -0.2507  0.1835
  227loPI   GL2 3622   5.253  16.993   9.586 -0.1625  0.2084 -0.1128
  227loPI   C1A 3623   4.885  17.209   9.367  0.2447 -0.1809  0.1828
  227loPI   C2A 3624   4.968  17.204   8.887  0.0829 -0.1546 -0.2778
  227loPI   C3A 3625   4.804  17.337   8.456 -0.0163  0.1401 -0.3068
  227loPI   C4A 3626   4.568  17.484   8.086  0.0616  0.3702 -0.2313
  227loPI   C5A 3627   4.231  17.551   7.699 -0.0637 -0.0995 -0.2185
  227loPI   C6A 3628   4.197  17.830   7.371  0.0394  0.1564 -0.1610
  227loPI   C1B 3629   5.185  16.860   9.148  0.0670  0.6036 -0.2996
  227loPI   C2B 3630   5.021  16.705   8.710  0.1577 -0.0350 -0.0372
  227loPI   C3B 3631   4.804  16.595   8.298  0.1465  0.0547  0.1145
  227loPI   C4B 3632   4.699  16.094   7.948 -0.1289  0.2208 -0.2050
  228loPI    C1 3633   1.749   0.922   9.767 -0.0298 -0.0005 -0.1100
  228loPI    C2 3634   1.516   1.213   9.913  0.2039  0.1866 -0.1035
  228loPI    C3 3635   1.469   0.836  10.039 -0.1346  0.2107 -0.1491
  228loPI   PO4 3636   1.732   1.107   9.425 -0.1153 -0.1013 -0.0930
  228loPI   GL1 3637   1.643   1.378   8.968  0.0074  0.0992  0.3661
  228loPI   GL2 3638   1.904   1.116   8.942  0.2094  0.0197  0.1616
  228loPI   C1A 3639   1.399   1.419   8.716  0.3195  0.1903 -0.0443
  228loPI   C2A 3640   1.281   1.460   8.341  0.1216  0.0452  0.3482
  228loPI   C3A 3641   1.255   1.767   8.016  0.3907  0.1047  0.1176
  228loPI   C4A 3642   1.036   2.237   7.870  0.2553 -0.1004 -0.2364
  228loPI   C5A 3643   1.043   2.721   7.565  0.0122 -0.0281 -0.1384
  228loPI   C6A 3644   1.164   3.074   7.758 -0.1248 -0.1664 -0.2589
  228loPI   C1B 3645   1.554   0.937   8.879 -0.2642 -0.0402  0.0288
  228loPI   C2B 3646   1.336   0.634   8.700  0.0177 -0.1808 -0.3543
  228loPI   C3B 3647   1.220   0.490   8.288 -0.1486  0.0147 -0.0420
  228loPI   C4B 3648   1.365   0.267   8.008  0.1371  0.1131  0.2124
  229loPI    C1 3649   4.297  17.927   9.609  0.0198 -0.1079 -0.1253
  229loPI    C2 3650   4.386  18.120   9.947 -0.4322  0.1662 -0.1548
  229loPI    C3 3651   4.556  18.232   9.603 -0.1727  0.0589 -0.0644
  229loPI   PO4 3652   4.220  17.706   9.703  0.0646  0.0764 -0.1217
  229loPI   GL1 3653   4.266  17.522   9.287  0.1139  0.1541  0.0029
  229loPI   GL2 3654   4.429  17.258   9.487  0.1197 -0.1664 -0.1418
  229loPI   C1A 3655   4.332  17.899   9.092 -0.2817  0.0831  0.1739
  229loPI   C2A 3656   4.632  18.111   9.084  0.0742  0.2037 -0.1322
  229loPI   C3A 3657   4.705  18.325   8.757  0.1119  0.2889  0.2275
  229loPI   C4A 3658   4.702  18.728   8.445 -0.0801  0.1412  0.1668
  229loPI   C5A 3659   4.476  18.960   8.143 -0.2027 -0.0524 -0.1152
  229loPI   C6A 3660   4.196  19.076   7.702  0.0874  0.1312  0.2233
  229loPI   C1B 3661   4.496  17.070   9.118 -0.2521 -0.0486 -0.0302
  229loPI   C2B 3662   4.553  16.993   8.734 -0.4065 -0.0024 -0.1793
  229loPI   C3B 3663   4.448  17.083   8.343  0.1430 -0.1429  0.0380
  229loPI   C4B 3664   4.430  17.004   7.957  0.0354 -0.0143  0.3127
  230loPI    C1 3665   5.326  14.675   9.994 -0.0341  0.1507 -0.1108
  230loPI    C2 3666   5.552  14.861  10.267  0.0380 -0.0196 -0.0533
  230loPI    C3 3667   5.272  14.599  10.383  0.0509 -0.0727 -0.1414
  230loPI   PO4 3668   5.369  14.739   9.807  0.1186 -0.0479 -0.2014
  230loPI   GL1 3669   5.228  14.591   9.423 -0.3445 -0.0198 -0.2813
  230loPI   GL2 3670   5.331  14.267   9.607 -0.0496  0.0362  0.3187
  230loPI   C1A 3671   5.218  14.789   9.092  0.3610  0.0891 -0.0914
  230loPI   C2A 3672   5.237  14.722   8.684  0.1634 -0.2698 -0.0610
  230loPI   C3A 3673   5.160  14.646   8.320  0.0616  0.1074  0.4850
  230loPI   C4A 3674   5.076  14.413   7.970  0.2445 -0.0319  0.1350
  230loPI   C5A 3675   4.843  14.322   7.575  0.1148 -0.1694  0.2550
  230loPI   C6A 3676   4.734  14.324   7.125  0.2040 -0.0085 -0.2387
  230loPI   C1B 3677   5.317  14.177   9.135  0.3217 -0.2015  0.3530
  230loPI   C2B 3678   5.296  14.187   8.683  0.2855  0.1449  0.0557
  230loPI   C3B 3679   5.205  14.116   8.324  0.1196 -0.3558  0.3209
  230loPI   C4B 3680   4.952  13.956   7.991  0.1927 -0.0802 -0.2293
  231loPI    C1 3681  13.950  10.587  10.099  0.2654  0.0402  0.2278
  231loPI    C2 3682  13.646  10.816  10.223  0.3021 -0.0281  0.4491
  231loPI    C3 3683  13.646  10.424  10.302  0.0040 -0.2054 -0.3418
  231loPI   PO4 3684  14.029  10.745   9.883  0.0014 -0.2315 -0.2243
  231loPI   GL1 3685  13.932  10.609   9.478 -0.0783  0.2293  0.0982
  231loPI   GL2 3686  14.242  10.651   9.367 -0.1725  0.2033 -0.0327
  231loPI   C1A 3687  13.759  10.935   9.148  0.0003  0.2439 -0.2192
  231loPI   C2A 3688  13.637  10.790   8.703  0.3888 -0.1035  0.1195
  231loPI   C3A 3689  13.333  11.020   8.513 -0.1635  0.0243  0.1043
  231loPI   C4A 3690  12.955  10.942   8.505 -0.1363 -0.0372 -0.1603
  231loPI   C5A 3691  12.549  11.043   8.587 -0.2118  0.1237 -0.3350
  231loPI   C6A 3692  12.184  10.905   8.260 -0.1283 -0.1931 -0.1985
  231loPI   C1B 3693  14.173  10.741   8.942 -0.1934 -0.0301 -0.4686
  231loPI   C2B 3694  14.090  10.738   8.524 -0.1022 -0.1365  0.3593
  231loPI   C3B 3695  14.021  10.696   7.979  0.2579 -0.0259 -0.0583
  231loPI   C4B 3696  13.671  10.674   7.673 -0.2556 -0.1590 -0.0765
  232loPI    C1 3697   3.208  13.377   9.826 -0.0875  0.0175  0.3038
  232loPI    C2 3698   3.441  13.278  10.136  0.0108  0.0812  0.2510
  232loPI    C3 3699   3.586  13.507   9.842 -0.0496 -0.0643  0.1063
  232loPI   PO4 3700   3.153  13.230   9.616  0.2659  0.1118 -0.0731
  232loPI   GL1 3701   2.940  13.530   9.417  0.2478  0.0051  0.1764
  232loPI   GL2 3702   2.581  13.550   9.360 -0.2936  0.0151 -0.1134
  232loPI   C1A 3703   2.768  13.642   8.968 -0.1484 -0.1762  0.0665
  232loPI   C2A 3704   2.935  13.804   8.524 -0.0977 -0.2142  0.3841
  232loPI   C3A 3705   2.869  14.075   8.290  0.2872  0.0496  0.4291
  232loPI   C4A 3706   2.675  14.356   8.013  0.0069  0.0995 -0.2786
  232loPI   C5A 3707   2.348  14.404   7.661  0.1973  0.2696  0.1638
  232loPI   C6A 3708   2.193  14.359   7.166  0.3650  0.2420 -0.2289
  232loPI   C1B 3709   2.558  13.167   9.020 -0.3307 -0.2219  0.0064
  232loPI   C2B 3710   2.537  12.954   8.700  0.1198  0.0478 -0.0570
  232loPI   C3B 3711   2.431  12.862   8.330  0.1951 -0.2044  0.0629
  232loPI   C4B 3712   2.629  12.991   7.966  0.2012 -0.2503 -0.0650
  233loPI    C1 3713   7.605   4.021   9.971 -0.1530 -0.0758 -0.0723
  233loPI    C2 3714   7.301   3.823  10.141 -0.1897  0.0506  0.0106
  233loPI    C3 3715   7.492   4.110  10.344  0.2026 -0.2517  0.0815
  233loPI   PO4 3716   7.590   3.922   9.747  0.2292  0.1192  0.1518
  233loPI   GL1 3717   7.865   4.191   9.392  0.0111  0.0576  0.1050
  233loPI   GL2 3718   7.710   4.395   9.231 -0.2836 -0.1997  0.2691
  233loPI   C1A 3719   7.599   3.951   9.069  0.0963  0.3539 -0.2920
  233loPI   C2A 3720   7.442   3.886   8.703 -0.0244 -0.0394  0.0255
  233loPI   C3A 3721   7.300   3.700   8.374  0.0362  0.2386 -0.2311
  233loPI   C4A 3722   7.040   3.510   8.066 -0.1213 -0.0299  0.1472
  233loPI   C5A 3723   6.972   3.488   7.569  0.0198 -0.0397 -0.0276
  233loPI   C6A 3724   6.686   3.405   7.123  0.0213  0.3647 -0.1044
  233loPI   C1B 3725   7.683   4.323   8.772 -0.0382  0.2015 -0.0481
  233loPI   C2B 3726   7.641   4.271   8.405 -0.2615  0.0296 -0.0056
  233loPI   C3B 3727   7.470   4.179   7.965  0.3122 -0.0090 -0.0670
  233loPI   C4B 3728   7.328   4.560   7.750 -0.1340 -0.0023  0.0707
  234loPI    C1 3729  16.097  10.371  10.367  0.0305 -0.0934 -0.0743
  234loPI    C2 3730  15.697  10.350  10.377  0.0222  0.0157 -0.1595
  234loPI    C3 3731  15.901  10.444  10.709 -0.0088 -0.2526 -0.0623
  234loPI   PO4 3732  16.166  10.504  10.087  0.0181  0.0950 -0.0339
  234loPI   GL1 3733  16.158  10.539   9.653 -0.2916 -0.2047 -0.2831
  234loPI   GL2 3734  16.122  10.176   9.676 -0.2644 -0.1018 -0.2209
  234loPI   C1A 3735  16.312  10.564   9.189  0.0002 -0.1678  0.3920
  234loPI   C2A 3736  16.433  10.350   8.842 -0.1220 -0.0410  0.2711
  234loPI   C3A 3737  16.407  10.522   8.431 -0.3512 -0.2588  0.1369
  234loPI   C4A 3738  16.380  10.596   8.017 -0.3331 -0.2936  0.1595
  234loPI   C5A 3739  16.220  10.796   7.655  0.3685  0.1793 -0.3170
  234loPI   C6A 3740  15.879  10.923   7.444 -0.1302  0.0432  0.1743
  234loPI   C1B 3741  16.145  10.116   9.279  0.3279 -0.3333  0.1179
  234loPI   C2B 3742  16.047  10.039   8.866 -0.3353  0.0313  0.0227
  234loPI   C3B 3743  16.003  10.200   8.416  0.0233 -0.4321  0.1255
  234loPI   C4B 3744  15.912  10.136   7.951  0.0652 -0.0411 -0.1410
  235loPI    C1 3745  15.842  14.263  10.452 -0.0922  0.0102 -0.1304
  235loPI    C2 3746  15.474  14.248  10.609 -0.0581  0.0805 -0.0428
  235loPI    C3 3747  15.676  14.593  10.605  0.0208  0.0344 -0.0589
  235loPI   PO4 3748  15.871  14.101  10.319 -0.1447  0.3772  0.1291
  235loPI   GL1 3749  15.883  13.741   9.987  0.0092  0.0916 -0.3626
  235loPI   GL2 3750  15.910  13.356   9.976 -0.1417 -0.4006  0.1784
  235loPI   C1A 3751  15.890  13.832   9.589  0.0037 -0.1653 -0.0503
  235loPI   C2A 3752  16.009  13.666   9.223  0.1048 -0.1448  0.0639
  235loPI   C3A 3753  15.999  13.786   8.770 -0.1008 -0.0339  0.1100
  235loPI   C4A 3754  15.853  14.052   8.372 -0.3602  0.0133  0.1537
  235loPI   C5A 3755  16.017  14.226   8.141 -0.1485 -0.0516  0.1057
  235loPI   C6A 3756  16.090  14.341   7.699 -0.0801 -0.1990  0.1226
  235loPI   C1B 3757  16.172  13.232   9.515 -0.1354 -0.0545  0.0194
  235loPI   C2B 3758  16.138  13.224   9.093 -0.1954  0.0372  0.2729
  235loPI   C3B 3759  16.165  13.177   8.683  0.1573  0.1354  0.1331
  235loPI   C4B 3760  16.362  13.104   8.395  0.3004 -0.3117 -0.0055
  236loPI    C1 3761  11.563   8.323  10.064 -0.2603  0.0800  0.3564
  236loPI    C2 3762  11.701   8.230  10.428 -0.1326  0.0110  0.2910
  236loPI    C3 3763  11.376   8.047  10.284 -0.0984 -0.0667  0.3121
  236loPI   PO4 3764  11.673   8.366   9.907  0.3661 -0.2486  0.0858
  236loPI   GL1 3765  11.664   8.418   9.509  0.0759 -0.2820 -0.0104
  236loPI   GL2 3766  11.434   8.592   9.535  0.1463  0.0381  0.1089
  236loPI   C1A 3767  11.510   8.421   9.056  0.2074  0.1148  0.3629
  236loPI   C2A 3768  11.363   8.487   8.686 -0.1361  0.0344  0.0759
  236loPI   C3A 3769  11.159   8.386   8.196  0.0936  0.3975  0.1114
  236loPI   C4A 3770  11.229   8.394   7.825  0.3080  0.1387  0.1150
  236loPI   C5A 3771  11.130   8.183   7.532 -0.2453 -0.3518  0.1596
  236loPI   C6A 3772  10.925   7.989   7.382  0.0974  0.1015 -0.4532
  236loPI   C1B 3773  11.323   8.889   9.211 -0.0898  0.1632  0.0847
  236loPI   C2B 3774  11.275   8.939   8.735  0.1881  0.2225  0.1855
  236loPI   C3B 3775  11.131   8.893   8.369 -0.0374 -0.0540  0.1777
  236loPI   C4B 3776  10.977   8.843   7.954  0.2564 -0.0784  0.0884
  237loPI    C1 3777  14.354  17.703  10.699  0.0866 -0.2368 -0.2799
  237loPI    C2 3778  14.739  17.786  10.768  0.0244 -0.0014 -0.2062
  237loPI    C3 3779  14.517  17.616  11.053 -0.0302  0.2429 -0.1005
  237loPI   PO4 3780  14.410  17.574  10.478  0.2521  0.0041  0.1820
  237loPI   GL1 3781  14.434  17.523  10.033  0.1103 -0.0313 -0.0900
  237loPI   GL2 3782  14.141  17.524  10.071 -0.1129 -0.1265  0.1456
  237loPI   C1A 3783  14.403  17.535   9.596 -0.1756  0.2514  0.1089
  237loPI   C2A 3784  14.489  17.373   9.237 -0.4717  0.1246  0.3742
  237loPI   C3A 3785  14.397  17.237   8.767  0.0524  0.0248  0.0138
  237loPI   C4A 3786  14.731  17.281   8.421 -0.0711  0.0591  0.3426
  237loPI   C5A 3787  14.884  17.238   8.073 -0.1670  0.1139 -0.0802
  237loPI   C6A 3788  15.083  16.853   7.868  0.0907  0.1766  0.1064
  237loPI   C1B 3789  14.231  17.910   9.806  0.0982 -0.1818 -0.2134
  237loPI   C2B 3790  14.341  18.359   9.657 -0.0989 -0.3707  0.2733
  237loPI   C3B 3791  14.446  18.591   9.292 -0.0359 -0.0905  0.1552
  237loPI   C4B 3792  14.506  18.461   8.981  0.0214  0.2225  0.1916
  238loPI    C1 3793   3.819  10.810  10.073  0.0262 -0.0630  0.2826
  238loPI    C2 3794   3.928  11.074  10.354  0.2745  0.1777 -0.0313
  238loPI    C3 3795   3.571  11.107  10.177  0.0730 -0.0373  0.3219
  238loPI   PO4 3796   3.915  10.755   9.850 -0.1392 -0.0021 -0.1765
  238loPI   GL1 3797   3.888  10.824   9.418 -0.0396  0.0407 -0.2803
  238loPI   GL2 3798   4.063  11.106   9.376 -0.1685  0.0107 -0.0267
  238loPI   C1A 3799   3.802  10.511   9.140 -0.1739  0.1528  0.0166
  238loPI   C2A 3800   3.561  10.525   8.753  0.0293 -0.0332 -0.2670
  238loPI   C3A 3801   3.563  10.679   8.323 -0.0261 -0.0960  0.1002
  238loPI   C4A 3802   3.460  10.794   7.957  0.1680  0.3967 -0.0100
  238loPI   C5A 3803   3.691  10.976   7.614 -0.1214  0.1214  0.0690
  238loPI   C6A 3804   4.082  11.159   7.761 -0.3921  0.0294  0.1465
  238loPI   C1B 3805   3.926  11.113   8.903 -0.0203 -0.1430  0.0278
  238loPI   C2B 3806   3.995  11.147   8.473  0.0468 -0.0920  0.1904
  238loPI   C3B 3807   3.767  11.155   8.187  0.4053  0.0284  0.0366
  238loPI   C4B 3808   3.548  11.416   7.956  0.2183  0.3079  0.0845
  239loPI    C1 3809   1.739   3.518   9.710  0.2887 -0.1206 -0.0981
  239loPI    C2 3810   1.495   3.201   9.724 -0.0329  0.1138 -0.2487
  239loPI    C3 3811   1.623   3.371  10.063 -0.1172  0.0172 -0.1678
  239loPI   PO4 3812   1.705   3.570   9.445  0.0561  0.0709  0.0198
  239loPI   GL1 3813   1.375   3.527   9.212  0.3317  0.1438  0.1138
  239loPI   GL2 3814   1.223   3.346   9.338 -0.1243 -0.2919 -0.0800
  239loPI   C1A 3815   1.436   3.614   8.746  0.0453  0.1309  0.3985
  239loPI   C2A 3816   1.217   3.713   8.424  0.1039 -0.0057 -0.2275
  239loPI   C3A 3817   1.244   3.749   8.040  0.6073 -0.0496  0.1867
  239loPI   C4A 3818   1.023   3.897   7.723 -0.4493  0.0369  0.1491
  239loPI   C5A 3819   0.872   4.059   7.363 -0.1904  0.0723  0.1146
  239loPI   C6A 3820   0.485   4.176   7.228  0.0752 -0.0496 -0.0637
  239loPI   C1B 3821   1.163   3.197   8.954 -0.0472  0.5773  0.1350
  239loPI   C2B 3822   1.148   3.101   8.585 -0.1971  0.4293  0.2206
  239loPI   C3B 3823   1.051   3.249   8.223  0.0805 -0.0305 -0.0886
  239loPI   C4B 3824   0.830   3.451   7.840 -0.0712  0.1560  0.2387
  240loPI    C1 3825  13.456   2.837  10.125 -0.0352 -0.0356  0.1048
  240loPI    C2 3826  13.341   2.720  10.490  0.0036 -0.0884  0.1003
  240loPI    C3 3827  13.726   2.801  10.418 -0.0352  0.1275  0.1263
  240loPI   PO4 3828  13.475   2.736   9.990  0.0246  0.0479 -0.1143
  240loPI   GL1 3829  13.389   2.488   9.690  0.0210  0.1017  0.3457
  240loPI   GL2 3830  13.096   2.244   9.669  0.0569 -0.1885  0.0785
  240loPI   C1A 3831  13.438   2.144   9.266 -0.2907  0.1515 -0.1754
  240loPI   C2A 3832  13.445   2.241   8.900 -0.1421 -0.1007  0.2396
  240loPI   C3A 3833  13.663   2.474   8.572 -0.1500  0.5230  0.1788
  240loPI   C4A 3834  13.621   2.627   8.141  0.0329  0.0495  0.3380
  240loPI   C5A 3835  13.553   2.468   7.819 -0.1511  0.0255  0.0154
  240loPI   C6A 3836  13.506   2.011   7.696  0.0364  0.0489  0.1973
  240loPI   C1B 3837  12.979   2.328   9.189 -0.0550  0.2063  0.3291
  240loPI   C2B 3838  12.914   2.385   8.799  0.1099 -0.2196  0.1047
  240loPI   C3B 3839  13.006   2.526   8.371 -0.1805 -0.2413  0.1435
  240loPI   C4B 3840  13.190   2.733   7.943  0.1468 -0.4698 -0.1337
  241loPI    C1 3841  15.563  16.743  10.707  0.1270 -0.1313  0.1040
  241loPI    C2 3842  15.289  16.647  10.981  0.1958 -0.0444  0.2039
  241loPI    C3 3843  15.424  17.022  10.956 -0.1788  0.0687 -0.2793
  241loPI   PO4 3844  15.340  16.687  10.503 -0.0304  0.1224  0.1356
  241loPI   GL1 3845  15.255  16.689   9.975 -0.4723 -0.1359 -0.0287
  241loPI   GL2 3846  15.311  16.920   9.801  0.2074 -0.1584  0.1821
  241loPI   C1A 3847  15.064  16.384   9.667 -0.0611  0.0970  0.3566
  241loPI   C2A 3848  15.281  15.995   9.392  0.2907  0.0069 -0.1500
  241loPI   C3A 3849  15.417  15.873   9.029  0.1450  0.0607 -0.1003
  241loPI   C4A 3850  15.623  15.855   8.771 -0.1045 -0.2102  0.0376
  241loPI   C5A 3851  15.904  15.788   8.417  0.5393  0.0844  0.0329
  241loPI   C6A 3852  16.116  15.379   8.112 -0.0383  0.0876 -0.2118
  241loPI   C1B 3853  15.382  16.858   9.341 -0.0376  0.1018  0.0388
  241loPI   C2B 3854  15.380  16.746   8.893  0.1232  0.2624 -0.1750
  241loPI   C3B 3855  15.572  16.805   8.533  0.3569 -0.1922 -0.2530
  241loPI   C4B 3856  15.782  16.819   8.177 -0.1198  0.0975 -0.1567
  242loPI    C1 3857  10.118  12.226  10.055 -0.0864  0.3382 -0.1167
  242loPI    C2 3858   9.722  12.238  10.007 -0.1739 -0.1111  0.3856
  242loPI    C3 3859   9.891  12.426  10.317 -0.0106 -0.0695  0.2728
  242loPI   PO4 3860  10.150  11.987   9.890 -0.0461  0.0798 -0.0226
  242loPI   GL1 3861  10.372  11.990   9.516  0.2625 -0.2944  0.0469
  242loPI   GL2 3862  10.708  11.902   9.501 -0.0186  0.0076 -0.2800
  242loPI   C1A 3863  10.232  11.997   9.089  0.1174 -0.0962 -0.1229
  242loPI   C2A 3864  10.206  12.066   8.671  0.3936 -0.2312 -0.1664
  242loPI   C3A 3865  10.176  11.987   8.214  0.2225  0.1110  0.0186
  242loPI   C4A 3866   9.988  11.864   7.744  0.0214 -0.0518  0.1106
  242loPI   C5A 3867   9.834  11.767   7.399  0.1686 -0.2367  0.0506
  242loPI   C6A 3868   9.409  11.936   7.240 -0.2106  0.1548  0.1024
  242loPI   C1B 3869  10.722  11.985   9.120 -0.1744  0.1503 -0.3237
  242loPI   C2B 3870  10.664  11.950   8.708 -0.0306  0.1493  0.0045
  242loPI   C3B 3871  10.676  12.022   8.231 -0.2768  0.1222  0.3353
  242loPI   C4B 3872  10.628  11.924   7.802 -0.1711 -0.3471 -0.0598
  243loPI    C1 3873  16.070  18.299  10.270 -0.0488  0.0061 -0.0633
  243loPI    C2 3874  16.303  18.570  10.091 -0.0930  0.0170 -0.1042
  243loPI    C3 3875  16.436  18.196  10.144 -0.1098 -0.0073 -0.2310
  243loPI   PO4 3876  15.863  18.352  10.163 -0.0985  0.0178  0.2191
  243loPI   GL1 3877  15.835  18.518   9.817 -0.1917 -0.1123  0.1191
  243loPI   GL2 3878  15.910  18.820   9.909  0.1564  0.0229 -0.5365
  243loPI   C1A 3879  15.715  18.170   9.458  0.1591 -0.0445  0.2594
  243loPI   C2A 3880  15.913  18.074   9.012  0.0459  0.0938 -0.2987
  243loPI   C3A 3881  16.049  17.906   8.547  0.0516 -0.2183 -0.2023
  243loPI   C4A 3882  16.123  17.805   8.069 -0.0583 -0.0647  0.3591
  243loPI   C5A 3883  16.041  17.862   7.587  0.1297 -0.2854  0.2640
  243loPI   C6A 3884  15.965  17.830   7.073 -0.1285 -0.0825  0.0002
  243loPI   C1B 3885  16.172  18.798   9.582 -0.1043  0.1257 -0.1478
  243loPI   C2B 3886  16.075  18.512   9.236  0.3145  0.1350 -0.0018
  243loPI   C3B 3887  16.124  18.413   8.759 -0.0984  0.0193  0.1028
  243loPI   C4B 3888  16.303  18.495   8.418 -0.1372  0.0315  0.1042
  244loPI    C1 3889   1.255  16.578  10.271 -0.0917 -0.1093 -0.0907
  244loPI    C2 3890   1.650  16.545  10.323 -0.1065  0.1030  0.1788
  244loPI    C3 3891   1.399  16.371  10.582 -0.1890  0.1314  0.1182
  244loPI   PO4 3892   1.243  16.512  10.007  0.0345  0.2269 -0.1520
  244loPI   GL1 3893   1.283  16.315   9.583  0.3295  0.0283 -0.0652
  244loPI   GL2 3894   0.934  16.286   9.529 -0.2838 -0.1055  0.0210
  244loPI   C1A 3895   1.318  16.076   9.124 -0.2845  0.0362  0.1372
  244loPI   C2A 3896   1.285  16.273   8.689  0.0292 -0.1264 -0.3228
  244loPI   C3A 3897   0.972  16.312   8.213  0.1199  0.1412 -0.1284
  244loPI   C4A 3898   0.669  16.141   8.013  0.2979 -0.0304  0.3818
  244loPI   C5A 3899   0.512  15.820   7.860 -0.0434 -0.0066  0.0798
  244loPI   C6A 3900   0.683  15.466   7.903 -0.0772  0.1137  0.0078
  244loPI   C1B 3901   1.043  16.540   9.099 -0.1950 -0.0013  0.1471
  244loPI   C2B 3902   0.750  16.624   8.731  0.0549 -0.0145  0.1347
  244loPI   C3B 3903   0.678  16.743   8.269 -0.2461  0.3626 -0.1347
  244loPI   C4B 3904   0.609  16.655   7.809  0.1740 -0.0428  0.1240
  245loPI    C1 3905  17.010  14.603  10.772 -0.1410 -0.0227 -0.2193
  245loPI    C2 3906  17.217  14.261  10.753  0.0805  0.1073 -0.1712
  245loPI    C3 3907  17.409  14.611  10.772 -0.1445  0.2302 -0.1224
  245loPI   PO4 3908  16.783  14.561  10.449  0.2959 -0.2859  0.0363
  245loPI   GL1 3909  16.612  14.802  10.129  0.1469  0.0308 -0.1564
  245loPI   GL2 3910  16.461  14.588   9.976 -0.3191  0.1838  0.1555
  245loPI   C1A 3911  16.688  14.930   9.636  0.0523  0.1498 -0.3241
  245loPI   C2A 3912  16.971  15.139   9.330  0.3842  0.0684  0.0943
  245loPI   C3A 3913  17.056  15.208   8.896 -0.0012  0.3448  0.1560
  245loPI   C4A 3914  16.913  14.964   8.475 -0.1445 -0.4020  0.0380
  245loPI   C5A 3915  16.568  14.883   8.273 -0.0132 -0.1747 -0.2100
  245loPI   C6A 3916  16.154  14.862   8.058  0.0609  0.0874 -0.0852
  245loPI   C1B 3917  16.665  14.418   9.532  0.0865 -0.3681 -0.2520
  245loPI   C2B 3918  16.711  14.217   9.222 -0.2247 -0.2380  0.0243
  245loPI   C3B 3919  16.773  14.039   8.775  0.5707 -0.0097 -0.1042
  245loPI   C4B 3920  16.950  13.725   8.516 -0.1117  0.0667 -0.0516
  246loPI    C1 3921   5.928   1.250   9.938 -0.2083 -0.1680  0.1248
  246loPI    C2 3922   5.698   1.409  10.225 -0.1989 -0.0927  0.0907
  246loPI    C3 3923   5.924   1.088  10.304 -0.3742 -0.2147  0.1033
  246loPI   PO4 3924   5.808   1.253   9.726 -0.0419  0.3153 -0.1206
  246loPI   GL1 3925   5.745   1.056   9.341 -0.1305  0.0042  0.2123
  246loPI   GL2 3926   6.035   0.977   9.380 -0.0164 -0.2483  0.0423
  246loPI   C1A 3927   5.933   1.294   8.995  0.1835 -0.0547  0.1040
  246loPI   C2A 3928   6.175   1.467   8.725 -0.2869 -0.0958  0.2932
  246loPI   C3A 3929   6.543   1.371   8.359  0.0293 -0.1045  0.2441
  246loPI   C4A 3930   6.788   0.975   8.108  0.1087 -0.4465  0.3670
  246loPI   C5A 3931   6.739   0.581   7.823  0.0816 -0.3070  0.0665
  246loPI   C6A 3932   7.027   0.481   7.629  0.1894  0.2215 -0.0305
  246loPI   C1B 3933   6.225   0.919   8.940 -0.0250 -0.0078 -0.1294
  246loPI   C2B 3934   6.080   0.941   8.561  0.0086  0.4473  0.4119
  246loPI   C3B 3935   6.157   0.956   8.145 -0.0040  0.0326  0.0929
  246loPI   C4B 3936   6.185   1.161   7.836 -0.2101  0.1299 -0.0452
  247loPI    C1 3937   9.808  17.446  10.215 -0.0663 -0.0536  0.1969
  247loPI    C2 3938   9.456  17.500  10.397 -0.0602 -0.0031  0.1940
  247loPI    C3 3939   9.689  17.192  10.500 -0.1163 -0.0508  0.1787
  247loPI   PO4 3940   9.923  17.659  10.219  0.0583 -0.1279 -0.1958
  247loPI   GL1 3941   9.978  17.862   9.943  0.1568 -0.2023 -0.0486
  247loPI   GL2 3942  10.266  17.800   9.793  0.3343 -0.1031  0.1765
  247loPI   C1A 3943   9.690  17.820   9.607 -0.2619 -0.1585  0.0556
  247loPI   C2A 3944   9.328  17.635   9.453 -0.1171  0.2354  0.1387
  247loPI   C3A 3945   9.020  17.719   9.087  0.1235 -0.0638 -0.2182
  247loPI   C4A 3946   9.027  17.553   8.602 -0.0288 -0.0852  0.0676
  247loPI   C5A 3947   9.247  17.580   8.111 -0.0918  0.1619 -0.0323
  247loPI   C6A 3948   9.400  17.508   7.703  0.2638 -0.4337 -0.1831
  247loPI   C1B 3949  10.227  17.933   9.401 -0.3454  0.0163 -0.3153
  247loPI   C2B 3950   9.984  17.961   9.067  0.1225 -0.0081  0.0557
  247loPI   C3B 3951   9.820  17.913   8.616 -0.2600 -0.0414  0.3044
  247loPI   C4B 3952   9.740  18.166   8.341 -0.0208 -0.0640 -0.1408
  248loPI    C1 3953  13.313  12.802   9.940  0.0584 -0.1401  0.0459
  248loPI    C2 3954  13.142  13.082  10.169 -0.1688 -0.1660 -0.0893
  248loPI    C3 3955  13.490  13.158   9.988 -0.0740 -0.0840  0.1241
  248loPI   PO4 3956  13.105  12.571   9.928 -0.2761  0.1783  0.2576
  248loPI   GL1 3957  12.781  12.623   9.632  0.0605 -0.1931 -0.0404
  248loPI   GL2 3958  12.373  12.657   9.574  0.2460  0.0550 -0.0435
  248loPI   C1A 3959  12.882  12.817   9.207  0.2690  0.4574  0.0297
  248loPI   C2A 3960  12.814  12.905   8.926  0.5408 -0.1089  0.1069
  248loPI   C3A 3961  12.598  12.906   8.493 -0.4917  0.2637 -0.0851
  248loPI   C4A 3962  12.290  12.947   8.138 -0.4380  0.0490  0.1394
  248loPI   C5A 3963  12.317  13.064   7.699  0.1953 -0.2721 -0.2061
  248loPI   C6A 3964  12.703  13.161   7.564  0.0221  0.0066  0.1678
  248loPI   C1B 3965  12.492  12.537   9.211  0.2578  0.4221 -0.0673
  248loPI   C2B 3966  12.297  12.679   8.959 -0.3670  0.2683  0.1492
  248loPI   C3B 3967  12.083  12.745   8.548 -0.1919  0.1675  0.1532
  248loPI   C4B 3968  11.804  12.594   8.257  0.0461 -0.0304  0.1117
  249loPI    C1 3969  11.729  18.529  10.787 -0.0187 -0.0630 -0.1925
  249loPI    C2 3970  11.493  18.849  10.832 -0.0173 -0.0708 -0.1278
  249loPI    C3 3971  11.472  18.547  11.093 -0.1114 -0.1820 -0.2624
  249loPI   PO4 3972  12.011  18.557  10.687 -0.0127 -0.0488  0.0221
  249loPI   GL1 3973  12.139  18.501  10.238 -0.2110  0.0595  0.0305
  249loPI   GL2 3974  12.217  18.738  10.104  0.2933  0.1493  0.0293
  249loPI   C1A 3975  12.006  18.352   9.703 -0.0144 -0.0931  0.0998
  249loPI   C2A 3976  11.993  18.653   9.453  0.4465 -0.0039 -0.3537
  249loPI   C3A 3977  11.736  18.644   9.136  0.0113 -0.0174  0.3387
  249loPI   C4A 3978  11.616  18.876   8.826 -0.2065 -0.1953 -0.3948
  249loPI   C5A 3979  11.793  18.910   8.390 -0.1317 -0.1351  0.1526
  249loPI   C6A 3980  11.663  19.150   7.991 -0.4427  0.0128 -0.0706
  249loPI   C1B 3981  11.834  18.782   9.928 -0.0017  0.2311  0.1673
  249loPI   C2B 3982  11.498  18.737   9.702 -0.2288 -0.1053  0.1068
  249loPI   C3B 3983  11.281  18.718   9.266  0.2377 -0.0984 -0.0015
  249loPI   C4B 3984  10.977  18.922   8.915  0.1909  0.0288  0.1795
  250loPI    C1 3985  10.640  15.999  10.331  0.1525 -0.2343 -0.1044
  250loPI    C2 3986  10.249  16.076  10.300  0.1350 -0.2446  0.0792
  250loPI    C3 3987  10.377  15.788  10.547  0.2977  0.1636  0.4862
  250loPI   PO4 3988  10.684  16.020  10.064 -0.0736  0.0256  0.2035
  250loPI   GL1 3989  10.651  16.271   9.750  0.1572  0.0946  0.1341
  250loPI   GL2 3990  10.722  16.541   9.596 -0.1811 -0.0854 -0.1618
  250loPI   C1A 3991  10.886  16.162   9.268  0.0111  0.0603 -0.0991
  250loPI   C2A 3992  11.007  16.053   8.831  0.1012 -0.0836  0.2927
  250loPI   C3A 3993  11.062  16.135   8.341  0.2023  0.0453  0.0082
  250loPI   C4A 3994  11.248  16.378   8.007  0.0409  0.1673 -0.0948
  250loPI   C5A 3995  11.307  16.105   7.681  0.1118  0.1126  0.1922
  250loPI   C6A 3996  11.263  16.013   7.201  0.1561  0.0397  0.1766
  250loPI   C1B 3997  10.969  16.673   9.228 -0.3178  0.1640 -0.0743
  250loPI   C2B 3998  11.279  16.579   8.934 -0.2381  0.3707  0.1746
  250loPI   C3B 3999  11.464  16.608   8.546 -0.1579  0.0090  0.2033
  250loPI   C4B 4000  11.646  16.694   8.214  0.0857  0.1781 -0.0409
  251loPI    C1 4001  13.152  10.459   9.993  0.2422  0.0226  0.0834
  251loPI    C2 4002  13.150  10.289  10.355 -0.0305 -0.0065  0.0701
  251loPI    C3 4003  12.819  10.463  10.214  0.1117  0.1199 -0.1125
  251loPI   PO4 4004  13.250  10.262   9.828 -0.0503  0.1567 -0.2768
  251loPI   GL1 4005  13.508  10.280   9.334 -0.0529  0.0497 -0.0546
  251loPI   GL2 4006  13.124  10.126   9.362 -0.0873  0.3722 -0.2013
  251loPI   C1A 4007  13.392  10.018   8.927 -0.5358  0.1452 -0.0714
  251loPI   C2A 4008  13.284   9.991   8.512  0.0842  0.1596  0.0134
  251loPI   C3A 4009  13.508   9.942   8.245 -0.0330 -0.0853  0.0881
  251loPI   C4A 4010  13.865   9.643   8.072  0.0242  0.1209 -0.1376
  251loPI   C5A 4011  14.143   9.725   7.805 -0.1194 -0.2445  0.0616
  251loPI   C6A 4012  14.115   9.721   7.393  0.1292 -0.1192  0.3559
  251loPI   C1B 4013  12.906  10.129   8.955  0.2143  0.1422  0.0608
  251loPI   C2B 4014  12.722   9.996   8.457 -0.3886  0.0266 -0.1199
  251loPI   C3B 4015  12.588   9.892   8.103  0.0846  0.1568  0.0791
  251loPI   C4B 4016  12.911   9.866   7.847  0.1078 -0.0554 -0.0565
  252loPI    C1 4017  11.959   9.976   9.988 -0.0423 -0.2139  0.0339
  252loPI    C2 4018  12.004  10.245  10.281 -0.0180 -0.0135 -0.1519
  252loPI    C3 4019  11.638  10.150  10.151 -0.0162  0.1090 -0.2488
  252loPI   PO4 4020  12.211   9.968   9.845 -0.1838 -0.3606  0.2744
  252loPI   GL1 4021  12.541   9.865   9.454 -0.1206  0.2706  0.1329
  252loPI   GL2 4022  12.297   9.649   9.487 -0.3803  0.2175  0.3276
  252loPI   C1A 4023  12.517   9.753   9.052 -0.0390  0.2812  0.1576
  252loPI   C2A 4024  12.434   9.634   8.666 -0.1249 -0.1874 -0.0417
  252loPI   C3A 4025  12.208   9.636   8.283 -0.2087 -0.2424 -0.0045
  252loPI   C4A 4026  11.738   9.765   8.151 -0.1032 -0.2883 -0.0969
  252loPI   C5A 4027  11.492   9.859   7.858  0.0304  0.3301 -0.2195
  252loPI   C6A 4028  11.154  10.112   7.674 -0.2957 -0.0953  0.0840
  252loPI   C1B 4029  12.040   9.622   9.169 -0.2147  0.3128  0.2291
  252loPI   C2B 4030  11.823   9.654   8.844 -0.0015  0.1526 -0.0967
  252loPI   C3B 4031  11.529   9.310   8.544  0.0104  0.0374 -0.1210
  252loPI   C4B 4032  11.453   9.249   8.081 -0.2874  0.2168 -0.1579
  253loPI    C1 4033   0.591  15.493  10.167 -0.1995  0.2515 -0.0076
  253loPI    C2 4034   0.915  15.407  10.384 -0.1996  0.0514 -0.0850
  253loPI    C3 4035   0.799  15.787  10.341 -0.0868  0.1083  0.1018
  253loPI   PO4 4036   0.660  15.295   9.996  0.2156  0.1670  0.1077
  253loPI   GL1 4037   0.618  15.398   9.624  0.0519 -0.0983 -0.1080
  253loPI   GL2 4038   0.369  15.093   9.608 -0.0844 -0.3235 -0.0384
  253loPI   C1A 4039   0.776  15.356   9.157  0.1699 -0.0670 -0.3124
  253loPI   C2A 4040   0.694  15.326   8.746  0.0949  0.2765  0.4677
  253loPI   C3A 4041   0.916  15.240   8.301  0.0246 -0.2246  0.0934
  253loPI   C4A 4042   1.038  14.956   8.088  0.1651  0.0206  0.3217
  253loPI   C5A 4043   1.107  15.222   7.643 -0.0481  0.2150 -0.1550
  253loPI   C6A 4044   1.498  15.568   7.658  0.0850  0.2060  0.2357
  253loPI   C1B 4045   0.106  15.310   9.388 -0.0974  0.1067 -0.0588
  253loPI   C2B 4046  -0.045  15.547   9.034  0.2026 -0.0485 -0.1274
  253loPI   C3B 4047  -0.449  15.624   8.745 -0.0715  0.0269  0.3665
  253loPI   C4B 4048  -0.930  15.629   8.608  0.0419  0.0560  0.4220
  254loPI    C1 4049   3.658   7.861   9.764  0.0383  0.0802  0.0078
  254loPI    C2 4050   3.427   7.801  10.086 -0.1083 -0.0389 -0.1176
  254loPI    C3 4051   3.535   7.491   9.857  0.3277 -0.0106  0.0395
  254loPI   PO4 4052   3.492   8.085   9.609 -0.1234  0.2828 -0.1577
  254loPI   GL1 4053   3.246   8.128   9.250 -0.1906  0.1388  0.1903
  254loPI   GL2 4054   3.532   7.998   9.102 -0.2014  0.1402  0.3273
  254loPI   C1A 4055   3.231   8.360   8.825  0.0260 -0.1886  0.1615
  254loPI   C2A 4056   3.296   8.312   8.421  0.0723  0.4782  0.2164
  254loPI   C3A 4057   3.306   8.361   8.017 -0.0410 -0.0821  0.4096
  254loPI   C4A 4058   3.379   8.625   7.659 -0.3655 -0.2240  0.1060
  254loPI   C5A 4059   3.691   8.818   7.454  0.0553  0.0272 -0.1273
  254loPI   C6A 4060   3.857   8.887   7.042 -0.0798  0.1570 -0.1622
  254loPI   C1B 4061   3.623   7.894   8.708  0.1886 -0.1224  0.3993
  254loPI   C2B 4062   3.676   7.885   8.290 -0.1236 -0.0840 -0.0180
  254loPI   C3B 4063   3.805   7.835   7.870 -0.0793 -0.1044  0.0063
  254loPI   C4B 4064   3.922   7.877   7.454  0.0530  0.2619  0.1082
  255loPI    C1 4065  12.142   2.356  10.384  0.2303 -0.1611  0.0835
  255loPI    C2 4066  12.183   2.219  10.757  0.0666  0.1911  0.2349
  255loPI    C3 4067  12.322   2.582  10.661  0.1715  0.0736 -0.0669
  255loPI   PO4 4068  12.194   2.094  10.182 -0.0645  0.4997 -0.0925
  255loPI   GL1 4069  11.909   1.685   9.943  0.2807  0.0203 -0.1591
  255loPI   GL2 4070  11.979   1.950   9.734 -0.0487  0.0140  0.1834
  255loPI   C1A 4071  11.715   1.513   9.634  0.1698  0.2419 -0.2015
  255loPI   C2A 4072  11.621   1.753   9.252  0.0380  0.1950 -0.5235
  255loPI   C3A 4073  11.789   1.854   8.851  0.0420 -0.0774 -0.2713
  255loPI   C4A 4074  11.964   1.855   8.369  0.2195 -0.0398  0.0283
  255loPI   C5A 4075  12.001   1.965   8.073 -0.0901 -0.2180 -0.2509
  255loPI   C6A 4076  12.104   2.065   7.686  0.6378 -0.1829  0.2682
  255loPI   C1B 4077  11.988   2.121   9.283 -0.0795  0.2099  0.0654
  255loPI   C2B 4078  11.913   2.504   8.975 -0.0141  0.2180 -0.1602
  255loPI   C3B 4079  11.613   2.663   8.529  0.0910  0.0020 -0.1449
  255loPI   C4B 4080  11.375   2.618   8.089 -0.2530  0.1237  0.2986
  256loPI    C1 4081   1.316  11.651  10.193 -0.1387 -0.0270  0.0346
  256loPI    C2 4082   1.463  11.429  10.492 -0.1610 -0.0783  0.0076
  256loPI    C3 4083   1.211  11.730  10.571 -0.1511 -0.0788  0.0420
  256loPI   PO4 4084   1.489  11.623   9.984 -0.1793  0.0171 -0.0587
  256loPI   GL1 4085   1.569  11.674   9.569 -0.0169  0.0589 -0.1450
  256loPI   GL2 4086   1.372  11.521   9.353  0.0983 -0.0004 -0.1329
  256loPI   C1A 4087   1.432  12.075   9.309 -0.2692 -0.0465 -0.2522
  256loPI   C2A 4088   1.490  12.302   9.010  0.0221  0.2857  0.1709
  256loPI   C3A 4089   1.134  12.576   8.879 -0.1298  0.2481  0.3399
  256loPI   C4A 4090   1.041  12.852   8.515  0.0535 -0.0980  0.2645
  256loPI   C5A 4091   0.984  13.066   8.105 -0.2260 -0.0594 -0.1943
  256loPI   C6A 4092   0.711  13.410   8.001 -0.1585 -0.5638  0.4185
  256loPI   C1B 4093   1.279  11.469   8.931  0.1158 -0.0348  0.0685
  256loPI   C2B 4094   1.235  11.477   8.495 -0.0254 -0.1779  0.2509
  256loPI   C3B 4095   1.345  11.732   8.265  0.1342 -0.1357  0.2712
  256loPI   C4B 4096   1.423  11.790   7.801  0.0131  0.1096  0.2081
  257loPI    C1 4097   9.037   7.954  10.442 -0.0410 -0.0226 -0.0901
  257loPI    C2 4098   8.788   8.215  10.616  0.1377  0.1531 -0.0947
  257loPI    C3 4099   8.787   7.832  10.729 -0.0549  0.1758 -0.0158
  257loPI   PO4 4100   9.135   8.084  10.060  0.3663 -0.0650  0.3890
  257loPI   GL1 4101   9.371   7.929   9.692 -0.1316  0.0947 -0.1484
  257loPI   GL2 4102   9.679   7.868   9.769  0.2029  0.2550  0.2916
  257loPI   C1A 4103   9.040   7.889   9.344 -0.2537  0.2018 -0.0818
  257loPI   C2A 4104   8.883   7.929   8.921 -0.1526  0.1233 -0.1173
  257loPI   C3A 4105   8.810   7.534   8.550  0.1085  0.2390  0.1712
  257loPI   C4A 4106   8.776   7.119   8.261  0.1401  0.0876  0.0740
  257loPI   C5A 4107   8.447   7.079   8.078  0.1259 -0.1596 -0.0435
  257loPI   C6A 4108   8.244   6.834   8.254 -0.1174  0.2274  0.0316
  257loPI   C1B 4109   9.704   7.480   9.385  0.0681  0.0632 -0.1574
  257loPI   C2B 4110   9.682   7.380   8.921  0.3354  0.1222 -0.0771
  257loPI   C3B 4111   9.601   7.098   8.604 -0.0575 -0.0995 -0.0924
  257loPI   C4B 4112   9.881   6.792   8.435  0.1249  0.2219 -0.0439
  258loPI    C1 4113   2.582   1.221   9.819 -0.0224  0.0101 -0.1776
  258loPI    C2 4114   2.898   0.989   9.740  0.0989  0.1418 -0.0855
  258loPI    C3 4115   2.918   1.261  10.033 -0.0725  0.2074 -0.1335
  258loPI   PO4 4116   2.576   1.464   9.598 -0.1901  0.0753  0.1282
  258loPI   GL1 4117   2.576   1.603   9.297 -0.2614 -0.1269  0.0965
  258loPI   GL2 4118   2.585   1.991   9.329  0.0686  0.0107 -0.0931
  258loPI   C1A 4119   2.702   1.444   8.912 -0.2030  0.1995  0.1200
  258loPI   C2A 4120   2.913   1.135   8.676 -0.1641 -0.2889  0.0479
  258loPI   C3A 4121   2.889   0.978   8.325 -0.0472 -0.0446 -0.1260
  258loPI   C4A 4122   3.058   1.040   7.921  0.3848  0.0953  0.2018
  258loPI   C5A 4123   3.137   0.893   7.408 -0.1038  0.0989  0.1700
  258loPI   C6A 4124   3.178   1.017   6.998 -0.0435 -0.3393  0.2722
  258loPI   C1B 4125   2.458   1.995   8.996 -0.1373 -0.2461 -0.0305
  258loPI   C2B 4126   2.405   1.729   8.609  0.1543  0.2480 -0.0403
  258loPI   C3B 4127   2.321   1.598   8.095 -0.2427  0.2836  0.1031
  258loPI   C4B 4128   2.471   1.611   7.625 -0.0566  0.0427  0.2819
  259loPI    C1 4129   2.616  17.407   9.893 -0.0155 -0.0830 -0.1208
  259loPI    C2 4130   2.550  17.156  10.197 -0.0881  0.0023 -0.0658
  259loPI    C3 4131   2.480  17.547  10.242 -0.0973  0.0152 -0.1916
  259loPI   PO4 4132   2.459  17.275   9.675  0.1218  0.1992  0.0397
  259loPI   GL1 4133   2.114  17.366   9.492 -0.3035  0.0171 -0.0120
  259loPI   GL2 4134   2.118  17.695   9.376 -0.1840  0.0974  0.2817
  259loPI   C1A 4135   2.071  17.282   9.031 -0.1935 -0.1419  0.2100
  259loPI   C2A 4136   2.058  17.422   8.643 -0.1946  0.2012 -0.1452
  259loPI   C3A 4137   2.044  17.468   8.216  0.3321 -0.0697  0.0439
  259loPI   C4A 4138   1.748  17.488   7.824 -0.1189 -0.3346  0.1227
  259loPI   C5A 4139   1.727  17.129   7.482 -0.2512 -0.3264 -0.0084
  259loPI   C6A 4140   1.867  16.725   7.518  0.1285 -0.1859  0.0840
  259loPI   C1B 4141   1.840  17.715   9.030  0.2754 -0.1483 -0.0121
  259loPI   C2B 4142   1.615  17.699   8.625 -0.1608  0.3169 -0.0434
  259loPI   C3B 4143   1.553  17.537   8.301  0.0491 -0.1609  0.1528
  259loPI   C4B 4144   1.139  17.507   8.028  0.2448 -0.0207 -0.0287
  260loPI    C1 4145   4.587  10.455  10.140 -0.0706  0.0285  0.1126
  260loPI    C2 4146   4.946  10.630  10.168 -0.0724  0.0727 -0.1203
  260loPI    C3 4147   4.653  10.732  10.421  0.0577  0.0869  0.0259
  260loPI   PO4 4148   4.629  10.320   9.905 -0.0370  0.2685 -0.0618
  260loPI   GL1 4149   4.698  10.119   9.488  0.0890 -0.0472  0.1147
  260loPI   GL2 4150   4.794  10.440   9.299 -0.0562  0.1258  0.0219
  260loPI   C1A 4151   4.984  10.061   8.969  0.1135 -0.2838 -0.1169
  260loPI   C2A 4152   5.015  10.248   8.518  0.2137  0.2173  0.0002
  260loPI   C3A 4153   4.949  10.154   8.223  0.1391  0.0371  0.0753
  260loPI   C4A 4154   4.879  10.083   7.875  0.1243 -0.0652 -0.2284
  260loPI   C5A 4155   4.771   9.819   7.522 -0.0395  0.1805  0.1154
  260loPI   C6A 4156   4.579   9.437   7.463  0.1262  0.2095 -0.1125
  260loPI   C1B 4157   4.857  10.664   8.941 -0.2332  0.3190 -0.0325
  260loPI   C2B 4158   4.889  10.744   8.483 -0.2673 -0.3210  0.3117
  260loPI   C3B 4159   4.898  10.660   8.060 -0.1609 -0.0060 -0.3151
  260loPI   C4B 4160   5.032  10.610   7.594 -0.0008 -0.1622  0.0474
  261loPI    C1 4161  15.115   4.349  10.001 -0.2840 -0.3179  0.1103
  261loPI    C2 4162  15.282   3.986   9.977  0.1128 -0.1318 -0.0449
  261loPI    C3 4163  15.339   4.211  10.303  0.1189 -0.0890 -0.0755
  261loPI   PO4 4164  15.217   4.537   9.844 -0.1353  0.2498 -0.1852
  261loPI   GL1 4165  15.144   4.748   9.493 -0.4132 -0.3289  0.0430
  261loPI   GL2 4166  14.847   4.721   9.531 -0.2464  0.0613 -0.2630
  261loPI   C1A 4167  15.316   4.732   9.219 -0.0033  0.1486  0.4393
  261loPI   C2A 4168  15.272   4.648   8.843 -0.3602 -0.0397  0.0742
  261loPI   C3A 4169  15.319   4.411   8.479  0.1790  0.1035  0.0204
  261loPI   C4A 4170  15.317   4.346   8.111 -0.2128 -0.1358  0.1371
  261loPI   C5A 4171  15.594   4.064   7.863  0.2751  0.1419 -0.0934
  261loPI   C6A 4172  15.891   3.992   7.564  0.0876  0.4677  0.0935
  261loPI   C1B 4173  14.780   4.696   9.087  0.1188 -0.0953 -0.0152
  261loPI   C2B 4174  14.431   4.630   8.755 -0.0832 -0.1249  0.2068
  261loPI   C3B 4175  14.356   4.556   8.345  0.2963 -0.0408  0.2339
  261loPI   C4B 4176  14.125   4.570   7.971 -0.2662 -0.0706 -0.2061
  262loPI    C1 4177   5.611   3.541   9.855 -0.0204  0.1277  0.0257
  262loPI    C2 4178   5.692   3.462  10.239 -0.1137 -0.0948  0.0010
  262loPI    C3 4179   5.509   3.803  10.139 -0.1500 -0.0668  0.1613
  262loPI   PO4 4180   5.480   3.418   9.675 -0.0889  0.0795 -0.1656
  262loPI   GL1 4181   5.306   3.457   9.310  0.0498  0.2124  0.0652
  262loPI   GL2 4182   5.475   3.646   9.222 -0.1510 -0.1494 -0.1924
  262loPI   C1A 4183   5.114   3.373   8.867  0.1055  0.1398 -0.5609
  262loPI   C2A 4184   4.787   3.465   8.605  0.0957  0.0560 -0.1626
  262loPI   C3A 4185   4.626   3.490   8.210  0.0546  0.0382  0.0749
  262loPI   C4A 4186   4.696   3.377   7.829  0.1596 -0.0443  0.1410
  262loPI   C5A 4187   4.683   3.603   7.450 -0.1478  0.2838 -0.2153
  262loPI   C6A 4188   4.857   3.661   7.034 -0.3147 -0.1679  0.1063
  262loPI   C1B 4189   5.572   3.674   8.811 -0.1149  0.0977  0.2174
  262loPI   C2B 4190   5.568   3.649   8.349 -0.0652  0.0296 -0.3722
  262loPI   C3B 4191   5.496   3.829   7.899 -0.0147  0.3234 -0.0053
  262loPI   C4B 4192   5.647   3.892   7.503 -0.0280  0.1945 -0.0755
  263loPI    C1 4193   0.988   9.616  10.061 -0.2742 -0.0574  0.0740
  263loPI    C2 4194   0.769   9.861  10.290  0.1433  0.2473  0.1602
  263loPI    C3 4195   1.017   9.597  10.459  0.0464  0.0903  0.0606
  263loPI   PO4 4196   0.796   9.596   9.817  0.2171 -0.3844  0.2722
  263loPI   GL1 4197   0.953   9.662   9.396 -0.1433 -0.1320  0.3707
  263loPI   GL2 4198   0.736   9.853   9.394  0.0166  0.0843  0.1474
  263loPI   C1A 4199   0.937   9.578   8.969  0.4290 -0.0836  0.5298
  263loPI   C2A 4200   0.947   9.538   8.581  0.2614  0.2993  0.2559
  263loPI   C3A 4201   0.793   9.584   8.204  0.1566 -0.0979  0.0111
  263loPI   C4A 4202   0.802   9.754   7.770 -0.0283  0.1116 -0.2545
  263loPI   C5A 4203   0.447  10.009   7.603  0.0095  0.0709  0.3179
  263loPI   C6A 4204   0.031  10.176   7.492 -0.0031  0.2225  0.1733
  263loPI   C1B 4205   0.449   9.772   8.946  0.1607 -0.4801  0.1838
  263loPI   C2B 4206   0.500   9.871   8.501 -0.0814 -0.2020 -0.2484
  263loPI   C3B 4207   0.463   9.975   8.119 -0.0544 -0.0367 -0.0953
  263loPI   C4B 4208   0.177  10.269   7.969  0.1717  0.0488 -0.0624
  264loPI    C1 4209  14.685  17.158  10.775 -0.1598 -0.2094  0.3215
  264loPI    C2 4210  14.968  17.368  10.964  0.0403 -0.1089 -0.0796
  264loPI    C3 4211  14.929  16.976  11.035  0.2454 -0.1131  0.0177
  264loPI   PO4 4212  14.639  17.149  10.548 -0.1954 -0.4883  0.1396
  264loPI   GL1 4213  14.542  17.054  10.116 -0.0952  0.0234 -0.0480
  264loPI   GL2 4214  14.856  16.979  10.104  0.1511  0.1507  0.0403
  264loPI   C1A 4215  14.382  16.987   9.735  0.0865 -0.0583 -0.0951
  264loPI   C2A 4216  14.377  16.943   9.332 -0.2621  0.0146 -0.5566
  264loPI   C3A 4217  14.468  16.670   8.952 -0.2283  0.0136 -0.0883
  264loPI   C4A 4218  14.574  16.794   8.507  0.1616 -0.1772 -0.2834
  264loPI   C5A 4219  14.485  16.846   8.229  0.4372  0.0804  0.0758
  264loPI   C6A 4220  14.469  16.997   7.820  0.0699  0.2641 -0.1864
  264loPI   C1B 4221  14.835  16.799   9.793  0.0369  0.5450  0.1327
  264loPI   C2B 4222  14.879  16.903   9.281 -0.0816  0.2135  0.1625
  264loPI   C3B 4223  14.940  17.015   8.850  0.1291 -0.0998 -0.1030
  264loPI   C4B 4224  15.071  16.872   8.419  0.1359 -0.1392  0.1563
  265loPI    C1 4225  12.461   9.271   9.756  0.2935 -0.4002  0.1368
  265loPI    C2 4226  12.575   9.613   9.930  0.1639 -0.2466 -0.0753
  265loPI    C3 4227  12.360   9.346  10.136  0.2152 -0.1746  0.0730
  265loPI   PO4 4228  12.632   9.285   9.594  0.2631 -0.2801 -0.2977
  265loPI   GL1 4229  12.853   9.024   9.333  0.0138 -0.0085 -0.2474
  265loPI   GL2 4230  12.813   9.176   9.079  0.0761 -0.2002  0.2482
  265loPI   C1A 4231  12.878   8.673   8.966  0.3100 -0.0786 -0.1955
  265loPI   C2A 4232  12.851   8.623   8.581 -0.1086 -0.1802  0.2094
  265loPI   C3A 4233  13.062   8.390   8.158 -0.1913  0.0005 -0.3421
  265loPI   C4A 4234  13.392   8.338   7.933  0.0628  0.1831  0.7655
  265loPI   C5A 4235  13.773   8.468   7.834  0.0229 -0.0426  0.2031
  265loPI   C6A 4236  13.985   8.433   7.460  0.2949 -0.2041 -0.0450
  265loPI   C1B 4237  12.635   9.085   8.675 -0.1861  0.3028  0.1601
  265loPI   C2B 4238  12.489   8.902   8.324  0.1474 -0.0129 -0.1975
  265loPI   C3B 4239  12.627   8.579   8.009 -0.2536  0.3211  0.0243
  265loPI   C4B 4240  12.907   8.456   7.688 -0.0157  0.2716 -0.1382
  266loPI    C1 4241   3.927   3.904  10.234 -0.0181  0.2821  0.0968
  266loPI    C2 4242   3.700   3.627  10.413  0.2312 -0.0149 -0.0359
  266loPI    C3 4243   3.612   4.015  10.453 -0.2450 -0.1193 -0.0150
  266loPI   PO4 4244   3.985   3.733   9.955  0.2155  0.1968 -0.1764
  266loPI   GL1 4245   3.902   3.471   9.585  0.4940  0.0180  0.0232
  266loPI   GL2 4246   3.568   3.339   9.512 -0.0527 -0.2325  0.1491
  266loPI   C1A 4247   3.798   3.619   9.139  0.1291  0.2280  0.2124
  266loPI   C2A 4248   3.771   3.618   8.667 -0.0215 -0.1609 -0.0393
  266loPI   C3A 4249   3.741   3.728   8.258  0.2544 -0.2160  0.2266
  266loPI   C4A 4250   3.671   3.824   7.829 -0.2156  0.0589  0.0868
  266loPI   C5A 4251   3.388   3.983   7.539 -0.1603  0.0739 -0.1050
  266loPI   C6A 4252   3.030   4.170   7.233  0.1943  0.1085  0.1166
  266loPI   C1B 4253   3.462   3.300   9.057 -0.2735 -0.0679  0.2185
  266loPI   C2B 4254   3.389   3.259   8.565  0.0361 -0.3395  0.1339
  266loPI   C3B 4255   3.343   3.401   8.152  0.2194  0.0396 -0.0986
  266loPI   C4B 4256   3.285   3.463   7.718 -0.0731 -0.0939 -0.1573
  267loPI    C1 4257   7.511   8.976  10.291  0.0862 -0.0804 -0.0387
  267loPI    C2 4258   7.732   8.671  10.154 -0.1656 -0.2998  0.0347
  267loPI    C3 4259   7.703   8.737  10.548 -0.0052 -0.0968  0.0146
  267loPI   PO4 4260   7.383   9.025  10.152  0.0478  0.0538  0.2246
  267loPI   GL1 4261   7.195   8.762   9.936 -0.1108 -0.3716 -0.0579
  267loPI   GL2 4262   7.321   8.475   9.925 -0.3031  0.2344  0.1819
  267loPI   C1A 4263   7.260   8.916   9.467 -0.2118  0.3066  0.0515
  267loPI   C2A 4264   7.312   8.705   9.104 -0.2598  0.2360  0.3084
  267loPI   C3A 4265   7.385   8.583   8.716  0.1101 -0.0052 -0.3100
  267loPI   C4A 4266   7.665   8.364   8.375  0.0479 -0.0477 -0.0757
  267loPI   C5A 4267   8.067   8.155   8.358  0.2485  0.0213 -0.2369
  267loPI   C6A 4268   8.500   8.173   8.054  0.0963  0.1269 -0.1179
  267loPI   C1B 4269   7.286   8.217   9.522  0.3008  0.1623 -0.5134
  267loPI   C2B 4270   7.484   8.230   9.217 -0.1392  0.2341 -0.1520
  267loPI   C3B 4271   7.760   8.489   9.069 -0.1841 -0.0189  0.0192
  267loPI   C4B 4272   8.064   8.595   8.675 -0.1282 -0.1892  0.3924
  268loPI    C1 4273  11.016   6.525  10.266  0.0429  0.5314 -0.1648
  268loPI    C2 4274  11.138   6.611  10.637  0.0751  0.1377 -0.0801
  268loPI    C3 4275  10.748   6.561  10.561  0.0822  0.0542 -0.0629
  268loPI   PO4 4276  11.181   6.554  10.100  0.0910 -0.3449 -0.0818
  268loPI   GL1 4277  11.308   6.607   9.663  0.0546  0.1442 -0.0876
  268loPI   GL2 4278  11.313   6.850   9.525  0.0731  0.1354  0.0696
  268loPI   C1A 4279  11.200   6.345   9.297 -0.1276  0.0043 -0.1367
  268loPI   C2A 4280  11.097   6.254   8.864  0.1524  0.2445  0.2427
  268loPI   C3A 4281  11.089   6.112   8.465 -0.1764 -0.0939  0.0856
  268loPI   C4A 4282  10.924   6.104   8.048 -0.3204  0.2782 -0.2238
  268loPI   C5A 4283  10.637   5.940   7.763  0.0725  0.2297 -0.1428
  268loPI   C6A 4284  10.613   5.619   7.505  0.0571 -0.1457 -0.0308
  268loPI   C1B 4285  11.050   7.203   9.354 -0.2310 -0.0013 -0.1037
  268loPI   C2B 4286  10.992   7.391   9.088  0.1734  0.1382  0.1289
  268loPI   C3B 4287  10.920   7.629   8.702 -0.4421 -0.1511  0.2309
  268loPI   C4B 4288  10.881   7.544   8.172  0.0967 -0.3525 -0.0666
  269loPI    C1 4289   9.401  16.421  10.521 -0.0455 -0.0698 -0.2143
  269loPI    C2 4290   9.622  16.692  10.326  0.2103 -0.2665 -0.2041
  269loPI    C3 4291   9.585  16.712  10.724 -0.1534  0.0212 -0.2466
  269loPI   PO4 4292   9.363  16.245  10.239  0.0496 -0.4337  0.2947
  269loPI   GL1 4293   9.427  16.372   9.794 -0.2877  0.3093 -0.0076
  269loPI   GL2 4294   9.730  16.518   9.881 -0.1275  0.1290 -0.2342
  269loPI   C1A 4295   9.245  16.221   9.376 -0.0801  0.1591 -0.2375
  269loPI   C2A 4296   8.958  16.176   9.124 -0.1468  0.0989 -0.0021
  269loPI   C3A 4297   8.948  15.767   8.844 -0.2549 -0.0224  0.0854
  269loPI   C4A 4298   9.153  15.644   8.424  0.4631  0.1800 -0.3259
  269loPI   C5A 4299   9.092  15.754   7.947 -0.1179  0.0485 -0.0999
  269loPI   C6A 4300   8.947  15.759   7.496 -0.0661 -0.1681  0.0123
  269loPI   C1B 4301   9.701  16.427   9.368 -0.1895 -0.0080  0.0104
  269loPI   C2B 4302   9.945  16.431   9.017 -0.2964 -0.0352  0.1925
  269loPI   C3B 4303  10.327  16.588   8.810  0.2397  0.0803  0.2790
  269loPI   C4B 4304  10.765  16.443   8.723 -0.1231  0.0362  0.1408
  270loPI    C1 4305   6.779  16.563  10.227  0.1122  0.2290  0.0189
  270loPI    C2 4306   6.701  16.734  10.581  0.1181 -0.1053  0.1859
  270loPI    C3 4307   6.830  16.356  10.566  0.0662 -0.1121 -0.1789
  270loPI   PO4 4308   6.919  16.787  10.102 -0.0045 -0.1188  0.2802
  270loPI   GL1 4309   6.985  16.868   9.719 -0.0081 -0.2633  0.0371
  270loPI   GL2 4310   6.999  17.101   9.544 -0.1332 -0.0270  0.0818
  270loPI   C1A 4311   6.941  16.771   9.229 -0.2788  0.0818  0.3101
  270loPI   C2A 4312   6.848  16.645   8.841  0.1821 -0.2036 -0.2120
  270loPI   C3A 4313   6.624  16.781   8.588 -0.1369 -0.2297 -0.1552
  270loPI   C4A 4314   6.459  16.962   8.328 -0.1354  0.3311  0.0304
  270loPI   C5A 4315   6.307  17.010   7.896 -0.3952  0.1412  0.0770
  270loPI   C6A 4316   6.087  16.735   7.648 -0.0162  0.0707 -0.1149
  270loPI   C1B 4317   7.418  17.054   9.305  0.1959  0.0026 -0.0248
  270loPI   C2B 4318   7.587  16.970   8.855 -0.0146  0.1093 -0.0126
  270loPI   C3B 4319   7.694  16.921   8.474 -0.0949 -0.2241 -0.0644
  270loPI   C4B 4320   7.727  16.682   8.026 -0.1241 -0.1697 -0.0589
  271loPI    C1 4321  17.374   1.089  10.539  0.0298 -0.2479 -0.0208
  271loPI    C2 4322  17.004   1.217  10.620  0.0048 -0.2872 -0.0714
  271loPI    C3 4323  17.141   0.881  10.789  0.0697 -0.1955  0.0602
  271loPI   PO4 4324  17.358   1.165  10.231  0.0456 -0.1381 -0.0731
  271loPI   GL1 4325  17.240   0.887   9.818  0.1309 -0.1864  0.0413
  271loPI   GL2 4326  17.600   0.868   9.825  0.2592 -0.4818  0.2491
  271loPI   C1A 4327  17.040   0.954   9.376 -0.1317 -0.0993  0.1224
  271loPI   C2A 4328  16.958   0.892   8.973  0.1604  0.1832 -0.0114
  271loPI   C3A 4329  16.591   1.196   8.786  0.0244  0.2406  0.2562
  271loPI   C4A 4330  16.254   1.286   8.501  0.1496 -0.0588  0.1213
  271loPI   C5A 4331  16.101   1.512   8.099  0.0827 -0.0266 -0.0668
  271loPI   C6A 4332  16.202   1.282   7.683 -0.0045 -0.0297  0.0190
  271loPI   C1B 4333  17.530   0.612   9.486  0.0823 -0.1348 -0.3033
  271loPI   C2B 4334  17.406   0.714   9.068  0.0587  0.4348 -0.1194
  271loPI   C3B 4335  17.423   0.904   8.704  0.0522 -0.2299  0.1579
  271loPI   C4B 4336  17.428   1.035   8.215  0.0099 -0.0149  0.0272
  272loPI    C1 4337   1.170   5.969   9.785 -0.2426  0.1534 -0.0564
  272loPI    C2 4338   1.235   6.338   9.924 -0.0440  0.0424  0.1512
  272loPI    C3 4339   1.099   6.054  10.170 -0.0692 -0.0563  0.0237
  272loPI   PO4 4340   1.169   5.993   9.594 -0.1730  0.1252 -0.0840
  272loPI   GL1 4341   1.171   6.275   9.380  0.1083 -0.1036  0.2099
  272loPI   GL2 4342   1.441   6.126   9.202  0.1607  0.1366  0.1800
  272loPI   C1A 4343   1.030   6.236   8.919 -0.1612 -0.3344  0.0660
  272loPI   C2A 4344   0.840   6.264   8.538 -0.1657 -0.0818 -0.1179
  272loPI   C3A 4345   0.584   6.320   8.242 -0.5374  0.0743  0.1768
  272loPI   C4A 4346   0.514   6.203   7.836  0.0458 -0.2127 -0.0381
  272loPI   C5A 4347   0.279   6.058   7.445 -0.3353 -0.1700 -0.1317
  272loPI   C6A 4348  -0.022   5.819   7.393  0.0167 -0.0658 -0.0601
  272loPI   C1B 4349   1.440   5.947   8.774 -0.0832  0.0707 -0.1184
  272loPI   C2B 4350   1.484   5.853   8.363  0.0560 -0.0449 -0.2044
  272loPI   C3B 4351   1.264   5.733   8.024 -0.3686  0.3291  0.1176
  272loPI   C4B 4352   1.301   5.944   7.618  0.0027 -0.2113 -0.2167
  273loPI    C1 4353   5.601  11.643   9.973  0.2067  0.1597 -0.0308
  273loPI    C2 4354   5.289  11.440   9.827  0.2951  0.1590 -0.2230
  273loPI    C3 4355   5.295  11.548  10.212  0.0845  0.1098 -0.2043
  273loPI   PO4 4356   5.858  11.568   9.804 -0.1225 -0.1350  0.0320
  273loPI   GL1 4357   5.883  11.708   9.379  0.3297  0.2002 -0.0749
  273loPI   GL2 4358   5.521  11.693   9.445  0.0696 -0.3883 -0.1745
  273loPI   C1A 4359   5.966  11.501   8.985  0.0338  0.0572 -0.0508
  273loPI   C2A 4360   6.129  11.520   8.530  0.0551  0.1465 -0.0098
  273loPI   C3A 4361   6.070  11.649   8.152  0.0529 -0.2144 -0.0351
  273loPI   C4A 4362   6.324  11.794   7.846 -0.3113 -0.0591 -0.0346
  273loPI   C5A 4363   6.461  11.835   7.517 -0.3846 -0.1274 -0.2155
  273loPI   C6A 4364   6.259  12.042   7.198 -0.1399 -0.0148 -0.0538
  273loPI   C1B 4365   5.501  11.673   9.003 -0.1869  0.3426  0.0596
  273loPI   C2B 4366   5.424  11.619   8.602  0.3827  0.2098 -0.1372
  273loPI   C3B 4367   5.728  11.305   8.333  0.0420 -0.0391 -0.1790
  273loPI   C4B 4368   6.080  11.174   8.210  0.0802  0.4791  0.2083
  274loPI    C1 4369  14.807   1.708  10.426 -0.2101  0.1273 -0.2018
  274loPI    C2 4370  14.825   2.107  10.452  0.2152  0.0875  0.2779
  274loPI    C3 4371  14.937   1.881  10.762  0.2037 -0.4131 -0.0703
  274loPI   PO4 4372  14.910   1.617  10.236  0.0634  0.1619 -0.1866
  274loPI   GL1 4373  15.038   1.497   9.847 -0.0725 -0.0176 -0.0214
  274loPI   GL2 4374  14.697   1.527   9.797 -0.0044  0.0245 -0.0314
  274loPI   C1A 4375  15.007   1.597   9.334  0.1108 -0.3263 -0.2968
  274loPI   C2A 4376  14.996   1.635   8.877 -0.2800  0.1947 -0.0299
  274loPI   C3A 4377  14.732   1.678   8.565  0.0733  0.1744  0.3329
  274loPI   C4A 4378  14.756   1.594   8.146  0.0515  0.2108 -0.0786
  274loPI   C5A 4379  14.504   1.849   7.980 -0.0175  0.3533  0.1849
  274loPI   C6A 4380  14.250   1.942   7.643  0.3846 -0.0419  0.2584
  274loPI   C1B 4381  14.515   1.820   9.450 -0.0562 -0.2991 -0.0385
  274loPI   C2B 4382  14.555   1.909   9.008  0.1834 -0.1432 -0.1197
  274loPI   C3B 4383  14.442   2.038   8.626  0.2834  0.0353 -0.2494
  274loPI   C4B 4384  14.614   2.270   8.295  0.0339  0.0857  0.0789
  275loPI    C1 4385  11.004   1.529  10.412 -0.3165 -0.0540  0.0238
  275loPI    C2 4386  10.716   1.671  10.651 -0.2160 -0.3723  0.3433
  275loPI    C3 4387  11.052   1.523  10.809  0.0654 -0.1401 -0.0205
  275loPI   PO4 4388  10.893   1.334  10.208 -0.1193  0.1728  0.0187
  275loPI   GL1 4389  10.857   1.017   9.810  0.1025 -0.1936 -0.0233
  275loPI   GL2 4390  10.543   1.277   9.825  0.1024 -0.0434 -0.3043
  275loPI   C1A 4391  10.943   1.004   9.372  0.0264 -0.0549 -0.1952
  275loPI   C2A 4392  11.207   0.897   8.983 -0.3534  0.0156 -0.2078
  275loPI   C3A 4393  11.273   0.788   8.530 -0.0494  0.3533  0.1103
  275loPI   C4A 4394  11.155   0.484   8.143  0.0990 -0.4276  0.0312
  275loPI   C5A 4395  10.810   0.352   7.931 -0.0653 -0.1313 -0.0526
  275loPI   C6A 4396  10.474   0.036   8.137  0.1032 -0.1276  0.3088
  275loPI   C1B 4397  10.366   1.447   9.461 -0.1159 -0.0731  0.1810
  275loPI   C2B 4398  10.408   1.395   8.921  0.2283  0.0423 -0.1648
  275loPI   C3B 4399  10.438   1.193   8.533  0.1846  0.1768  0.0822
  275loPI   C4B 4400  10.354   0.963   8.100  0.1048  0.2867 -0.0976
  276loPI    C1 4401  13.961   2.276  10.159  0.1509  0.0633  0.3541
  276loPI    C2 4402  13.801   2.264  10.525 -0.3865 -0.2371  0.1216
  276loPI    C3 4403  13.836   1.928  10.312  0.2418 -0.1206  0.0208
  276loPI   PO4 4404  13.894   2.460  10.008  0.0490 -0.2366 -0.2178
  276loPI   GL1 4405  13.898   2.499   9.638 -0.2088 -0.1214  0.0236
  276loPI   GL2 4406  14.096   2.683   9.577  0.0559 -0.2799  0.4607
  276loPI   C1A 4407  13.766   2.534   9.180 -0.0546 -0.1209  0.1793
  276loPI   C2A 4408  13.847   2.863   8.879  0.1093  0.1933 -0.1488
  276loPI   C3A 4409  13.904   2.969   8.461 -0.3675  0.1079  0.4566
  276loPI   C4A 4410  13.987   2.928   8.004 -0.0011 -0.0452 -0.1740
  276loPI   C5A 4411  14.244   2.825   7.625 -0.4369  0.1513 -0.1140
  276loPI   C6A 4412  14.436   2.780   7.191  0.2261 -0.3067  0.1717
  276loPI   C1B 4413  14.263   2.840   9.191 -0.1960 -0.1684 -0.0600
  276loPI   C2B 4414  14.298   2.955   8.787 -0.2139  0.3063 -0.3354
  276loPI   C3B 4415  14.417   2.730   8.427 -0.4645 -0.1808  0.3199
  276loPI   C4B 4416  14.240   2.466   7.987  0.0435  0.1642  0.2492
  277loPI    C1 4417  13.588   4.252  10.104 -0.1842 -0.1471 -0.3708
  277loPI    C2 4418  13.212   4.380  10.058 -0.1504  0.1351  0.0721
  277loPI    C3 4419  13.288   4.061  10.287 -0.1090  0.1540  0.0847
  277loPI   PO4 4420  13.649   4.220   9.843  0.0994 -0.0855 -0.3553
  277loPI   GL1 4421  13.708   4.004   9.403 -0.2131 -0.0775 -0.0830
  277loPI   GL2 4422  13.512   4.191   9.148 -0.0508  0.0386 -0.1865
  277loPI   C1A 4423  13.988   4.077   9.199 -0.0088 -0.2331 -0.2545
  277loPI   C2A 4424  13.934   3.793   8.816 -0.0725 -0.1409 -0.0965
  277loPI   C3A 4425  14.181   3.404   8.595  0.0018 -0.1568  0.3105
  277loPI   C4A 4426  14.338   3.182   8.232  0.1881  0.0164  0.0550
  277loPI   C5A 4427  14.618   2.918   7.955  0.0502 -0.1192  0.2803
  277loPI   C6A 4428  14.813   2.765   7.702 -0.0348  0.3850  0.4518
  277loPI   C1B 4429  13.667   4.170   8.685  0.1207 -0.0496  0.0529
  277loPI   C2B 4430  13.830   4.390   8.320  0.0852  0.0430 -0.1818
  277loPI   C3B 4431  13.907   4.157   7.938 -0.0029  0.2792 -0.3564
  277loPI   C4B 4432  14.057   4.244   7.577 -0.0651 -0.1701 -0.0574
  278loPI    C1 4433   3.922  13.229  10.142  0.1733 -0.0623  0.0194
  278loPI    C2 4434   3.838  12.949  10.414 -0.2090  0.0607  0.0336
  278loPI    C3 4435   3.808  13.336  10.510 -0.2080  0.1048 -0.1418
  278loPI   PO4 4436   3.859  13.103   9.911 -0.1485 -0.3579 -0.1842
  278loPI   GL1 4437   4.083  13.275   9.576 -0.2031 -0.0952  0.0510
  278loPI   GL2 4438   4.300  13.213   9.435  0.0575 -0.1081 -0.0300
  278loPI   C1A 4439   3.925  13.259   9.088 -0.0164  0.2404 -0.0116
  278loPI   C2A 4440   3.994  12.998   8.694  0.0894 -0.4912 -0.2396
  278loPI   C3A 4441   3.975  12.938   8.174 -0.0807  0.0242  0.0638
  278loPI   C4A 4442   4.139  12.794   7.751  0.1692  0.3989  0.1793
  278loPI   C5A 4443   3.958  12.879   7.386 -0.1053  0.0219  0.1612
  278loPI   C6A 4444   3.913  13.203   7.083 -0.0611 -0.2144 -0.1309
  278loPI   C1B 4445   4.227  12.809   9.133  0.1076  0.0117 -0.1287
  278loPI   C2B 4446   4.316  12.611   8.708 -0.2426 -0.4917  0.0462
  278loPI   C3B 4447   4.375  12.536   8.277 -0.1610  0.2601  0.1993
  278loPI   C4B 4448   4.502  12.448   7.782 -0.1763  0.1464  0.2386
  279loPI    C1 4449  13.048   9.663   9.888  0.1501  0.1644 -0.0117
  279loPI    C2 4450  13.352   9.826  10.090  0.0485  0.2528  0.0706
  279loPI    C3 4451  12.981   9.839  10.241  0.0348 -0.0326  0.0667
  279loPI   PO4 4452  12.964   9.732   9.616  0.3360  0.0960 -0.0429
  279loPI   GL1 4453  12.961   9.649   9.177  0.2832  0.1050 -0.2630
  279loPI   GL2 4454  13.214   9.469   9.210  0.0679 -0.1186 -0.1128
  279loPI   C1A 4455  12.950   9.550   8.750  0.2632 -0.0283  0.1002
  279loPI   C2A 4456  12.945   9.576   8.288 -0.0344  0.4124 -0.3338
  279loPI   C3A 4457  12.580   9.334   8.104 -0.2638 -0.0125  0.1927
  279loPI   C4A 4458  12.308   9.103   7.830  0.1784 -0.1561 -0.2572
  279loPI   C5A 4459  11.889   9.252   7.718 -0.1275 -0.0646  0.2132
  279loPI   C6A 4460  11.378   9.257   7.554  0.0167  0.2124 -0.2615
  279loPI   C1B 4461  13.454   9.536   8.794  0.0598  0.0076  0.0732
  279loPI   C2B 4462  13.616   9.385   8.473  0.1096  0.0777 -0.1383
  279loPI   C3B 4463  13.729   9.137   8.223  0.3070 -0.1052 -0.2274
  279loPI   C4B 4464  13.848   9.180   7.836  0.0268  0.1099 -0.1671
  280loPI    C1 4465   6.968  14.983  10.163  0.1656  0.1516  0.0875
  280loPI    C2 4466   7.317  14.787  10.183  0.1441  0.1031 -0.0046
  280loPI    C3 4467   7.191  14.936   9.834 -0.0442 -0.0940 -0.0227
  280loPI   PO4 4468   6.766  14.771  10.236  0.0969 -0.2860  0.1074
  280loPI   GL1 4469   6.542  14.709   9.866 -0.0728 -0.1608  0.0336
  280loPI   GL2 4470   6.685  14.926   9.682  0.0776  0.2860 -0.1907
  280loPI   C1A 4471   6.236  14.597   9.481  0.0412 -0.0719  0.0746
  280loPI   C2A 4472   6.207  14.632   9.025 -0.1258  0.1260 -0.2338
  280loPI   C3A 4473   6.199  14.793   8.564  0.0906 -0.2408 -0.0868
  280loPI   C4A 4474   6.015  14.781   8.179  0.0567 -0.4624  0.0889
  280loPI   C5A 4475   6.418  15.138   7.926 -0.0939 -0.1748  0.3385
  280loPI   C6A 4476   6.819  15.094   7.677 -0.1361 -0.0294  0.0261
  280loPI   C1B 4477   6.658  14.941   9.162 -0.2771  0.1441  0.1825
  280loPI   C2B 4478   6.734  14.780   8.691  0.1642  0.1682 -0.0092
  280loPI   C3B 4479   6.556  14.706   8.232 -0.2973 -0.4181  0.0065
  280loPI   C4B 4480   6.572  14.697   7.676 -0.0108 -0.0129  0.0846
  281loPI    C1 4481   8.307   0.047  10.757 -0.1194 -0.1359 -0.0371
  281loPI    C2 4482   7.963   0.231  10.847 -0.1940 -0.2796 -0.0251
  281loPI    C3 4483   8.302   0.443  10.819 -0.3112 -0.1114 -0.1997
  281loPI   PO4 4484   8.255  -0.047  10.535 -0.0697  0.1279  0.3102
  281loPI   GL1 4485   8.354   0.168  10.156  0.0237 -0.0820 -0.2312
  281loPI   GL2 4486   8.646   0.265   9.963 -0.1813  0.0940  0.0062
  281loPI   C1A 4487   8.249   0.189   9.686  0.0154 -0.2257  0.1937
  281loPI   C2A 4488   8.223   0.036   9.311 -0.1197  0.0148 -0.3540
  281loPI   C3A 4489   8.056  -0.023   8.958 -0.0171  0.0254 -0.2053
  281loPI   C4A 4490   8.304  -0.167   8.630 -0.3038 -0.0733 -0.2879
  281loPI   C5A 4491   8.462  -0.488   8.334  0.1716  0.3651 -0.3496
  281loPI   C6A 4492   8.594  -0.613   7.894 -0.1362  0.0730  0.1923
  281loPI   C1B 4493   8.681   0.354   9.450  0.2243 -0.0205 -0.0799
  281loPI   C2B 4494   8.607   0.509   9.082 -0.0972 -0.1984 -0.1356
  281loPI   C3B 4495   8.779   0.573   8.684  0.0378 -0.3112  0.1019
  281loPI   C4B 4496   8.686   0.479   8.235  0.1104 -0.0367  0.1049
  282loPI    C1 4497   1.296  10.805   9.815 -0.1199 -0.0746 -0.0749
  282loPI    C2 4498   1.381  11.180   9.708 -0.0894  0.0224  0.2757
  282loPI    C3 4499   1.064  11.106   9.940 -0.1011 -0.1708  0.1995
  282loPI   PO4 4500   1.330  10.685   9.622 -0.1706  0.2521  0.1631
  282loPI   GL1 4501   1.499  10.530   9.212 -0.0887  0.1939 -0.1070
  282loPI   GL2 4502   1.787  10.601   9.131  0.2961 -0.3282 -0.1529
  282loPI   C1A 4503   1.335  10.316   8.693  0.3559 -0.4782 -0.1246
  282loPI   C2A 4504   1.545  10.310   8.365 -0.2581  0.4101  0.3414
  282loPI   C3A 4505   1.602  10.068   7.926 -0.3738  0.0509  0.3296
  282loPI   C4A 4506   1.287  10.232   7.575 -0.1693  0.3483 -0.1787
  282loPI   C5A 4507   0.924  10.082   7.428  0.2839 -0.1593  0.0362
  282loPI   C6A 4508   0.668  10.373   7.250  0.3156  0.1148  0.1765
  282loPI   C1B 4509   1.796  10.558   8.747 -0.0683  0.5637  0.1848
  282loPI   C2B 4510   1.995  10.662   8.448 -0.0972 -0.0046  0.2373
  282loPI   C3B 4511   2.357  10.446   8.182  0.0010  0.0307  0.3753
  282loPI   C4B 4512   2.419  10.282   7.752  0.1459 -0.0934 -0.0002
  283loPI    C1 4513  17.547   5.372   9.695 -0.2070 -0.1108  0.0058
  283loPI    C2 4514  17.248   5.116   9.765 -0.1245 -0.1544  0.2057
  283loPI    C3 4515  17.429   5.300  10.071 -0.0278 -0.0355  0.0781
  283loPI   PO4 4516  17.804   5.281   9.496  0.2804  0.0962 -0.0777
  283loPI   GL1 4517  17.877   5.308   9.115 -0.0672 -0.1658 -0.0115
  283loPI   GL2 4518  18.190   5.217   8.807 -0.2976 -0.0400  0.0270
  283loPI   C1A 4519  17.641   5.013   8.885  0.3963 -0.0711  0.0256
  283loPI   C2A 4520  17.580   4.995   8.444 -0.2324 -0.1530  0.1999
  283loPI   C3A 4521  17.556   5.170   8.121 -0.0916 -0.1340 -0.0786
  283loPI   C4A 4522  17.344   5.249   7.588  0.1847 -0.2593  0.1827
  283loPI   C5A 4523  17.210   5.356   7.103 -0.1439 -0.2308 -0.2735
  283loPI   C6A 4524  17.030   5.073   6.717 -0.1991 -0.0881 -0.0400
  283loPI   C1B 4525  17.956   5.314   8.468 -0.0807  0.0142  0.1700
  283loPI   C2B 4526  17.753   5.558   8.350 -0.3560  0.1188 -0.2600
  283loPI   C3B 4527  17.725   5.661   7.943  0.0085 -0.1707  0.0823
  283loPI   C4B 4528  17.827   5.712   7.484 -0.0941 -0.2466 -0.2704
  284loPI    C1 4529   1.518  12.644  10.146  0.0025  0.0894  0.1264
  284loPI    C2 4530   1.160  12.534  10.284 -0.0515  0.3803  0.2249
  284loPI    C3 4531   1.451  12.633  10.540  0.1354  0.0443  0.1483
  284loPI   PO4 4532   1.525  12.554   9.955  0.4407  0.3240 -0.1476
  284loPI   GL1 4533   1.480  12.565   9.510  0.0706  0.0687 -0.1863
  284loPI   GL2 4534   1.795  12.442   9.418 -0.3450 -0.0059 -0.0770
  284loPI   C1A 4535   1.472  12.830   9.137  0.1273 -0.2079  0.2307
  284loPI   C2A 4536   1.457  13.115   8.763 -0.0966  0.1222 -0.0709
  284loPI   C3A 4537   1.422  13.103   8.339 -0.0106 -0.0686 -0.4069
  284loPI   C4A 4538   1.508  13.155   7.950 -0.4450  0.2090  0.0798
  284loPI   C5A 4539   1.564  13.265   7.450  0.1316 -0.1222  0.0064
  284loPI   C6A 4540   1.868  13.303   7.130 -0.3130  0.0012 -0.1383
  284loPI   C1B 4541   1.934  12.554   9.013  0.1237  0.0797  0.2673
  284loPI   C2B 4542   1.687  12.603   8.620  0.0258  0.1809 -0.0168
  284loPI   C3B 4543   1.481  12.531   8.422  0.1094 -0.5036 -0.0637
  284loPI   C4B 4544   1.439  12.693   8.048  0.2039 -0.0489  0.0117
  285loPI    C1 4545  15.450   7.986   9.829 -0.3740 -0.2788 -0.1029
  285loPI    C2 4546  15.259   7.968  10.179 -0.2388  0.3984  0.0201
  285loPI    C3 4547  15.552   8.234  10.125 -0.2150  0.2628 -0.5922
  285loPI   PO4 4548  15.304   8.041   9.666 -0.1202 -0.0249  0.1821
  285loPI   GL1 4549  15.181   8.235   9.291  0.2224  0.0134  0.2607
  285loPI   GL2 4550  15.199   8.451   9.300  0.0864  0.2996 -0.0373
  285loPI   C1A 4551  15.192   8.262   8.765 -0.2269  0.1382  0.0927
  285loPI   C2A 4552  15.144   8.345   8.407  0.1534 -0.0184 -0.1217
  285loPI   C3A 4553  15.098   8.715   8.083  0.0642 -0.1660 -0.3896
  285loPI   C4A 4554  15.357   8.973   7.832 -0.1011  0.0254  0.0520
  285loPI   C5A 4555  15.730   9.034   7.605  0.0623  0.0276  0.2148
  285loPI   C6A 4556  16.034   8.814   7.425  0.2109  0.2196 -0.1582
  285loPI   C1B 4557  15.293   8.722   8.971  0.1360 -0.2661  0.3254
  285loPI   C2B 4558  15.307   8.741   8.607 -0.0280 -0.1551 -0.2196
  285loPI   C3B 4559  15.497   8.957   8.352  0.2001 -0.0239  0.0011
  285loPI   C4B 4560  15.646   9.298   8.110 -0.1465 -0.1536  0.0497
  286loPI    C1 4561   1.368   1.846   9.916  0.1904  0.0282  0.0682
  286loPI    C2 4562   1.214   1.952  10.270  0.0928 -0.0168  0.0398
  286loPI    C3 4563   1.544   2.133  10.133 -0.1071  0.2966 -0.0373
  286loPI   PO4 4564   1.235   1.621   9.894 -0.1160  0.3620  0.1679
  286loPI   GL1 4565   1.081   1.378   9.622  0.0962 -0.1818  0.0291
  286loPI   GL2 4566   1.242   1.487   9.263 -0.0174  0.0852 -0.1512
  286loPI   C1A 4567   0.726   1.371   9.283 -0.0760  0.3491  0.0087
  286loPI   C2A 4568   0.548   1.105   8.827  0.1287 -0.1123 -0.0239
  286loPI   C3A 4569   0.519   1.122   8.352  0.2719 -0.1190 -0.1408
  286loPI   C4A 4570   0.402   0.903   8.055  0.1126 -0.1358  0.2877
  286loPI   C5A 4571   0.184   0.711   7.610 -0.1595 -0.3431 -0.2059
  286loPI   C6A 4572  -0.125   0.419   7.493 -0.0575  0.1216 -0.0078
  286loPI   C1B 4573   1.073   1.199   9.014  0.0371  0.1938 -0.2415
  286loPI   C2B 4574   1.130   1.052   8.593  0.0887  0.1774 -0.0246
  286loPI   C3B 4575   1.082   0.973   8.191  0.2132  0.3422 -0.0867
  286loPI   C4B 4576   1.276   0.813   7.726  0.0252  0.2028  0.1824
  287loPI    C1 4577   7.511  16.176  10.137 -0.3260 -0.0951 -0.1351
  287loPI    C2 4578   7.248  16.408  10.329  0.0472  0.2191  0.0087
  287loPI    C3 4579   7.633  16.408  10.438  0.1180 -0.2138 -0.2164
  287loPI   PO4 4580   7.542  16.226   9.935  0.0093 -0.1096 -0.1840
  287loPI   GL1 4581   7.478  16.055   9.653  0.0203  0.0030  0.0323
  287loPI   GL2 4582   7.295  15.790   9.746  0.0251 -0.0792 -0.0748
  287loPI   C1A 4583   7.514  16.129   9.221 -0.0013  0.1414  0.1750
  287loPI   C2A 4584   7.491  15.969   8.869  0.0994  0.2196  0.0407
  287loPI   C3A 4585   7.278  15.766   8.480  0.1294  0.0895 -0.0905
  287loPI   C4A 4586   7.219  15.856   8.114 -0.1453  0.0484 -0.0494
  287loPI   C5A 4587   7.197  15.849   7.650  0.2273  0.0300  0.0362
  287loPI   C6A 4588   6.906  16.121   7.368  0.1292 -0.0737  0.2154
  287loPI   C1B 4589   7.464  15.645   9.298  0.0366 -0.2599  0.1179
  287loPI   C2B 4590   7.545  15.412   8.948  0.0724 -0.0680  0.0828
  287loPI   C3B 4591   7.673  15.522   8.587  0.0915  0.0170 -0.1905
  287loPI   C4B 4592   7.756  15.784   8.274  0.3533  0.2856  0.1932
  288loPI    C1 4593   9.066  14.001  10.479  0.0982 -0.0688  0.1806
  288loPI    C2 4594   8.792  14.068  10.762  0.0486 -0.1977  0.1639
  288loPI    C3 4595   9.180  14.114  10.845  0.0229 -0.0193  0.1888
  288loPI   PO4 4596   8.891  14.043  10.196  0.2416  0.1455  0.0338
  288loPI   GL1 4597   8.911  13.795   9.864 -0.0867  0.3292  0.2227
  288loPI   GL2 4598   9.099  13.478   9.850 -0.2127  0.5285  0.4049
  288loPI   C1A 4599   9.085  13.743   9.397  0.2184  0.0857  0.0782
  288loPI   C2A 4600   9.060  13.881   8.980  0.0990  0.1816 -0.1739
  288loPI   C3A 4601   8.919  13.905   8.587  0.3785  0.1178 -0.1404
  288loPI   C4A 4602   8.756  14.045   8.247 -0.0636 -0.0298  0.1296
  288loPI   C5A 4603   8.493  14.373   8.133  0.0336  0.1080  0.0600
  288loPI   C6A 4604   8.338  14.568   8.441  0.4928  0.3538  0.1065
  288loPI   C1B 4605   8.970  13.204   9.487  0.0222 -0.1334 -0.1723
  288loPI   C2B 4606   8.969  13.333   9.050  0.2904 -0.0330  0.3587
  288loPI   C3B 4607   8.724  13.526   8.825  0.3317  0.0914 -0.1377
  288loPI   C4B 4608   8.575  13.607   8.312  0.1102 -0.2848 -0.0371
  289loPI    C1 4609  14.167  11.252   9.970  0.1823  0.1638  0.1196
  289loPI    C2 4610  14.095  11.158  10.352  0.0502 -0.1096  0.0305
  289loPI    C3 4611  13.908  11.469  10.184 -0.0011 -0.0773  0.1463
  289loPI   PO4 4612  14.332  11.327   9.920 -0.0241  0.2061  0.0877
  289loPI   GL1 4613  14.565  11.336   9.507  0.1230 -0.0671 -0.3457
  289loPI   GL2 4614  14.390  11.671   9.397 -0.1007  0.2465  0.3330
  289loPI   C1A 4615  14.425  11.150   9.091  0.0570  0.3292  0.1054
  289loPI   C2A 4616  14.446  11.094   8.621 -0.1772  0.1129 -0.1863
  289loPI   C3A 4617  14.270  11.110   8.230  0.1219 -0.0473 -0.0737
  289loPI   C4A 4618  14.376  11.031   7.845 -0.1134  0.2436  0.2357
  289loPI   C5A 4619  14.690  10.902   7.609  0.1140 -0.1355 -0.0689
  289loPI   C6A 4620  15.050  10.774   7.481 -0.1156 -0.3853  0.0941
  289loPI   C1B 4621  14.556  11.613   9.033  0.0437  0.1094  0.1075
  289loPI   C2B 4622  14.571  11.597   8.589  0.1453 -0.0786  0.1370
  289loPI   C3B 4623  14.491  11.746   8.190  0.0678 -0.0041 -0.1747
  289loPI   C4B 4624  14.478  11.727   7.755  0.0328 -0.0781 -0.1501
  290loPI    C1 4625   9.919   3.854  10.258 -0.0041  0.0094 -0.1927
  290loPI    C2 4626   9.667   3.693  10.523  0.2279 -0.1224 -0.0481
  290loPI    C3 4627   9.804   4.065  10.578 -0.0459  0.0053 -0.2049
  290loPI   PO4 4628   9.926   3.686  10.086  0.2888 -0.0155  0.0624
  290loPI   GL1 4629   9.971   3.618   9.575 -0.0050 -0.0714 -0.0556
  290loPI   GL2 4630   9.790   3.343   9.496  0.0384 -0.2661  0.2079
  290loPI   C1A 4631  10.258   3.263   9.266  0.0867 -0.1025 -0.3119
  290loPI   C2A 4632  10.255   2.899   8.958  0.0105  0.1925  0.4194
  290loPI   C3A 4633  10.344   2.750   8.544 -0.1390  0.0896  0.2209
  290loPI   C4A 4634  10.679   2.840   8.444 -0.1660  0.3043  0.2625
  290loPI   C5A 4635  10.776   2.826   8.017 -0.0555 -0.1676 -0.0283
  290loPI   C6A 4636  10.748   2.658   7.661  0.3727  0.0405 -0.2210
  290loPI   C1B 4637   9.763   3.280   9.077 -0.3770 -0.4020 -0.2126
  290loPI   C2B 4638   9.947   3.166   8.697  0.0223  0.2134  0.0571
  290loPI   C3B 4639   9.880   3.213   8.231  0.3757 -0.2477 -0.0665
  290loPI   C4B 4640   9.643   3.651   8.051  0.0427  0.0689 -0.2444
  291loPI    C1 4641  14.210   2.833  10.263  0.2028 -0.1428 -0.0383
  291loPI    C2 4642  14.290   2.977  10.627  0.0095  0.0632 -0.0752
  291loPI    C3 4643  14.178   2.596  10.583  0.2547 -0.0258  0.0543
  291loPI   PO4 4644  14.401   2.831  10.021 -0.1064  0.0183  0.1775
  291loPI   GL1 4645  14.720   2.664   9.627  0.2549 -0.0476 -0.3429
  291loPI   GL2 4646  14.479   2.333   9.633  0.1713 -0.1059 -0.0727
  291loPI   C1A 4647  14.798   2.924   9.282  0.1094  0.1079 -0.2510
  291loPI   C2A 4648  14.647   3.244   8.949  0.2230  0.0257 -0.2357
  291loPI   C3A 4649  14.778   3.332   8.448  0.1586  0.4544  0.2833
  291loPI   C4A 4650  14.719   3.411   7.970 -0.2735 -0.0444  0.0110
  291loPI   C5A 4651  14.418   3.345   7.743 -0.0865  0.1230 -0.4659
  291loPI   C6A 4652  13.905   3.305   7.574 -0.1687  0.1824 -0.0020
  291loPI   C1B 4653  14.281   2.365   9.264 -0.1946  0.1318 -0.0717
  291loPI   C2B 4654  14.314   2.494   8.806  0.0356  0.2202 -0.1816
  291loPI   C3B 4655  14.107   2.320   8.445  0.1458  0.0726  0.2733
  291loPI   C4B 4656  13.859   2.124   8.059  0.0196  0.0720  0.1350
  292loPI    C1 4657   7.454  18.519  10.357 -0.0989  0.3008 -0.1193
  292loPI    C2 4658   7.726  18.775  10.499 -0.0190  0.0828  0.1273
  292loPI    C3 4659   7.504  18.559  10.751 -0.3029  0.1327 -0.0749
  292loPI   PO4 4660   7.547  18.421  10.174 -0.0503  0.2117 -0.2975
  292loPI   GL1 4661   7.607  18.546   9.793 -0.0051 -0.2618 -0.2964
  292loPI   GL2 4662   7.372  18.783   9.916 -0.0651 -0.1305 -0.0752
  292loPI   C1A 4663   7.605  18.488   9.320 -0.1166  0.3400 -0.0196
  292loPI   C2A 4664   7.975  18.449   9.157  0.3069  0.1301 -0.0941
  292loPI   C3A 4665   8.304  18.329   8.878  0.0092  0.1794 -0.0874
  292loPI   C4A 4666   8.662  18.077   8.664  0.0202  0.0546  0.1408
  292loPI   C5A 4667   8.726  17.963   8.248 -0.3156  0.3276  0.2641
  292loPI   C6A 4668   9.049  18.002   7.922 -0.0386  0.2048 -0.0510
  292loPI   C1B 4669   7.680  18.966   9.545 -0.2448  0.0463  0.1231
  292loPI   C2B 4670   7.659  19.169   9.006 -0.1344  0.0914  0.0427
  292loPI   C3B 4671   7.796  19.033   8.532  0.0646 -0.1078 -0.1881
  292loPI   C4B 4672   7.620  19.159   8.103  0.2014 -0.0747 -0.0484
  293loPI    C1 4673  10.343   0.112  10.495  0.2615 -0.1508  0.1054
  293loPI    C2 4674  10.445   0.483  10.604  0.3136 -0.1985  0.2209
  293loPI    C3 4675  10.172   0.426  10.317  0.2592 -0.0710  0.2470
  293loPI   PO4 4676  10.539   0.013  10.388 -0.1488  0.0572 -0.2744
  293loPI   GL1 4677  10.528  -0.137   9.904 -0.0849  0.3369  0.0528
  293loPI   GL2 4678  10.797  -0.034   9.849  0.2042  0.1399  0.2926
  293loPI   C1A 4679  10.558  -0.427   9.437 -0.2313  0.2932 -0.0225
  293loPI   C2A 4680  10.340  -0.518   9.130 -0.3298 -0.0788  0.4058
  293loPI   C3A 4681  10.202  -0.628   8.709  0.2943  0.2311 -0.0967
  293loPI   C4A 4682  10.286  -0.768   8.335 -0.1822 -0.0542 -0.1416
  293loPI   C5A 4683  10.558  -0.784   8.041 -0.0869  0.0954 -0.1408
  293loPI   C6A 4684  10.726  -0.630   7.605  0.1494 -0.0307 -0.2404
  293loPI   C1B 4685  10.816  -0.015   9.377  0.1575 -0.1210  0.0549
  293loPI   C2B 4686  10.512   0.044   8.966 -0.0407 -0.1074  0.2295
  293loPI   C3B 4687  10.276  -0.054   8.713  0.2456  0.0816  0.3517
  293loPI   C4B 4688  10.085  -0.261   8.341 -0.1580 -0.2096 -0.0150
  294loPI    C1 4689   9.299  15.182  10.176  0.0509 -0.0408 -0.1363
  294loPI    C2 4690   8.977  15.413  10.230  0.1294 -0.0080  0.2119
  294loPI    C3 4691   9.220  15.478   9.919 -0.1287  0.0472  0.0184
  294loPI   PO4 4692   9.278  14.882  10.179  0.1298 -0.1814  0.2075
  294loPI   GL1 4693   9.292  14.752   9.844 -0.0049  0.4712 -0.0541
  294loPI   GL2 4694   9.414  14.995   9.671 -0.0928 -0.1576 -0.3576
  294loPI   C1A 4695   9.189  14.685   9.417  0.0019 -0.1943 -0.0427
  294loPI   C2A 4696   8.928  14.759   9.060 -0.1165 -0.0748  0.2032
  294loPI   C3A 4697   8.842  14.909   8.661 -0.0261 -0.1343  0.1343
  294loPI   C4A 4698   9.049  15.019   8.211 -0.1182 -0.1158  0.0379
  294loPI   C5A 4699   9.210  14.954   7.729  0.0118  0.4130 -0.1854
  294loPI   C6A 4700   9.322  14.910   7.346  0.4044  0.0056 -0.0912
  294loPI   C1B 4701   9.429  14.951   9.114  0.2191  0.1658 -0.0721
  294loPI   C2B 4702   9.762  14.911   8.806 -0.1840  0.1630 -0.0017
  294loPI   C3B 4703   9.982  15.170   8.570  0.0827 -0.2264  0.1588
  294loPI   C4B 4704   9.971  15.210   8.101  0.2117 -0.0518  0.2877
  295loPI    C1 4705   9.927  14.547  10.452  0.0737  0.1611  0.0454
  295loPI    C2 4706  10.304  14.470  10.563  0.0218  0.2111  0.2606
  295loPI    C3 4707  10.172  14.848  10.550  0.0799  0.2216 -0.1521
  295loPI   PO4 4708   9.856  14.298  10.140 -0.0650 -0.0703  0.6922
  295loPI   GL1 4709   9.764  14.285   9.748 -0.0837  0.3867 -0.3375
  295loPI   GL2 4710   9.708  14.550   9.537  0.0407  0.1190 -0.0857
  295loPI   C1A 4711  10.005  14.133   9.453 -0.0907 -0.1142 -0.0147
  295loPI   C2A 4712  10.335  14.165   9.116  0.4584  0.0980  0.2215
  295loPI   C3A 4713  10.303  14.320   8.784  0.1464  0.0167  0.1179
  295loPI   C4A 4714  10.244  14.759   8.759 -0.2199 -0.1182 -0.2066
  295loPI   C5A 4715  10.170  14.999   9.079  0.1917 -0.0697 -0.0822
  295loPI   C6A 4716   9.825  15.027   9.407  0.1345 -0.1917 -0.2486
  295loPI   C1B 4717   9.858  14.502   9.165 -0.0537 -0.0065  0.1664
  295loPI   C2B 4718   9.840  14.242   8.762 -0.2476  0.2262 -0.1124
  295loPI   C3B 4719   9.800  14.382   8.415  0.1081 -0.2645 -0.3363
  295loPI   C4B 4720  10.029  14.746   8.274 -0.0019 -0.1056 -0.0206
  296loPI    C1 4721  18.779   7.478  10.134  0.3038  0.1385 -0.0879
  296loPI    C2 4722  18.712   7.871  10.108  0.2802  0.1477  0.0986
  296loPI    C3 4723  18.771   7.702  10.466  0.1280 -0.0454  0.0342
  296loPI   PO4 4724  18.816   7.466   9.803 -0.2434  0.0573 -0.0279
  296loPI   GL1 4725  19.038   7.140   9.530  0.2435  0.2802  0.0260
  296loPI   GL2 4726  18.760   7.061   9.536  0.1569 -0.1246  0.1946
  296loPI   C1A 4727  19.124   7.182   9.143  0.0101  0.3186  0.2409
  296loPI   C2A 4728  19.163   7.526   8.903  0.1911  0.0759 -0.2592
  296loPI   C3A 4729  19.269   7.588   8.493  0.0900 -0.1667 -0.2570
  296loPI   C4A 4730  19.469   7.613   8.133  0.0498  0.1418  0.0559
  296loPI   C5A 4731  19.465   7.733   7.796 -0.0134 -0.3867 -0.2044
  296loPI   C6A 4732  19.172   7.676   7.509  0.0898 -0.0671 -0.0214
  296loPI   C1B 4733  18.770   6.842   9.118  0.0236  0.1201 -0.1630
  296loPI   C2B 4734  18.725   6.750   8.666 -0.2237 -0.1925 -0.1038
  296loPI   C3B 4735  18.548   6.505   8.331 -0.0894 -0.1655  0.0987
  296loPI   C4B 4736  18.368   6.506   8.009  0.1628  0.1072 -0.0175
  297loPI    C1 4737  17.993  18.177   9.996  0.0726  0.2557  0.2096
  297loPI    C2 4738  17.595  18.160   9.956  0.0881 -0.0346  0.1547
  297loPI    C3 4739  17.770  18.015  10.286  0.1802 -0.3316 -0.0203
  297loPI   PO4 4740  18.121  18.090   9.728  0.1242  0.0683  0.0895
  297loPI   GL1 4741  18.414  18.147   9.453  0.2994  0.1701  0.3561
  297loPI   GL2 4742  18.574  18.018   9.135 -0.0761  0.0997 -0.5135
  297loPI   C1A 4743  18.212  18.312   9.063 -0.3376  0.1261  0.4845
  297loPI   C2A 4744  18.235  18.363   8.644 -0.2768  0.1177  0.1706
  297loPI   C3A 4745  18.518  18.089   8.397 -0.0043  0.0299  0.0280
  297loPI   C4A 4746  18.559  17.862   8.112  0.2750 -0.0854 -0.1618
  297loPI   C5A 4747  18.480  17.698   7.758  0.1731 -0.0275  0.2078
  297loPI   C6A 4748  18.703  17.518   7.381  0.0356 -0.1370 -0.0093
  297loPI   C1B 4749  18.854  18.064   8.791 -0.2259 -0.1534 -0.2785
  297loPI   C2B 4750  19.217  18.310   8.672 -0.1904  0.2093 -0.0842
  297loPI   C3B 4751  19.233  18.738   8.551 -0.0176 -0.3188  0.2368
  297loPI   C4B 4752  19.196  18.778   8.104 -0.1683 -0.3084 -0.0418
  298loPI    C1 4753  16.359   0.709  10.373  0.0240  0.0352 -0.0727
  298loPI    C2 4754  16.657   0.758  10.635 -0.0113  0.0703 -0.0390
  298loPI    C3 4755  16.660   0.446  10.384 -0.0281 -0.0191  0.0709
  298loPI   PO4 4756  16.353   0.982  10.187 -0.2500  0.0590 -0.3086
  298loPI   GL1 4757  16.516   1.144   9.760  0.0329 -0.0010 -0.2211
  298loPI   GL2 4758  16.745   1.293   9.667 -0.0161  0.1399 -0.0354
  298loPI   C1A 4759  16.446   0.822   9.459 -0.1481 -0.0499  0.0922
  298loPI   C2A 4760  16.210   0.599   9.154 -0.0776 -0.2154  0.3701
  298loPI   C3A 4761  16.173   0.484   8.772 -0.4459 -0.0176 -0.2987
  298loPI   C4A 4762  16.182   0.413   8.271 -0.1713 -0.0844 -0.1450
  298loPI   C5A 4763  16.412   0.397   7.894  0.0430 -0.1552  0.1403
  298loPI   C6A 4764  16.660   0.317   7.494  0.4393 -0.2987 -0.0733
  298loPI   C1B 4765  16.680   1.245   9.266 -0.0235  0.0059 -0.1770
  298loPI   C2B 4766  16.392   1.451   9.109  0.3926 -0.0055  0.1209
  298loPI   C3B 4767  16.156   1.756   8.751  0.0305  0.3629  0.1250
  298loPI   C4B 4768  15.854   1.846   8.438 -0.0697 -0.1152 -0.1794
  299loPI    C1 4769   8.177   8.882  10.284 -0.2183 -0.0143 -0.0113
  299loPI    C2 4770   8.310   9.206  10.091 -0.1064 -0.0684 -0.0253
  299loPI    C3 4771   7.947   9.208  10.258  0.0335  0.1930  0.2870
  299loPI   PO4 4772   8.219   8.682  10.157  0.0043 -0.0425  0.0463
  299loPI   GL1 4773   8.334   8.686   9.829 -0.0723  0.1116  0.0955
  299loPI   GL2 4774   8.547   8.476   9.764 -0.2674  0.0953 -0.0293
  299loPI   C1A 4775   8.193   8.621   9.392  0.0866 -0.0096 -0.0764
  299loPI   C2A 4776   8.278   8.419   9.067 -0.0333  0.1506 -0.1419
  299loPI   C3A 4777   8.463   8.276   8.699  0.1033 -0.3990 -0.2480
  299loPI   C4A 4778   8.677   7.993   8.476 -0.1159 -0.1351  0.0375
  299loPI   C5A 4779   8.775   7.729   8.043 -0.0011 -0.0111 -0.1032
  299loPI   C6A 4780   9.099   7.698   7.618  0.0409 -0.3297 -0.1814
  299loPI   C1B 4781   8.650   8.364   9.442 -0.1318  0.2292  0.1069
  299loPI   C2B 4782   8.758   8.346   9.108  0.2587 -0.0837 -0.0495
  299loPI   C3B 4783   8.997   8.440   8.728 -0.1223  0.0371 -0.1022
  299loPI   C4B 4784   8.966   8.443   8.278  0.0179  0.0151 -0.1266
  300loPI    C1 4785  17.757   7.896  10.291 -0.0872 -0.2161 -0.0488
  300loPI    C2 4786  17.441   7.851  10.532 -0.0545  0.0524  0.0484
  300loPI    C3 4787  17.801   7.723  10.649 -0.0883 -0.0644  0.0256
  300loPI   PO4 4788  17.737   7.730  10.063 -0.0875  0.2151  0.0247
  300loPI   GL1 4789  17.521   7.651   9.743  0.2243 -0.1420 -0.1982
  300loPI   GL2 4790  17.222   7.828   9.638 -0.0323 -0.0644  0.0528
  300loPI   C1A 4791  17.667   7.647   9.349  0.0194  0.1624  0.1140
  300loPI   C2A 4792  17.652   7.917   8.939 -0.3591  0.1351 -0.2227
  300loPI   C3A 4793  17.382   8.017   8.727  0.2444 -0.1724  0.0605
  300loPI   C4A 4794  17.610   8.034   8.339 -0.0484 -0.1157 -0.0108
  300loPI   C5A 4795  17.704   7.942   7.940 -0.5218 -0.0792 -0.0352
  300loPI   C6A 4796  17.839   7.767   7.531  0.0512  0.1585 -0.0699
  300loPI   C1B 4797  17.201   7.786   9.182  0.2193 -0.1122 -0.3058
  300loPI   C2B 4798  17.036   7.714   8.745 -0.0265 -0.0119 -0.2384
  300loPI   C3B 4799  17.172   7.671   8.273 -0.0037  0.2730  0.0886
  300loPI   C4B 4800  17.371   7.576   7.793  0.0949  0.1553 -0.2086
  301loPI    C1 4801   6.655   1.894  10.100 -0.0591  0.2248 -0.0650
  301loPI    C2 4802   6.605   2.015  10.478 -0.1091  0.0468 -0.0135
  301loPI    C3 4803   6.638   2.284  10.185  0.1746  0.1919  0.1472
  301loPI   PO4 4804   6.689   1.609  10.013  0.3944  0.1601  0.0276
  301loPI   GL1 4805   6.872   1.484   9.739  0.2075  0.2788 -0.1941
  301loPI   GL2 4806   6.867   1.309   9.518 -0.0846  0.1074  0.1761
  301loPI   C1A 4807   7.229   1.723   9.452  0.0903 -0.4740  0.1720
  301loPI   C2A 4808   7.387   1.816   9.050 -0.1710  0.2019  0.1779
  301loPI   C3A 4809   7.387   1.779   8.595 -0.4912 -0.0444  0.3557
  301loPI   C4A 4810   7.412   1.686   8.158  0.2662  0.0537 -0.2103
  301loPI   C5A 4811   7.755   1.672   7.832 -0.1273  0.1153 -0.3195
  301loPI   C6A 4812   8.157   1.532   7.930 -0.1921 -0.1286 -0.2277
  301loPI   C1B 4813   7.002   1.453   9.189  0.2256  0.1991  0.0628
  301loPI   C2B 4814   7.104   1.398   8.767 -0.3283 -0.0777  0.1589
  301loPI   C3B 4815   7.104   1.348   8.361 -0.1567  0.0494  0.1299
  301loPI   C4B 4816   7.167   1.301   7.971 -0.0436  0.2369  0.4404
  302loPI    C1 4817   0.557   3.479  10.042 -0.2022 -0.0140 -0.0137
  302loPI    C2 4818   0.755   3.468  10.389 -0.2385  0.1576  0.0131
  302loPI    C3 4819   0.565   3.142  10.258 -0.1352  0.0608  0.1018
  302loPI   PO4 4820   0.640   3.684   9.881 -0.0020 -0.1395  0.0849
  302loPI   GL1 4821   0.527   3.627   9.562  0.1195  0.1347  0.0200
  302loPI   GL2 4822   0.602   3.790   9.376  0.3112 -0.2283  0.0222
  302loPI   C1A 4823   0.285   3.407   9.282  0.4799  0.0233 -0.1374
  302loPI   C2A 4824   0.242   3.408   8.784 -0.1586 -0.3030  0.1527
  302loPI   C3A 4825   0.135   3.629   8.431  0.0052 -0.0559  0.1055
  302loPI   C4A 4826   0.135   3.577   8.038 -0.1277  0.1068 -0.1836
  302loPI   C5A 4827   0.283   3.562   7.634 -0.5620 -0.0059 -0.1929
  302loPI   C6A 4828   0.415   3.193   7.338  0.3309  0.1169 -0.1228
  302loPI   C1B 4829   0.458   3.869   8.996  0.1689 -0.0358  0.1518
  302loPI   C2B 4830   0.404   3.979   8.598 -0.1450 -0.2338  0.0915
  302loPI   C3B 4831   0.360   4.019   8.128  0.1012 -0.1000  0.0675
  302loPI   C4B 4832   0.604   4.053   7.849  0.1509 -0.2403  0.0736
  303loPI    C1 4833  18.087   8.871  10.305  0.1904  0.2586 -0.0254
  303loPI    C2 4834  18.089   9.063  10.655  0.1094  0.0618  0.0847
  303loPI    C3 4835  17.967   8.683  10.636  0.2094  0.0392 -0.1408
  303loPI   PO4 4836  18.071   9.150  10.147  0.0510  0.2682 -0.0514
  303loPI   GL1 4837  18.011   9.113   9.775 -0.0871 -0.1736  0.1173
  303loPI   GL2 4838  17.761   9.150   9.586 -0.1314 -0.3630  0.0050
  303loPI   C1A 4839  18.174   9.077   9.344  0.3132  0.1236 -0.0585
  303loPI   C2A 4840  18.148   9.229   9.015 -0.4332  0.0531 -0.0575
  303loPI   C3A 4841  18.292   9.236   8.609  0.1050  0.0706  0.0501
  303loPI   C4A 4842  18.148   9.071   8.221  0.1025  0.3653  0.2113
  303loPI   C5A 4843  18.163   8.872   7.796  0.1265 -0.0326 -0.2137
  303loPI   C6A 4844  17.903   8.782   7.341  0.0523 -0.0629 -0.4267
  303loPI   C1B 4845  17.747   8.975   9.116  0.0295 -0.1476  0.0876
  303loPI   C2B 4846  17.850   8.803   8.600  0.0771 -0.0064  0.1291
  303loPI   C3B 4847  17.751   8.474   8.370 -0.1930  0.2515  0.1421
  303loPI   C4B 4848  17.925   8.457   7.996 -0.0627 -0.0102 -0.3211
  304loPI    C1 4849   8.647  13.257  10.572 -0.1363 -0.0756  0.1380
  304loPI    C2 4850   8.259  13.345  10.610 -0.0912  0.1525  0.0858
  304loPI    C3 4851   8.520  13.471  10.885 -0.0438  0.0628  0.0820
  304loPI   PO4 4852   8.661  13.228  10.245 -0.0539 -0.1120  0.2046
  304loPI   GL1 4853   8.639  13.149   9.791  0.0205  0.0869  0.1433
  304loPI   GL2 4854   8.643  12.791   9.701 -0.0350  0.0412 -0.0481
  304loPI   C1A 4855   8.529  12.928   9.277 -0.0196 -0.5394 -0.2810
  304loPI   C2A 4856   8.139  13.063   9.075  0.0291 -0.3168 -0.0354
  304loPI   C3A 4857   7.865  13.163   8.782  0.0531 -0.2181 -0.1624
  304loPI   C4A 4858   7.823  13.204   8.370  0.2864  0.1363  0.2669
  304loPI   C5A 4859   7.766  13.276   8.027 -0.2790 -0.2464 -0.0822
  304loPI   C6A 4860   7.976  13.084   7.814 -0.0971 -0.1452  0.0627
  304loPI   C1B 4861   8.944  12.705   9.377  0.2143 -0.1029 -0.0533
  304loPI   C2B 4862   8.839  12.581   8.933  0.0389  0.0891 -0.0706
  304loPI   C3B 4863   8.980  12.300   8.688  0.0483  0.0670  0.2286
  304loPI   C4B 4864   9.068  11.922   8.642  0.1257  0.0467  0.0687
  305loPI    C1 4865  13.621  18.057  11.144 -0.0806  0.0139  0.0535
  305loPI    C2 4866  13.977  17.909  11.038 -0.0713 -0.0665  0.1948
  305loPI    C3 4867  13.849  17.871  11.415 -0.2195 -0.0173  0.1497
  305loPI   PO4 4868  13.549  18.157  10.814  0.1516  0.0459  0.1770
  305loPI   GL1 4869  13.530  18.095  10.338  0.2600  0.1510 -0.1124
  305loPI   GL2 4870  13.733  17.846  10.140 -0.1258 -0.0182 -0.2554
  305loPI   C1A 4871  13.607  18.185   9.833 -0.1192 -0.0715 -0.0120
  305loPI   C2A 4872  13.806  18.330   9.466 -0.2007  0.1398  0.0508
  305loPI   C3A 4873  14.078  18.370   9.113 -0.0948  0.1827 -0.2420
  305loPI   C4A 4874  14.130  18.229   8.745 -0.1802  0.1435  0.4972
  305loPI   C5A 4875  13.883  18.000   8.363 -0.2875 -0.3095  0.0663
  305loPI   C6A 4876  13.692  18.190   7.990  0.1071 -0.0283  0.0385
  305loPI   C1B 4877  13.739  17.648   9.747  0.0146  0.1939  0.0707
  305loPI   C2B 4878  13.933  17.749   9.410  0.0440  0.3417 -0.0436
  305loPI   C3B 4879  14.152  17.729   9.020 -0.0081 -0.0119 -0.0005
  305loPI   C4B 4880  14.375  17.721   8.586  0.4007 -0.0616  0.3125
  306loPI    C1 4881  14.247   8.437  10.001 -0.3933 -0.2090  0.1997
  306loPI    C2 4882  14.413   8.094   9.880 -0.1704 -0.0786  0.1305
  306loPI    C3 4883  14.176   8.099  10.202  0.0033 -0.2588  0.2633
  306loPI   PO4 4884  14.095   8.574   9.717  0.0949  0.0338 -0.1181
  306loPI   GL1 4885  14.179   8.247   9.337 -0.1459  0.0625  0.2216
  306loPI   GL2 4886  14.328   8.439   9.124 -0.1091 -0.2576  0.0377
  306loPI   C1A 4887  13.752   8.114   9.073 -0.1828  0.2110  0.1880
  306loPI   C2A 4888  13.765   7.976   8.646  0.2408 -0.1452 -0.0565
  306loPI   C3A 4889  13.812   8.135   8.232 -0.0864  0.2680  0.0226
  306loPI   C4A 4890  13.677   7.948   7.831  0.2409 -0.0204  0.0602
  306loPI   C5A 4891  13.621   7.594   7.564  0.0539  0.0851  0.3068
  306loPI   C6A 4892  13.816   7.089   7.625 -0.1782  0.0203 -0.0944
  306loPI   C1B 4893  14.195   8.233   8.814 -0.1191 -0.1298  0.2031
  306loPI   C2B 4894  14.228   8.358   8.367  0.0148  0.1563  0.2115
  306loPI   C3B 4895  14.214   8.293   7.913 -0.1994  0.1827  0.3158
  306loPI   C4B 4896  14.418   8.093   7.550 -0.0158  0.0280 -0.0974
  307loPI    C1 4897   9.027  10.380  10.087  0.0384  0.0827 -0.0072
  307loPI    C2 4898   9.232  10.537  10.393 -0.0994  0.1113  0.0711
  307loPI    C3 4899   8.874  10.369  10.457 -0.0550 -0.0303 -0.0484
  307loPI   PO4 4900   9.235  10.310   9.932  0.2193 -0.1369  0.0632
  307loPI   GL1 4901   9.393  10.022   9.560 -0.2758 -0.3066  0.1117
  307loPI   GL2 4902   9.326   9.804   9.539 -0.3719  0.1672 -0.1202
  307loPI   C1A 4903   9.374  10.112   9.170 -0.1573 -0.1317  0.1108
  307loPI   C2A 4904   9.297   9.966   8.708 -0.3685 -0.1520  0.4465
  307loPI   C3A 4905   9.268   9.782   8.334 -0.1949 -0.0735  0.1078
  307loPI   C4A 4906   8.970   9.784   7.921 -0.2491 -0.4819  0.1787
  307loPI   C5A 4907   8.815  10.014   7.546  0.0732 -0.0753 -0.0820
  307loPI   C6A 4908   8.332   9.971   7.424 -0.3705 -0.0141 -0.0030
  307loPI   C1B 4909   9.263   9.602   9.136  0.3343  0.2870  0.2567
  307loPI   C2B 4910   9.272   9.419   8.683 -0.0348 -0.1636 -0.2220
  307loPI   C3B 4911   9.177   9.345   8.182 -0.0153 -0.0255 -0.2650
  307loPI   C4B 4912   9.180   9.320   7.783 -0.0205  0.2640  0.0198
  308loPI    C1 4913   5.902  15.499  10.229  0.1712  0.0404  0.0697
  308loPI    C2 4914   5.983  15.144  10.394 -0.2287 -0.1715 -0.1730
  308loPI    C3 4915   5.692  15.373  10.545 -0.2921 -0.1628 -0.3073
  308loPI   PO4 4916   6.024  15.489   9.956  0.1350  0.0224 -0.1632
  308loPI   GL1 4917   6.089  15.284   9.675  0.0623 -0.0102  0.1700
  308loPI   GL2 4918   5.703  15.467   9.467 -0.0878 -0.2386 -0.1748
  308loPI   C1A 4919   6.163  15.038   9.327 -0.1834 -0.0615  0.0134
  308loPI   C2A 4920   6.191  15.106   8.898  0.0539 -0.2205  0.0920
  308loPI   C3A 4921   6.095  15.249   8.484 -0.1441 -0.1221  0.1128
  308loPI   C4A 4922   5.886  15.263   8.143  0.0682 -0.1342  0.0542
  308loPI   C5A 4923   5.963  15.563   7.785  0.3516  0.1822 -0.2271
  308loPI   C6A 4924   5.989  15.888   7.401  0.2636 -0.0223  0.1778
  308loPI   C1B 4925   6.043  15.540   9.237  0.0244 -0.0777  0.1863
  308loPI   C2B 4926   6.194  15.715   8.898 -0.2710  0.2521 -0.0899
  308loPI   C3B 4927   6.287  15.738   8.522 -0.1007  0.1552  0.1388
  308loPI   C4B 4928   6.385  15.609   8.104 -0.1364 -0.0508 -0.0598
  309loPI    C1 4929   4.055   2.304  10.278 -0.1119  0.0493  0.0500
  309loPI    C2 4930   3.881   2.149  10.603  0.0145 -0.0266  0.0824
  309loPI    C3 4931   4.021   2.524  10.610  0.1835 -0.0905  0.1766
  309loPI   PO4 4932   3.891   2.329  10.070  0.1055 -0.1161 -0.3218
  309loPI   GL1 4933   3.953   2.281   9.668 -0.0146 -0.4659  0.2373
  309loPI   GL2 4934   4.107   2.008   9.704  0.4905 -0.1156 -0.3357
  309loPI   C1A 4935   3.974   2.256   9.232 -0.0111 -0.0533  0.2658
  309loPI   C2A 4936   4.031   2.265   8.850  0.0041  0.0825 -0.0558
  309loPI   C3A 4937   4.027   2.279   8.377 -0.3657  0.0935 -0.1215
  309loPI   C4A 4938   4.046   2.010   7.971 -0.3501  0.0360 -0.0068
  309loPI   C5A 4939   4.204   1.602   7.625 -0.1008  0.1879  0.0223
  309loPI   C6A 4940   4.083   1.423   7.242  0.1637 -0.4202 -0.0897
  309loPI   C1B 4941   4.352   2.011   9.338  0.0269  0.3500 -0.1576
  309loPI   C2B 4942   4.462   2.109   8.913  0.3402  0.0459  0.3393
  309loPI   C3B 4943   4.497   2.065   8.522  0.3106  0.0328 -0.0278
  309loPI   C4B 4944   4.797   2.007   8.319 -0.2588 -0.0154 -0.0000
  310loPI    C1 4945   6.122   7.948  10.222 -0.1117  0.1029  0.0064
  310loPI    C2 4946   5.970   7.979  10.591  0.0805 -0.0461  0.1002
  310loPI    C3 4947   6.227   8.255  10.457 -0.0203  0.0299  0.0616
  310loPI   PO4 4948   6.176   7.569  10.300  0.0070  0.0725  0.3731
  310loPI   GL1 4949   6.431   7.314  10.024 -0.0016 -0.1621 -0.3555
  310loPI   GL2 4950   6.455   7.654   9.881 -0.2464 -0.1823 -0.3414
  310loPI   C1A 4951   6.576   7.092   9.657 -0.0885  0.2172 -0.1665
  310loPI   C2A 4952   6.807   7.070   9.346  0.2274  0.1695  0.1658
  310loPI   C3A 4953   6.752   6.937   8.884  0.3310 -0.2734 -0.2851
  310loPI   C4A 4954   6.822   6.815   8.547 -0.1927  0.0528  0.2827
  310loPI   C5A 4955   6.755   6.843   8.101  0.2252  0.0421 -0.4243
  310loPI   C6A 4956   6.882   6.576   7.797  0.0030  0.0836 -0.0115
  310loPI   C1B 4957   6.289   7.833   9.509 -0.0988 -0.2211 -0.2138
  310loPI   C2B 4958   6.145   7.772   9.143 -0.1351  0.1911  0.1455
  310loPI   C3B 4959   6.175   7.640   8.765 -0.1139  0.0160  0.1632
  310loPI   C4B 4960   6.203   7.731   8.374  0.6234  0.2517  0.2193
  311loPI    C1 4961   5.203  12.303   9.913 -0.0316  0.0521 -0.0459
  311loPI    C2 4962   5.173  11.911   9.839  0.3488  0.0286 -0.0961
  311loPI    C3 4963   5.355  12.038  10.172  0.0115  0.1612  0.0414
  311loPI   PO4 4964   5.285  12.345   9.651 -0.3398 -0.0945 -0.4015
  311loPI   GL1 4965   5.569  12.185   9.250 -0.2827  0.1348 -0.1667
  311loPI   GL2 4966   5.960  12.231   9.322  0.0062  0.1582  0.0299
  311loPI   C1A 4967   5.361  12.161   8.895  0.0638  0.1791  0.0797
  311loPI   C2A 4968   5.367  12.257   8.403 -0.0268 -0.2202  0.0161
  311loPI   C3A 4969   5.260  11.996   8.143  0.0640 -0.0200 -0.1852
  311loPI   C4A 4970   5.321  11.577   8.154  0.0369  0.0338  0.2456
  311loPI   C5A 4971   5.630  11.384   7.906  0.0162  0.1402  0.0740
  311loPI   C6A 4972   6.040  11.209   7.676 -0.1182  0.1947 -0.3484
  311loPI   C1B 4973   5.903  12.178   8.899 -0.1404 -0.0985 -0.1591
  311loPI   C2B 4974   5.773  11.921   8.673  0.2355 -0.1757 -0.0189
  311loPI   C3B 4975   5.756  11.966   8.248  0.2535 -0.1106 -0.0979
  311loPI   C4B 4976   5.664  11.855   7.810  0.1121 -0.0965  0.1048
  312loPI    C1 4977   2.319  14.572   9.999  0.0548 -0.1198  0.0455
  312loPI    C2 4978   2.635  14.465   9.778  0.0019 -0.1433 -0.0191
  312loPI    C3 4979   2.457  14.197  10.015  0.1267 -0.0898  0.1366
  312loPI   PO4 4980   2.323  14.913   9.919 -0.2507 -0.0723 -0.1421
  312loPI   GL1 4981   2.268  14.999   9.557  0.0374 -0.0344  0.3322
  312loPI   GL2 4982   2.686  15.002   9.566  0.0425  0.4945 -0.0927
  312loPI   C1A 4983   2.386  14.992   9.116  0.0697 -0.0394  0.0719
  312loPI   C2A 4984   2.659  14.948   8.801  0.0510  0.1821 -0.0044
  312loPI   C3A 4985   3.045  14.988   8.591  0.3962 -0.2438  0.1235
  312loPI   C4A 4986   3.012  15.029   8.154  0.2146  0.1357 -0.1812
  312loPI   C5A 4987   3.021  15.109   7.782  0.1562 -0.0578  0.0026
  312loPI   C6A 4988   2.701  15.289   7.587  0.1932  0.3100  0.2621
  312loPI   C1B 4989   2.860  15.109   9.226 -0.2971  0.0045  0.1589
  312loPI   C2B 4990   3.200  15.414   8.967  0.3232 -0.1290 -0.0757
  312loPI   C3B 4991   3.246  15.559   8.503  0.1344 -0.0443 -0.2729
  312loPI   C4B 4992   3.298  15.429   8.101  0.1022  0.2081 -0.2032
  313loPI    C1 4993   7.254   0.133  10.568 -0.0581 -0.1453  0.0582
  313loPI    C2 4994   7.464   0.185  10.905 -0.0369  0.0514  0.0158
  313loPI    C3 4995   7.119  -0.018  10.913  0.1509 -0.2721  0.0862
  313loPI   PO4 4996   7.431   0.402  10.412 -0.1896 -0.0172 -0.1862
  313loPI   GL1 4997   7.475   0.416  10.001 -0.1871 -0.1355  0.1156
  313loPI   GL2 4998   7.382   0.780   9.823  0.2540 -0.3101 -0.0163
  313loPI   C1A 4999   7.283   0.396   9.569 -0.4464  0.0580 -0.0684
  313loPI   C2A 5000   7.213   0.457   9.064 -0.3029 -0.1787 -0.1806
  313loPI   C3A 5001   7.274   0.320   8.608 -0.3398  0.1730 -0.2695
  313loPI   C4A 5002   7.324   0.027   8.366 -0.4721 -0.1786 -0.0288
  313loPI   C5A 5003   7.280  -0.082   7.962 -0.3097  0.0877 -0.0141
  313loPI   C6A 5004   7.698  -0.290   7.672 -0.0199 -0.2444 -0.2521
  313loPI   C1B 5005   7.570   0.810   9.449 -0.0928  0.1244 -0.0362
  313loPI   C2B 5006   7.648   0.826   9.066  0.1605  0.2960  0.2142
  313loPI   C3B 5007   7.622   0.668   8.652  0.1096 -0.1739 -0.0093
  313loPI   C4B 5008   7.865   0.781   8.236  0.0220  0.1241  0.0986
  314loPI    C1 5009  13.684   7.955  10.142 -0.0629  0.0476 -0.2247
  314loPI    C2 5010  13.494   7.827  10.470  0.1855 -0.0263 -0.1076
  314loPI    C3 5011  13.718   8.158  10.485  0.3278 -0.1196 -0.1598
  314loPI   PO4 5012  13.468   7.969   9.996 -0.2056 -0.0272  0.1441
  314loPI   GL1 5013  13.239   7.780   9.728  0.2075 -0.0514 -0.0215
  314loPI   GL2 5014  13.284   7.997   9.477  0.1256  0.0694 -0.0358
  314loPI   C1A 5015  12.910   7.563   9.506  0.0553  0.0505  0.0395
  314loPI   C2A 5016  12.604   7.533   9.214 -0.1105  0.0100 -0.0442
  314loPI   C3A 5017  12.564   7.372   8.883 -0.0515 -0.1731  0.1198
  314loPI   C4A 5018  12.375   7.426   8.543  0.3428 -0.0088  0.1376
  314loPI   C5A 5019  12.011   7.338   8.456  0.1507  0.0775  0.1233
  314loPI   C6A 5020  11.753   7.115   8.470  0.1427 -0.1494 -0.1089
  314loPI   C1B 5021  13.312   7.862   9.018  0.2082  0.0951  0.2507
  314loPI   C2B 5022  13.356   7.641   8.676  0.0067 -0.3141  0.3793
  314loPI   C3B 5023  13.333   7.361   8.272 -0.0593 -0.3698 -0.3825
  314loPI   C4B 5024  13.268   7.143   7.874 -0.0257 -0.3196 -0.2719
  315loPI    C1 5025   4.393  16.026  10.257 -0.0960  0.1593 -0.2530
  315loPI    C2 5026   4.397  15.628  10.299  0.1073  0.1776 -0.0801
  315loPI    C3 5027   4.305  15.860  10.611 -0.1561  0.2635 -0.2187
  315loPI   PO4 5028   4.621  16.055  10.064  0.0487  0.0737 -0.0697
  315loPI   GL1 5029   4.622  16.193   9.705 -0.2269  0.1659  0.2677
  315loPI   GL2 5030   4.312  16.179   9.669  0.0230  0.0398 -0.1825
  315loPI   C1A 5031   4.515  16.065   9.237 -0.0473 -0.1447 -0.0664
  315loPI   C2A 5032   4.579  15.699   9.124  0.0747  0.2125  0.0844
  315loPI   C3A 5033   4.725  15.593   8.753 -0.3493  0.0888 -0.0837
  315loPI   C4A 5034   4.857  15.555   8.377 -0.0026 -0.1491  0.0000
  315loPI   C5A 5035   4.795  15.570   7.895  0.0217 -0.1191 -0.4728
  315loPI   C6A 5036   4.654  15.856   7.436 -0.1553 -0.4867  0.1126
  315loPI   C1B 5037   4.099  16.305   9.355 -0.2210 -0.1462  0.3810
  315loPI   C2B 5038   4.112  16.149   8.857  0.2924  0.0493  0.1390
  315loPI   C3B 5039   4.272  15.915   8.563 -0.0658 -0.3787  0.3639
  315loPI   C4B 5040   4.371  15.706   8.183  0.0734  0.0812  0.2222
  316loPI    C1 5041   3.168  11.138   9.850 -0.1366  0.0404  0.1225
  316loPI    C2 5042   2.886  11.376  10.004 -0.0948  0.1162  0.0824
  316loPI    C3 5043   3.265  11.501   9.985 -0.1148  0.1443 -0.1662
  316loPI   PO4 5044   2.949  10.895   9.664  0.3606 -0.4516 -0.0648
  316loPI   GL1 5045   2.705  10.851   9.326 -0.0512  0.2701  0.4212
  316loPI   GL2 5046   2.756  10.521   9.306 -0.2633  0.1958  0.0741
  316loPI   C1A 5047   2.971  10.738   8.875  0.0208  0.2206 -0.0189
  316loPI   C2A 5048   3.078  10.698   8.549  0.2558  0.0723 -0.2238
  316loPI   C3A 5049   3.051  10.681   8.176  0.1168 -0.2107 -0.0069
  316loPI   C4A 5050   2.847  10.583   7.717 -0.1963  0.1873  0.2226
  316loPI   C5A 5051   2.903  10.361   7.297 -0.0560 -0.0743 -0.2752
  316loPI   C6A 5052   3.261  10.135   7.114  0.1550 -0.0312 -0.0002
  316loPI   C1B 5053   2.706  10.300   8.919 -0.1183  0.0568  0.2371
  316loPI   C2B 5054   2.783  10.273   8.485  0.4133  0.0687  0.0419
  316loPI   C3B 5055   2.918  10.206   8.035  0.1031 -0.0151  0.0684
  316loPI   C4B 5056   3.153   9.797   7.987  0.1409  0.0732  0.0858
  317loPI    C1 5057  11.539   3.931  10.386 -0.0470  0.1867  0.0835
  317loPI    C2 5058  11.469   3.844  10.770  0.1482  0.1940  0.1216
  317loPI    C3 5059  11.835   3.955  10.654  0.0824  0.2222 -0.0615
  317loPI   PO4 5060  11.475   3.729  10.270 -0.4371  0.2688  0.1223
  317loPI   GL1 5061  11.344   3.791   9.835  0.2201 -0.2822  0.2242
  317loPI   GL2 5062  11.624   3.604   9.809 -0.1219 -0.1827  0.0543
  317loPI   C1A 5063  11.148   3.791   9.346 -0.1245  0.4125  0.1165
  317loPI   C2A 5064  11.395   3.822   8.957 -0.0376 -0.0979  0.0116
  317loPI   C3A 5065  11.631   3.692   8.487  0.0807 -0.2754  0.0489
  317loPI   C4A 5066  11.604   3.641   8.041  0.0976 -0.2072 -0.1596
  317loPI   C5A 5067  11.606   3.834   7.655  0.2079  0.2947  0.0769
  317loPI   C6A 5068  11.838   4.031   7.630 -0.0008  0.2041 -0.0087
  317loPI   C1B 5069  11.553   3.505   9.323 -0.1495  0.1420 -0.1370
  317loPI   C2B 5070  11.821   3.468   8.924  0.1676  0.2784 -0.2373
  317loPI   C3B 5071  11.762   3.269   8.589  0.0006 -0.1176  0.2136
  317loPI   C4B 5072  11.687   3.034   8.242 -0.0844 -0.5502  0.0748
  318loPI    C1 5073  10.507  11.196  10.220 -0.0126 -0.0662 -0.0748
  318loPI    C2 5074  10.640  11.146  10.594  0.0569 -0.1717 -0.1131
  318loPI    C3 5075  10.332  11.392  10.523  0.0934 -0.0912  0.0032
  318loPI   PO4 5076  10.782  11.209  10.100 -0.0654 -0.2564 -0.1332
  318loPI   GL1 5077  10.931  11.247   9.692  0.0641  0.0273 -0.1818
  318loPI   GL2 5078  10.787  11.403   9.554  0.1428 -0.0490  0.0484
  318loPI   C1A 5079  10.969  10.939   9.295 -0.1263 -0.2375 -0.0691
  318loPI   C2A 5080  10.864  10.853   8.892  0.2283  0.3977 -0.3015
  318loPI   C3A 5081  10.879  10.716   8.535  0.0108  0.0036  0.1997
  318loPI   C4A 5082  10.893  10.954   8.148  0.1558 -0.1345 -0.0101
  318loPI   C5A 5083  10.906  11.092   7.624  0.0138  0.0523 -0.3179
  318loPI   C6A 5084  10.941  10.918   7.183  0.0525 -0.2012  0.0595
  318loPI   C1B 5085  10.806  11.487   9.154 -0.2280 -0.3494 -0.4699
  318loPI   C2B 5086  10.820  11.293   8.754  0.1633 -0.1880 -0.1867
  318loPI   C3B 5087  10.802  11.392   8.371  0.1580  0.0198  0.2143
  318loPI   C4B 5088  10.775  11.441   8.012  0.0728  0.1147  0.4087
  319loPI    C1 5089  10.376  15.288  10.370 -0.0655 -0.2046 -0.1447
  319loPI    C2 5090  10.143  15.345  10.690  0.0500 -0.1230 -0.0745
  319loPI    C3 5091  10.517  15.211  10.736  0.0972 -0.0252 -0.1676
  319loPI   PO4 5092  10.144  15.138  10.154 -0.2239 -0.1463  0.6377
  319loPI   GL1 5093  10.175  15.099   9.715  0.1850 -0.0734  0.0466
  319loPI   GL2 5094  10.233  15.294   9.687  0.1570  0.0231 -0.0123
  319loPI   C1A 5095  10.368  14.815   9.476 -0.1402  0.0453  0.0984
  319loPI   C2A 5096  10.551  14.622   9.165  0.0291 -0.0779  0.0453
  319loPI   C3A 5097  10.753  14.351   8.974  0.1193 -0.0084 -0.0064
  319loPI   C4A 5098  10.874  14.302   8.477  0.1083 -0.1688 -0.1294
  319loPI   C5A 5099  10.952  14.504   8.121 -0.0714  0.1987  0.0330
  319loPI   C6A 5100  10.852  14.898   8.008  0.2515  0.0159  0.1523
  319loPI   C1B 5101  10.105  15.425   9.280 -0.1554 -0.0603  0.2718
  319loPI   C2B 5102   9.754  15.400   8.956  0.1861 -0.0094  0.0409
  319loPI   C3B 5103   9.591  15.782   8.633 -0.0774  0.0399  0.2485
  319loPI   C4B 5104   9.334  16.119   8.491  0.0208 -0.1077  0.2152
  320loPI    C1 5105   7.951  15.294  10.194 -0.1079 -0.0348  0.1222
  320loPI    C2 5106   7.739  15.480  10.477 -0.1806  0.2823 -0.1346
  320loPI    C3 5107   8.134  15.436  10.520 -0.2096  0.2116  0.0739
  320loPI   PO4 5108   7.674  15.148  10.068  0.1476 -0.3264 -0.2235
  320loPI   GL1 5109   7.530  15.268   9.658 -0.0430  0.1528  0.2414
  320loPI   GL2 5110   7.606  15.037   9.422 -0.0297  0.1597  0.0445
  320loPI   C1A 5111   7.912  15.427   9.292  0.1937  0.3612  0.1179
  320loPI   C2A 5112   8.137  15.445   8.892  0.0949 -0.0973  0.0101
  320loPI   C3A 5113   8.197  15.476   8.448  0.4082 -0.1435 -0.0366
  320loPI   C4A 5114   8.690  15.524   8.206  0.0474 -0.0594  0.2022
  320loPI   C5A 5115   8.892  15.361   7.854  0.1482  0.1227  0.2190
  320loPI   C6A 5116   8.931  15.218   7.387  0.0544 -0.1922  0.0315
  320loPI   C1B 5117   7.771  14.934   8.996  0.2411 -0.0187  0.3238
  320loPI   C2B 5118   7.820  15.043   8.593 -0.0221 -0.0081  0.0233
  320loPI   C3B 5119   8.022  14.890   8.223 -0.0673  0.1299 -0.2735
  320loPI   C4B 5120   8.206  14.678   7.884  0.1665 -0.0211  0.2420
  321loPI    C1 5121  13.019  18.848  10.597  0.0070 -0.0405 -0.1801
  321loPI    C2 5122  13.239  19.134  10.770 -0.1622  0.0981 -0.1913
  321loPI    C3 5123  13.054  18.861  10.996 -0.2184  0.1579 -0.1648
  321loPI   PO4 5124  13.199  18.872  10.330  0.2214  0.1447 -0.0941
  321loPI   GL1 5125  13.173  19.135   9.942  0.1426 -0.1133 -0.2375
  321loPI   GL2 5126  13.146  19.297   9.657 -0.2088 -0.1419  0.1215
  321loPI   C1A 5127  12.948  18.831   9.600 -0.2036 -0.1209 -0.1657
  321loPI   C2A 5128  12.905  18.499   9.261  0.0615 -0.0858 -0.1176
  321loPI   C3A 5129  12.629  18.250   8.979  0.0625  0.1154 -0.1474
  321loPI   C4A 5130  12.756  18.033   8.590  0.0828 -0.1510 -0.1902
  321loPI   C5A 5131  12.616  18.137   8.155  0.1454  0.0607 -0.0165
  321loPI   C6A 5132  12.446  18.221   7.800 -0.1776 -0.0192  0.2505
  321loPI   C1B 5133  13.174  19.200   9.303 -0.0181 -0.0788 -0.0284
  321loPI   C2B 5134  13.058  19.330   8.852  0.0999 -0.0068  0.1966
  321loPI   C3B 5135  12.881  19.448   8.363  0.0293  0.2013 -0.3284
  321loPI   C4B 5136  12.594  19.507   8.027 -0.2110 -0.1582  0.1323
  322loPI    C1 5137  13.689  14.471  10.998 -0.0203  0.1397 -0.1495
  322loPI    C2 5138  13.909  14.731  11.207  0.0959  0.0191 -0.1206
  322loPI    C3 5139  13.745  14.416  11.391  0.0751 -0.0063 -0.1826
  322loPI   PO4 5140  13.877  14.328  10.734 -0.4289 -0.1466 -0.3387
  322loPI   GL1 5141  14.027  14.379  10.311  0.2182 -0.1594 -0.0485
  322loPI   GL2 5142  14.293  14.536  10.328  0.3257 -0.0588 -0.0502
  322loPI   C1A 5143  13.975  14.360   9.938  0.0430 -0.0787  0.1308
  322loPI   C2A 5144  13.943  14.180   9.527  0.2276  0.1648 -0.0610
  322loPI   C3A 5145  13.713  14.250   9.109 -0.1148  0.2583  0.0470
  322loPI   C4A 5146  13.836  14.349   8.820 -0.0429  0.1099 -0.0359
  322loPI   C5A 5147  13.960  14.436   8.490 -0.2177  0.3036  0.1096
  322loPI   C6A 5148  14.089  14.357   8.072 -0.1572 -0.1449  0.1021
  322loPI   C1B 5149  14.355  14.746   9.897 -0.3686 -0.2515  0.1646
  322loPI   C2B 5150  14.130  14.814   9.642  0.2254 -0.0368  0.1242
  322loPI   C3B 5151  13.999  14.615   9.318 -0.1908 -0.0187 -0.1406
  322loPI   C4B 5152  14.248  14.492   9.060  0.1769 -0.0262  0.0071
  323loPI    C1 5153  11.515  13.809  10.370  0.2104 -0.2118 -0.0307
  323loPI    C2 5154  11.773  14.107  10.303 -0.0480 -0.0009 -0.1051
  323loPI    C3 5155  11.811  13.880  10.630  0.1959  0.0639 -0.0862
  323loPI   PO4 5156  11.359  13.821  10.234  0.2915  0.2986 -0.0276
  323loPI   GL1 5157  11.112  13.833   9.844  0.0043  0.3284 -0.0158
  323loPI   GL2 5158  10.822  13.959   9.759 -0.1818  0.0151  0.0824
  323loPI   C1A 5159  11.270  13.762   9.503 -0.2083  0.0002 -0.0334
  323loPI   C2A 5160  11.206  13.866   9.150  0.2647 -0.0504  0.2061
  323loPI   C3A 5161  11.179  13.786   8.710 -0.0857 -0.0345  0.0554
  323loPI   C4A 5162  11.085  13.917   8.299  0.2992  0.0819 -0.3546
  323loPI   C5A 5163  10.835  14.025   8.004 -0.2501 -0.2414 -0.1279
  323loPI   C6A 5164  10.988  14.063   7.659 -0.3237 -0.2550  0.0602
  323loPI   C1B 5165  10.710  13.926   9.354  0.1413 -0.1674 -0.4495
  323loPI   C2B 5166  10.734  13.849   8.957  0.1156  0.1910  0.0115
  323loPI   C3B 5167  10.594  13.896   8.460  0.1603 -0.0009  0.0997
  323loPI   C4B 5168  10.260  14.132   8.335 -0.2310 -0.2520 -0.2338
  324loPI    C1 5169  12.536   5.462  10.465 -0.1046 -0.2284  0.0797
  324loPI    C2 5170  12.418   5.623  10.812  0.0245 -0.1124  0.0704
  324loPI    C3 5171  12.381   5.229  10.751 -0.1742 -0.1057  0.1426
  324loPI   PO4 5172  12.421   5.672  10.306 -0.1202  0.0293 -0.4382
  324loPI   GL1 5173  12.600   5.899   9.858 -0.0693  0.0542 -0.1050
  324loPI   GL2 5174  12.479   5.656   9.612 -0.1281 -0.0614 -0.2015
  324loPI   C1A 5175  12.477   6.203   9.560 -0.3285  0.1954 -0.2178
  324loPI   C2A 5176  12.640   6.467   9.201 -0.2552 -0.0628  0.2548
  324loPI   C3A 5177  12.471   6.373   8.745  0.0290 -0.0382  0.0208
  324loPI   C4A 5178  12.407   6.354   8.346 -0.0399 -0.1074 -0.1937
  324loPI   C5A 5179  12.363   6.557   7.934  0.2743  0.1595 -0.0663
  324loPI   C6A 5180  12.385   6.819   7.541 -0.1307  0.0229  0.1021
  324loPI   C1B 5181  12.372   5.701   9.226  0.0595  0.0244 -0.1677
  324loPI   C2B 5182  12.368   5.753   8.804 -0.0071 -0.2811  0.1196
  324loPI   C3B 5183  12.618   5.920   8.490 -0.2707  0.1051  0.3062
  324loPI   C4B 5184  12.642   5.988   8.009 -0.1045  0.0783 -0.0759
  325loPI    C1 5185  14.341  13.247  10.624  0.0566  0.0726  0.0669
  325loPI    C2 5186  13.957  13.237  10.735  0.0443 -0.2143  0.0063
  325loPI    C3 5187  14.229  13.413  10.970 -0.1477  0.1412 -0.0303
  325loPI   PO4 5188  14.327  13.050  10.494 -0.0305 -0.0267  0.3639
  325loPI   GL1 5189  14.370  13.061  10.069 -0.0605 -0.0344  0.0710
  325loPI   GL2 5190  14.255  13.392  10.045 -0.1000 -0.2353  0.0026
  325loPI   C1A 5191  14.302  12.954   9.712  0.2090  0.1632 -0.0946
  325loPI   C2A 5192  14.738  12.956   9.367  0.1474 -0.0669 -0.0683
  325loPI   C3A 5193  14.690  13.131   8.970 -0.1329  0.2723  0.4091
  325loPI   C4A 5194  14.770  13.072   8.615  0.0179  0.2138  0.2683
  325loPI   C5A 5195  14.597  13.173   8.215 -0.3660  0.2052 -0.0964
  325loPI   C6A 5196  14.679  13.564   7.976  0.0139 -0.0703 -0.1094
  325loPI   C1B 5197  14.392  13.570   9.635  0.1538  0.3280 -0.0330
  325loPI   C2B 5198  14.321  13.420   9.261 -0.0920  0.0790 -0.0828
  325loPI   C3B 5199  14.198  13.475   8.947 -0.1848 -0.1823 -0.0974
  325loPI   C4B 5200  14.066  13.431   8.484  0.0288 -0.0536 -0.0833
  326loPI    C1 5201   6.182  17.150  10.123  0.3519  0.0802 -0.1929
  326loPI    C2 5202   6.273  17.486  10.320 -0.2018 -0.0120  0.2465
  326loPI    C3 5203   6.381  17.131  10.469 -0.1772 -0.0599  0.1161
  326loPI   PO4 5204   6.126  17.249   9.898 -0.0485 -0.0689 -0.3380
  326loPI   GL1 5205   5.958  17.302   9.593 -0.1343  0.1886 -0.1546
  326loPI   GL2 5206   5.665  17.340   9.400 -0.1743  0.0883  0.0852
  326loPI   C1A 5207   6.153  17.517   9.304  0.2746 -0.2647 -0.1177
  326loPI   C2A 5208   6.327  17.437   8.811  0.1886 -0.2199  0.0707
  326loPI   C3A 5209   6.262  17.517   8.357 -0.0558  0.2515 -0.1979
  326loPI   C4A 5210   6.012  17.405   7.953 -0.0529  0.2715 -0.0683
  326loPI   C5A 5211   5.720  17.050   7.758  0.0980  0.0317 -0.3556
  326loPI   C6A 5212   5.319  17.236   7.672  0.3215  0.3339 -0.2569
  326loPI   C1B 5213   5.460  17.255   8.979  0.1054  0.1075  0.3278
  326loPI   C2B 5214   5.385  17.158   8.630 -0.1062  0.2311 -0.0160
  326loPI   C3B 5215   5.195  17.294   8.164  0.2775  0.2169  0.1066
  326loPI   C4B 5216   4.883  17.053   8.017 -0.2832  0.2557  0.3534
  327loPI    C1 5217   6.773   3.117  10.036  0.0477  0.0033 -0.0555
  327loPI    C2 5218   7.017   2.859  10.220  0.0071 -0.0826 -0.1215
  327loPI    C3 5219   6.621   2.805  10.234 -0.0160  0.1276  0.0933
  327loPI   PO4 5220   6.940   3.069   9.761 -0.0859  0.1359  0.0582
  327loPI   GL1 5221   7.245   2.708   9.731 -0.0780 -0.2309 -0.1080
  327loPI   GL2 5222   7.440   2.925   9.607  0.1523  0.0757 -0.1575
  327loPI   C1A 5223   7.497   2.595   9.263  0.3623  0.1192  0.3640
  327loPI   C2A 5224   7.526   2.495   8.873 -0.2854  0.1210 -0.0606
  327loPI   C3A 5225   7.768   2.208   8.541  0.3586  0.0031  0.0890
  327loPI   C4A 5226   7.891   2.172   8.074  0.1141  0.0119 -0.5586
  327loPI   C5A 5227   8.090   2.080   7.709 -0.0809 -0.0722 -0.2484
  327loPI   C6A 5228   8.248   2.397   7.553  0.0196  0.0831 -0.1910
  327loPI   C1B 5229   7.368   3.108   9.136  0.2829  0.3583  0.2094
  327loPI   C2B 5230   7.356   2.921   8.718  0.1085  0.1499  0.1621
  327loPI   C3B 5231   7.537   2.748   8.338 -0.0513  0.3254  0.1382
  327loPI   C4B 5232   7.439   2.475   7.977  0.0735  0.1945  0.0969
  328loPI    C1 5233   6.466   4.841   9.949 -0.3796  0.0478  0.0335
  328loPI    C2 5234   6.623   5.160  10.132  0.0428 -0.1499  0.0294
  328loPI    C3 5235   6.409   4.894  10.341 -0.1810  0.0522  0.0627
  328loPI   PO4 5236   6.490   4.896   9.726  0.1761  0.1110  0.0912
  328loPI   GL1 5237   6.610   5.073   9.330  0.3000  0.1620 -0.0109
  328loPI   GL2 5238   6.810   5.042   9.277 -0.0389  0.1561  0.0607
  328loPI   C1A 5239   6.611   5.322   8.855 -0.1985 -0.0419 -0.2796
  328loPI   C2A 5240   6.643   5.394   8.375 -0.3673  0.2292 -0.0404
  328loPI   C3A 5241   6.693   5.397   7.924 -0.0623  0.1183  0.2032
  328loPI   C4A 5242   6.651   5.532   7.527 -0.2927  0.2511 -0.0111
  328loPI   C5A 5243   6.374   5.542   7.240 -0.2593  0.4038 -0.0794
  328loPI   C6A 5244   6.249   5.656   6.880 -0.2680 -0.1681  0.2792
  328loPI   C1B 5245   7.006   4.983   8.852 -0.1971 -0.2203 -0.1983
  328loPI   C2B 5246   6.928   4.984   8.429 -0.0477  0.3085  0.0583
  328loPI   C3B 5247   6.752   4.910   8.038 -0.0103 -0.0481 -0.1213
  328loPI   C4B 5248   6.907   4.866   7.603 -0.2852 -0.1987  0.1178
  329loPI    C1 5249  15.946   1.042  10.490 -0.1181 -0.0563 -0.1024
  329loPI    C2 5250  15.690   1.075  10.795 -0.0737  0.1211 -0.0832
  329loPI    C3 5251  16.033   1.281  10.799  0.0256 -0.0412 -0.1536
  329loPI   PO4 5252  15.767   1.181  10.214  0.0421 -0.2842  0.0216
  329loPI   GL1 5253  15.489   1.292   9.817 -0.3939  0.0433 -0.0103
  329loPI   GL2 5254  15.511   0.945   9.808  0.4107  0.1509  0.1197
  329loPI   C1A 5255  15.497   1.308   9.395 -0.2411  0.0960  0.1801
  329loPI   C2A 5256  15.360   1.326   9.034 -0.1242 -0.0967  0.1476
  329loPI   C3A 5257  15.206   1.207   8.661  0.0431  0.1293  0.0890
  329loPI   C4A 5258  15.172   1.362   8.263 -0.1157 -0.1811 -0.3047
  329loPI   C5A 5259  15.092   1.401   7.827 -0.0087 -0.0646  0.0148
  329loPI   C6A 5260  14.969   1.282   7.412 -0.0810  0.0393  0.1045
  329loPI   C1B 5261  15.619   0.668   9.500 -0.1324 -0.0190 -0.1501
  329loPI   C2B 5262  15.732   0.478   9.184  0.0706  0.2675  0.0015
  329loPI   C3B 5263  15.704   0.385   8.890 -0.3233  0.1441 -0.1638
  329loPI   C4B 5264  15.646   0.373   8.498 -0.2522 -0.0715 -0.1093
  330loPI    C1 5265  11.697  13.011  10.367  0.1185  0.1720 -0.1123
  330loPI    C2 5266  11.725  13.379  10.521  0.1677  0.0853  0.0887
  330loPI    C3 5267  11.443  13.128  10.653  0.2436 -0.0078  0.0747
  330loPI   PO4 5268  11.668  13.040  10.109  0.2025 -0.1682 -0.0146
  330loPI   GL1 5269  11.850  12.850   9.769 -0.0079  0.0724 -0.3883
  330loPI   GL2 5270  11.665  12.672   9.583  0.1512  0.0203 -0.0402
  330loPI   C1A 5271  12.052  12.961   9.353  0.1084  0.3092  0.1144
  330loPI   C2A 5272  11.880  12.915   8.977  0.2082 -0.0062 -0.0241
  330loPI   C3A 5273  11.744  13.080   8.624  0.2203 -0.3349  0.0471
  330loPI   C4A 5274  11.816  13.179   8.277  0.2257  0.0014  0.2592
  330loPI   C5A 5275  11.878  12.964   7.866 -0.1521 -0.1424 -0.1400
  330loPI   C6A 5276  12.052  12.616   7.755 -0.3144 -0.1148  0.4402
  330loPI   C1B 5277  11.503  12.843   9.317  0.2247 -0.3827  0.1474
  330loPI   C2B 5278  11.409  12.743   8.875 -0.0275  0.2265 -0.1533
  330loPI   C3B 5279  11.371  12.829   8.435 -0.3489 -0.1515  0.0467
  330loPI   C4B 5280  11.356  13.033   8.034 -0.0445 -0.2257 -0.1916
  331loPI    C1 5281   0.909  10.620  10.030 -0.2184  0.2350  0.1159
  331loPI    C2 5282   0.654  10.745  10.312 -0.2063 -0.2229  0.3404
  331loPI    C3 5283   0.757  10.359  10.294  0.2029 -0.1058  0.0325
  331loPI   PO4 5284   0.748  10.723   9.771 -0.0298 -0.2044  0.0699
  331loPI   GL1 5285   0.872  10.832   9.449  0.3449 -0.3662 -0.0294
  331loPI   GL2 5286   0.933  11.261   9.506 -0.1028  0.0172 -0.0056
  331loPI   C1A 5287   1.010  10.688   8.983 -0.0225 -0.0576 -0.3302
  331loPI   C2A 5288   0.968  10.657   8.549 -0.1677  0.0650 -0.0560
  331loPI   C3A 5289   1.135  10.534   8.264  0.0666 -0.2391  0.0170
  331loPI   C4A 5290   1.256  10.608   7.893  0.1334 -0.0894 -0.0955
  331loPI   C5A 5291   1.531  10.710   7.570  0.0449 -0.0828  0.0734
  331loPI   C6A 5292   1.821  10.890   7.497  0.0380 -0.1134  0.0517
  331loPI   C1B 5293   0.867  11.190   9.072 -0.1838  0.0733  0.1311
  331loPI   C2B 5294   0.904  11.119   8.707 -0.4616 -0.0367 -0.1022
  331loPI   C3B 5295   1.011  11.089   8.267 -0.0673 -0.0484 -0.0285
  331loPI   C4B 5296   0.847  10.937   7.929  0.0908  0.0411 -0.1174
  332loPI    C1 5297   0.618  11.135  10.057 -0.1272 -0.0885  0.0288
  332loPI    C2 5298   0.824  11.439  10.215 -0.0828 -0.0694 -0.0654
  332loPI    C3 5299   0.571  11.229  10.443 -0.0585 -0.0088  0.0178
  332loPI   PO4 5300   0.508  11.227   9.834 -0.2115 -0.1884 -0.1321
  332loPI   GL1 5301   0.434  11.199   9.421 -0.2530 -0.1972  0.0227
  332loPI   GL2 5302   0.335  10.819   9.451 -0.1078  0.1385  0.0410
  332loPI   C1A 5303   0.354  11.500   9.220 -0.1745 -0.3376  0.1382
  332loPI   C2A 5304   0.211  11.725   8.910  0.2167 -0.1135 -0.2652
  332loPI   C3A 5305   0.154  11.621   8.415  0.1778  0.1465  0.1878
  332loPI   C4A 5306   0.232  11.597   8.009  0.0316 -0.0183 -0.0092
  332loPI   C5A 5307   0.444  11.677   7.684  0.2145  0.1376 -0.0479
  332loPI   C6A 5308   0.900  11.913   7.461 -0.2334  0.2867  0.0658
  332loPI   C1B 5309   0.479  10.887   8.957 -0.0982  0.1425  0.2645
  332loPI   C2B 5310   0.536  10.885   8.479 -0.0219  0.4370  0.1578
  332loPI   C3B 5311   0.370  10.803   8.071  0.2960 -0.3272 -0.2027
  332loPI   C4B 5312   0.412  11.108   7.762  0.1345 -0.0512 -0.0243
  333loPI    C1 5313  17.793  17.148  10.164 -0.1694 -0.0972  0.2523
  333loPI    C2 5314  17.762  17.538  10.249  0.1841 -0.0606  0.2288
  333loPI    C3 5315  17.939  17.290  10.508  0.1822 -0.1618  0.1340
  333loPI   PO4 5316  17.800  17.184   9.871  0.0660 -0.0969  0.1795
  333loPI   GL1 5317  17.891  16.944   9.544 -0.2195 -0.0719 -0.0168
  333loPI   GL2 5318  18.050  17.209   9.433 -0.0430  0.1707  0.1960
  333loPI   C1A 5319  17.630  16.786   9.198  0.1959  0.0587 -0.2509
  333loPI   C2A 5320  17.478  16.511   8.781  0.0111 -0.0813  0.1652
  333loPI   C3A 5321  17.614  16.593   8.340  0.0628 -0.4257 -0.1291
  333loPI   C4A 5322  17.750  16.713   7.923 -0.2497  0.1348 -0.0874
  333loPI   C5A 5323  18.129  16.903   7.863 -0.0535  0.4709  0.1986
  333loPI   C6A 5324  18.487  16.898   7.620  0.0488 -0.3971 -0.2932
  333loPI   C1B 5325  17.946  17.108   9.041  0.2299  0.3454 -0.0077
  333loPI   C2B 5326  17.746  16.986   8.721  0.0391  0.4334 -0.2032
  333loPI   C3B 5327  17.531  17.056   8.390  0.0098 -0.4544 -0.0339
  333loPI   C4B 5328  17.338  17.089   7.933 -0.0294 -0.1604  0.0923
  334loPI    C1 5329  10.567   6.536   9.981  0.2010 -0.0100 -0.2482
  334loPI    C2 5330  10.845   6.411   9.722  0.2033 -0.2374 -0.1382
  334loPI    C3 5331  10.716   6.166  10.011  0.0611 -0.0513 -0.0419
  334loPI   PO4 5332  10.426   6.742   9.917  0.0493 -0.1297 -0.2040
  334loPI   GL1 5333  10.439   6.724   9.512 -0.1305  0.1441 -0.1264
  334loPI   GL2 5334  10.083   6.886   9.454 -0.0674 -0.3925 -0.0433
  334loPI   C1A 5335  10.751   6.733   9.387  0.1102 -0.0546  0.0650
  334loPI   C2A 5336  10.971   6.825   8.985  0.2104 -0.0918  0.0042
  334loPI   C3A 5337  11.087   7.057   8.514  0.1983 -0.0624  0.0892
  334loPI   C4A 5338  10.761   7.081   8.154 -0.2012  0.2917 -0.2847
  334loPI   C5A 5339  10.783   7.164   7.624  0.1832 -0.0964  0.0624
  334loPI   C6A 5340  10.729   7.209   7.150  0.1399 -0.1802  0.0661
  334loPI   C1B 5341  10.107   7.254   9.162  0.2119 -0.0558 -0.3349
  334loPI   C2B 5342  10.150   7.220   8.750  0.0640  0.0987 -0.4208
  334loPI   C3B 5343  10.289   7.063   8.277  0.1108  0.1307  0.2080
  334loPI   C4B 5344  10.497   7.414   7.915  0.2359 -0.2750  0.0221
  335loPI    C1 5345  14.055   0.648  10.449  0.1400  0.0023  0.0153
  335loPI    C2 5346  14.229   1.007  10.468  0.2614 -0.0507 -0.0818
  335loPI    C3 5347  14.289   0.740  10.759  0.1129  0.0333  0.0266
  335loPI   PO4 5348  14.059   0.549  10.245  0.0438 -0.0996  0.0196
  335loPI   GL1 5349  14.376   0.205  10.062 -0.4085 -0.2341  0.1762
  335loPI   GL2 5350  14.179   0.023  10.074 -0.1543 -0.1454 -0.0519
  335loPI   C1A 5351  14.242   0.333   9.617  0.1388 -0.1465  0.1814
  335loPI   C2A 5352  14.218   0.280   9.086  0.1851 -0.0517  0.1067
  335loPI   C3A 5353  14.198  -0.110   8.790  0.0328  0.4877  0.3423
  335loPI   C4A 5354  14.009  -0.177   8.399  0.0097 -0.0422  0.0910
  335loPI   C5A 5355  14.104  -0.450   7.928  0.1630  0.2780 -0.0144
  335loPI   C6A 5356  14.177  -0.824   7.730  0.1336 -0.2451  0.3518
  335loPI   C1B 5357  13.956  -0.169   9.782 -0.0034  0.0525  0.1963
  335loPI   C2B 5358  14.030  -0.079   9.418  0.2511  0.2734 -0.6922
  335loPI   C3B 5359  13.788  -0.098   9.095  0.4633 -0.3199  0.1165
  335loPI   C4B 5360  13.534  -0.417   8.911  0.1527 -0.0220 -0.0152
  336loPI    C1 5361  12.430  16.331  10.721 -0.0864  0.1763  0.1462
  336loPI    C2 5362  12.081  16.136  10.735  0.0426 -0.0607  0.1224
  336loPI    C3 5363  12.160  16.424  11.001 -0.1763  0.0051  0.1182
  336loPI   PO4 5364  12.459  16.289  10.484  0.0821 -0.1582 -0.0618
  336loPI   GL1 5365  12.518  16.198  10.064  0.1746 -0.2793  0.1081
  336loPI   GL2 5366  12.364  16.204   9.775 -0.0468  0.0397  0.2137
  336loPI   C1A 5367  12.698  16.556   9.854  0.1279  0.1378  0.0852
  336loPI   C2A 5368  12.656  16.634   9.423 -0.2867  0.2656 -0.1148
  336loPI   C3A 5369  12.839  16.640   9.075 -0.1027  0.1942 -0.4399
  336loPI   C4A 5370  12.996  16.706   8.608 -0.0846 -0.0965 -0.3136
  336loPI   C5A 5371  12.838  16.767   8.183 -0.0497  0.1163  0.6232
  336loPI   C6A 5372  12.849  17.253   8.090 -0.1154 -0.1894  0.2514
  336loPI   C1B 5373  12.461  16.175   9.338  0.1958 -0.0744 -0.0752
  336loPI   C2B 5374  12.427  16.205   8.894  0.2731 -0.2122 -0.1358
  336loPI   C3B 5375  12.724  16.290   8.532  0.0749  0.0261  0.1428
  336loPI   C4B 5376  13.024  16.289   8.245 -0.1145 -0.0911  0.1737
  337loPI    C1 5377   9.814  10.503  10.097  0.1524 -0.0772  0.0114
  337loPI    C2 5378   9.732  10.630  10.467 -0.0255 -0.0247 -0.0447
  337loPI    C3 5379  10.016  10.354  10.408  0.0224 -0.0135  0.1273
  337loPI   PO4 5380   9.603  10.675   9.982  0.0326  0.2133  0.2709
  337loPI   GL1 5381   9.614  10.501   9.614 -0.2194  0.0496  0.0355
  337loPI   GL2 5382   9.889  10.307   9.606 -0.2870 -0.0010  0.0739
  337loPI   C1A 5383   9.591  10.609   9.230 -0.3453 -0.3040 -0.0650
  337loPI   C2A 5384   9.566  10.716   8.856  0.1270 -0.0576  0.0079
  337loPI   C3A 5385   9.565  10.663   8.429  0.0258 -0.1698 -0.0526
  337loPI   C4A 5386   9.636  10.581   8.036 -0.2560 -0.1299  0.1200
  337loPI   C5A 5387  10.059  10.486   7.711 -0.2397 -0.0486 -0.0570
  337loPI   C6A 5388  10.022  10.640   7.319 -0.0732  0.1569 -0.4173
  337loPI   C1B 5389   9.896  10.236   9.233 -0.0621  0.3388  0.0320
  337loPI   C2B 5390   9.768  10.232   8.764 -0.1212  0.1371  0.1465
  337loPI   C3B 5391   9.650  10.098   8.433  0.5154 -0.0158 -0.3472
  337loPI   C4B 5392   9.578  10.086   7.996  0.0465  0.0971  0.1485
  338loPI    C1 5393  14.019  12.030  10.162 -0.1951 -0.1207 -0.0255
  338loPI    C2 5394  13.881  11.839  10.485 -0.0652 -0.3841 -0.1228
  338loPI    C3 5395  14.047  12.201  10.522 -0.2657 -0.3098  0.0708
  338loPI   PO4 5396  13.847  11.989  10.004  0.0468  0.0249  0.3061
  338loPI   GL1 5397  13.674  12.047   9.553 -0.2341 -0.2312 -0.1618
  338loPI   GL2 5398  14.053  12.106   9.540 -0.1568  0.1989  0.0549
  338loPI   C1A 5399  13.620  12.098   9.059  0.0582 -0.0291 -0.0918
  338loPI   C2A 5400  13.748  11.906   8.669  0.1414 -0.0755 -0.2380
  338loPI   C3A 5401  13.994  11.698   8.437 -0.2891 -0.4276 -0.0460
  338loPI   C4A 5402  13.966  11.544   8.057 -0.0265 -0.2142 -0.3196
  338loPI   C5A 5403  13.873  11.258   7.771 -0.3018  0.2984  0.3435
  338loPI   C6A 5404  14.091  10.874   7.484 -0.2414 -0.1656  0.1500
  338loPI   C1B 5405  14.087  11.998   9.142  0.2769 -0.0899  0.0566
  338loPI   C2B 5406  14.252  11.942   8.792  0.1464 -0.2913  0.3009
  338loPI   C3B 5407  14.208  12.227   8.356  0.1750  0.0600 -0.0810
  338loPI   C4B 5408  14.022  12.055   8.081  0.2693 -0.2334 -0.1069
  339loPI    C1 5409  10.185  12.814  10.288  0.0126  0.0231  0.0592
  339loPI    C2 5410  10.444  12.674  10.558  0.1248  0.0954 -0.0103
  339loPI    C3 5411  10.107  12.853  10.678  0.2516  0.2736  0.0843
  339loPI   PO4 5412  10.354  12.708  10.007 -0.3211  0.0095 -0.0719
  339loPI   GL1 5413  10.387  12.556   9.683  0.0393  0.4422  0.2215
  339loPI   GL2 5414  10.096  12.474   9.660  0.2037 -0.0501  0.3691
  339loPI   C1A 5415  10.556  12.487   9.357  0.1545 -0.2122  0.0716
  339loPI   C2A 5416  10.552  12.412   8.965 -0.1502 -0.0734 -0.1703
  339loPI   C3A 5417  10.490  12.406   8.478 -0.0933  0.1568 -0.2769
  339loPI   C4A 5418  10.377  12.410   8.081  0.0240 -0.2103 -0.3012
  339loPI   C5A 5419  10.581  12.672   7.696  0.2178 -0.0126  0.1663
  339loPI   C6A 5420  10.825  13.022   7.728  0.2422 -0.0025  0.0153
  339loPI   C1B 5421  10.085  12.524   9.209 -0.0387 -0.0202  0.3454
  339loPI   C2B 5422  10.040  12.569   8.764  0.1602 -0.1954 -0.4720
  339loPI   C3B 5423   9.988  12.437   8.368 -0.2088  0.2831  0.1025
  339loPI   C4B 5424   9.808  12.342   7.898 -0.4537  0.0010 -0.2407
  340loPI    C1 5425   2.357  10.921   9.783  0.2999 -0.0362 -0.0574
  340loPI    C2 5426   2.370  11.243  10.020  0.0520 -0.2508  0.2567
  340loPI    C3 5427   2.623  10.938  10.081  0.3119 -0.1063 -0.0638
  340loPI   PO4 5428   2.233  11.049   9.518  0.0370 -0.0632  0.1025
  340loPI   GL1 5429   1.964  11.065   9.218  0.0469  0.0254  0.0926
  340loPI   GL2 5430   1.812  11.260   9.388  0.1136  0.1949 -0.0222
  340loPI   C1A 5431   1.962  11.017   8.823 -0.1972 -0.4910  0.0812
  340loPI   C2A 5432   2.113  11.118   8.420 -0.0591  0.1900  0.1337
  340loPI   C3A 5433   1.992  10.966   8.077 -0.3206  0.3100  0.0068
  340loPI   C4A 5434   1.886  10.549   7.940 -0.2903 -0.2409 -0.0112
  340loPI   C5A 5435   1.867  10.293   7.563  0.0882 -0.1064  0.1025
  340loPI   C6A 5436   1.825  10.086   7.244  0.3831 -0.1752 -0.2024
  340loPI   C1B 5437   1.832  11.653   9.152  0.1010 -0.0780 -0.2558
  340loPI   C2B 5438   1.658  11.631   8.685 -0.0279  0.0527 -0.0019
  340loPI   C3B 5439   1.764  11.477   8.272 -0.0427  0.0886  0.0711
  340loPI   C4B 5440   1.833  11.322   7.775  0.0718 -0.1092 -0.1247
  341loPI    C1 5441   1.868   5.777   9.889 -0.0414 -0.0625  0.1107
  341loPI    C2 5442   1.722   5.433  10.030 -0.1264 -0.1031 -0.0731
  341loPI    C3 5443   1.523   5.774  10.091 -0.0081 -0.0747  0.1679
  341loPI   PO4 5444   2.012   5.623   9.659 -0.2354  0.1412  0.0277
  341loPI   GL1 5445   2.254   5.434   9.194 -0.1071 -0.2193 -0.1874
  341loPI   GL2 5446   2.304   5.720   9.265 -0.0120 -0.2293  0.1610
  341loPI   C1A 5447   2.257   5.226   8.871 -0.1550 -0.0449 -0.0930
  341loPI   C2A 5448   2.249   5.335   8.418  0.0684 -0.2021 -0.0780
  341loPI   C3A 5449   2.295   5.591   8.007 -0.1327 -0.0388  0.1995
  341loPI   C4A 5450   2.389   5.754   7.665 -0.0292 -0.0925  0.2800
  341loPI   C5A 5451   2.767   5.585   7.357  0.1175 -0.0032 -0.0927
  341loPI   C6A 5452   3.089   5.856   7.279 -0.1877  0.3389  0.1138
  341loPI   C1B 5453   2.190   5.718   8.770  0.2357  0.0302 -0.0046
  341loPI   C2B 5454   2.016   5.895   8.475  0.0651 -0.0794 -0.2518
  341loPI   C3B 5455   1.800   6.256   8.328 -0.1230  0.1339 -0.3117
  341loPI   C4B 5456   1.557   6.330   7.925  0.0815 -0.3014 -0.0677
  342loPI    C1 5457  10.362  13.733  10.087 -0.0055 -0.1456  0.0432
  342loPI    C2 5458  10.329  14.022   9.813 -0.0037 -0.2081 -0.0229
  342loPI    C3 5459  10.321  14.114  10.202 -0.2551 -0.1454 -0.0415
  342loPI   PO4 5460  10.603  13.545   9.987 -0.1874  0.3513  0.1475
  342loPI   GL1 5461  10.503  13.470   9.630 -0.0597  0.3341  0.0951
  342loPI   GL2 5462  10.868  13.454   9.552  0.1355  0.1429 -0.1059
  342loPI   C1A 5463  10.275  13.701   9.257 -0.3019 -0.1546  0.1079
  342loPI   C2A 5464  10.198  13.801   8.795  0.0423 -0.0089 -0.0016
  342loPI   C3A 5465   9.832  13.867   8.427  0.2263 -0.3221 -0.4385
  342loPI   C4A 5466   9.792  13.966   7.939 -0.2676 -0.1221  0.1494
  342loPI   C5A 5467   9.620  13.665   7.645  0.5283 -0.0483  0.1535
  342loPI   C6A 5468   9.207  13.462   7.457  0.1490 -0.1635 -0.2560
  342loPI   C1B 5469  10.711  13.381   9.219 -0.1439 -0.0594 -0.2012
  342loPI   C2B 5470  10.502  13.359   8.846  0.0409  0.1355  0.3373
  342loPI   C3B 5471  10.379  13.410   8.482 -0.0885  0.2029  0.0486
  342loPI   C4B 5472  10.148  13.592   8.129 -0.1172 -0.2348 -0.2199
  343loPI    C1 5473   0.244   5.456   9.793  0.2978  0.0428 -0.0806
  343loPI    C2 5474   0.121   5.750  10.035  0.0962  0.0134 -0.1461
  343loPI    C3 5475   0.504   5.637  10.037  0.0694 -0.0834  0.2625
  343loPI   PO4 5476   0.262   5.575   9.499 -0.1771 -0.2130 -0.0103
  343loPI   GL1 5477  -0.023   5.490   9.238  0.0530  0.2092 -0.0063
  343loPI   GL2 5478  -0.284   5.215   9.120  0.3070  0.2333 -0.2127
  343loPI   C1A 5479  -0.105   5.694   8.809 -0.0545 -0.1325  0.1133
  343loPI   C2A 5480  -0.181   5.582   8.474 -0.0602 -0.1477 -0.0145
  343loPI   C3A 5481  -0.128   5.443   8.126 -0.0247 -0.2144  0.0753
  343loPI   C4A 5482  -0.092   5.441   7.701 -0.0668  0.2831  0.0222
  343loPI   C5A 5483  -0.336   5.393   7.272 -0.2571 -0.1943  0.0693
  343loPI   C6A 5484  -0.504   5.139   6.904  0.1491  0.0261  0.0053
  343loPI   C1B 5485  -0.246   5.156   8.676  0.2252 -0.1727  0.1084
  343loPI   C2B 5486  -0.463   5.136   8.295  0.1237 -0.1283  0.1590
  343loPI   C3B 5487  -0.413   5.096   7.807 -0.0077 -0.0039  0.1818
  343loPI   C4B 5488  -0.517   4.936   7.451 -0.0518  0.2557  0.1682
  344loPI    C1 5489   0.538  11.962  10.175 -0.0278 -0.0369  0.1684
  344loPI    C2 5490   0.934  11.956  10.232 -0.0051  0.0748  0.0300
  344loPI    C3 5491   0.711  12.242  10.402 -0.0059  0.1013 -0.0156
  344loPI   PO4 5492   0.562  11.832   9.855  0.2876  0.0432 -0.1736
  344loPI   GL1 5493   0.652  11.873   9.468  0.1321 -0.1835  0.1076
  344loPI   GL2 5494   0.836  11.650   9.189  0.1984  0.0456  0.1848
  344loPI   C1A 5495   0.445  12.087   9.163  0.0288  0.0497  0.0568
  344loPI   C2A 5496   0.203  12.239   8.815 -0.2693 -0.1838 -0.1712
  344loPI   C3A 5497  -0.072  12.077   8.521 -0.0458  0.1109  0.1574
  344loPI   C4A 5498  -0.360  11.737   8.300  0.3435  0.2093  0.2192
  344loPI   C5A 5499  -0.351  11.372   8.086 -0.1909 -0.0364 -0.1576
  344loPI   C6A 5500  -0.132  11.040   7.884 -0.0706  0.3783  0.1199
  344loPI   C1B 5501   0.683  11.793   8.766  0.3050  0.1147 -0.0300
  344loPI   C2B 5502   0.467  11.998   8.445 -0.0572  0.1845  0.1977
  344loPI   C3B 5503   0.387  12.094   8.015 -0.1004 -0.1525 -0.2924
  344loPI   C4B 5504   0.535  12.248   7.581  0.1825  0.3245 -0.3976
  345loPI    C1 5505   1.507   6.625   9.521 -0.0215  0.2312 -0.2416
  345loPI    C2 5506   1.637   6.969   9.678  0.1575  0.0276  0.0656
  345loPI    C3 5507   1.639   6.634   9.898 -0.0396 -0.1669 -0.2209
  345loPI   PO4 5508   1.265   6.822   9.354  0.0001 -0.2773 -0.0850
  345loPI   GL1 5509   1.438   6.875   8.867  0.1781  0.0315 -0.1491
  345loPI   GL2 5510   1.456   6.585   8.950  0.1677 -0.0556 -0.0255
  345loPI   C1A 5511   1.521   6.818   8.394  0.1625 -0.2207 -0.0308
  345loPI   C2A 5512   1.861   6.769   8.140 -0.0900  0.0003 -0.1232
  345loPI   C3A 5513   1.928   6.899   7.689 -0.1786  0.2159  0.2799
  345loPI   C4A 5514   1.708   7.015   7.394 -0.2378 -0.0584 -0.1425
  345loPI   C5A 5515   1.378   7.125   7.130  0.1033  0.1300  0.1718
  345loPI   C6A 5516   0.963   7.164   7.140  0.2226 -0.3520 -0.1553
  345loPI   C1B 5517   1.305   6.375   8.494 -0.1122 -0.0414 -0.0935
  345loPI   C2B 5518   1.071   6.248   8.046 -0.0075 -0.0143  0.0369
  345loPI   C3B 5519   0.919   6.321   7.563  0.0976  0.1398  0.0151
  345loPI   C4B 5520   0.641   6.248   7.164 -0.1908  0.0112  0.1104
  346loPI    C1 5521  17.110  13.537  10.424 -0.1937  0.1817  0.0386
  346loPI    C2 5522  17.174  13.692  10.787  0.1112  0.1958 -0.0186
  346loPI    C3 5523  16.801  13.661  10.646 -0.0131  0.1535  0.3101
  346loPI   PO4 5524  17.332  13.674  10.285 -0.2354 -0.2180 -0.0558
  346loPI   GL1 5525  17.530  13.639   9.917 -0.0086  0.0765  0.1749
  346loPI   GL2 5526  17.610  13.407   9.928 -0.5112 -0.3480 -0.0233
  346loPI   C1A 5527  17.406  13.640   9.485 -0.0954  0.0895  0.1602
  346loPI   C2A 5528  17.526  13.362   9.173  0.3073  0.1735 -0.1035
  346loPI   C3A 5529  17.421  13.247   8.745  0.0740  0.1317  0.2299
  346loPI   C4A 5530  17.387  13.243   8.288 -0.2512 -0.1442 -0.1943
  346loPI   C5A 5531  17.653  12.948   8.007 -0.1008 -0.0680 -0.1014
  346loPI   C6A 5532  17.554  12.837   7.516  0.2062 -0.3193 -0.0405
  346loPI   C1B 5533  17.769  13.255   9.604 -0.3086  0.0825 -0.0002
  346loPI   C2B 5534  17.969  13.085   9.237 -0.1054  0.0023  0.3766
  346loPI   C3B 5535  17.869  13.079   8.824  0.4480  0.1026  0.1830
  346loPI   C4B 5536  17.899  13.208   8.453 -0.1842 -0.3187 -0.3678
  347loPI    C1 5537   0.982   7.770   9.837 -0.0644 -0.0328  0.0187
  347loPI    C2 5538   1.123   7.410   9.939 -0.1549 -0.0910 -0.0599
  347loPI    C3 5539   0.793   7.552  10.115  0.1359  0.1511  0.3035
  347loPI   PO4 5540   0.990   7.732   9.608  0.0462  0.1024  0.4287
  347loPI   GL1 5541   1.141   7.750   9.271  0.1907  0.0648 -0.0142
  347loPI   GL2 5542   0.842   7.884   9.135  0.1529  0.0765 -0.0896
  347loPI   C1A 5543   1.338   7.714   8.858  0.2226  0.1437 -0.1446
  347loPI   C2A 5544   1.531   7.732   8.435  0.3903  0.1454 -0.0088
  347loPI   C3A 5545   1.601   7.743   8.058 -0.1092 -0.2042  0.2272
  347loPI   C4A 5546   1.719   7.784   7.573  0.1174  0.1106  0.1413
  347loPI   C5A 5547   1.662   7.602   7.134  0.1517  0.1718 -0.2295
  347loPI   C6A 5548   1.320   7.478   6.757  0.0477  0.1081 -0.0451
  347loPI   C1B 5549   0.845   7.659   8.788 -0.0690 -0.0368  0.0551
  347loPI   C2B 5550   0.954   7.717   8.428 -0.1406  0.1957 -0.1509
  347loPI   C3B 5551   1.084   7.724   7.964  0.2273 -0.1995  0.3599
  347loPI   C4B 5552   1.399   7.387   7.637 -0.2439  0.1327 -0.1027
  348loPI    C1 5553   0.264   1.055  10.397  0.1271 -0.0286  0.0483
  348loPI    C2 5554   0.049   0.966  10.723  0.3625 -0.2110  0.1569
  348loPI    C3 5555   0.088   1.347  10.607 -0.2680 -0.1950 -0.0422
  348loPI   PO4 5556   0.093   0.850  10.161  0.1719  0.1495 -0.1051
  348loPI   GL1 5557  -0.008   0.912   9.790 -0.0709  0.0758 -0.1044
  348loPI   GL2 5558   0.185   0.921   9.388 -0.0823 -0.0444  0.1927
  348loPI   C1A 5559  -0.305   0.864   9.364 -0.4112 -0.3476  0.1133
  348loPI   C2A 5560  -0.579   0.825   9.082  0.1384 -0.1218 -0.3653
  348loPI   C3A 5561  -0.863   0.869   8.779  0.0639  0.1028 -0.2484
  348loPI   C4A 5562  -1.033   0.757   8.366  0.0984 -0.1084 -0.0777
  348loPI   C5A 5563  -0.735   0.753   8.098  0.0070 -0.0923  0.0721
  348loPI   C6A 5564  -0.596   0.694   7.659 -0.2946  0.4023 -0.1716
  348loPI   C1B 5565  -0.047   1.105   9.011 -0.0148  0.2034  0.1330
  348loPI   C2B 5566  -0.046   1.386   8.703 -0.1213 -0.0581 -0.2572
  348loPI   C3B 5567  -0.317   1.582   8.414 -0.0224  0.1380  0.2782
  348loPI   C4B 5568  -0.587   1.757   8.109 -0.2339 -0.0943 -0.3160
  349loPI    C1 5569  15.535   0.728  10.451 -0.1646 -0.2023  0.0617
  349loPI    C2 5570  15.573   0.336  10.520  0.2302 -0.1858 -0.0369
  349loPI    C3 5571  15.868   0.586  10.623 -0.0096  0.0847  0.0048
  349loPI   PO4 5572  15.384   0.720  10.249 -0.0533 -0.2840  0.0814
  349loPI   GL1 5573  15.335   0.503   9.923  0.0962  0.1057 -0.1333
  349loPI   GL2 5574  15.467   0.252  10.034  0.0954 -0.0457 -0.2311
  349loPI   C1A 5575  15.133   0.530   9.467  0.1018 -0.2522  0.0030
  349loPI   C2A 5576  15.135   0.425   9.142 -0.4158  0.1897 -0.2637
  349loPI   C3A 5577  15.287   0.211   8.828  0.0256  0.1255 -0.0046
  349loPI   C4A 5578  15.141   0.154   8.361 -0.1495  0.0353 -0.1811
  349loPI   C5A 5579  15.219  -0.254   8.187 -0.2966  0.3522 -0.1496
  349loPI   C6A 5580  15.021  -0.358   7.755 -0.1894  0.0377 -0.0049
  349loPI   C1B 5581  15.536   0.124   9.675  0.0947 -0.0370  0.1006
  349loPI   C2B 5582  15.637  -0.053   9.327  0.2033  0.0892 -0.0253
  349loPI   C3B 5583  15.778  -0.122   8.898  0.0004 -0.4921  0.1293
  349loPI   C4B 5584  15.640  -0.125   8.517  0.2620 -0.3401 -0.0723
  350loPI    C1 5585  14.899   0.767  10.178 -0.1129  0.1483  0.3002
  350loPI    C2 5586  14.505   0.744  10.118 -0.0626 -0.1218  0.0449
  350loPI    C3 5587  14.667   0.584  10.447 -0.1551 -0.0890  0.1069
  350loPI   PO4 5588  14.993   1.027  10.019 -0.0747  0.2840  0.0371
  350loPI   GL1 5589  15.030   0.974   9.630  0.0978 -0.1678 -0.1762
  350loPI   GL2 5590  14.879   1.126   9.424  0.0099  0.0432 -0.1256
  350loPI   C1A 5591  15.306   0.902   9.257  0.2326 -0.3437 -0.0545
  350loPI   C2A 5592  15.386   0.806   8.880  0.4128 -0.0686 -0.0975
  350loPI   C3A 5593  15.315   0.698   8.437  0.0475 -0.0639  0.0156
  350loPI   C4A 5594  15.300   0.920   8.096 -0.3638  0.1078 -0.1174
  350loPI   C5A 5595  15.308   0.963   7.710 -0.1262  0.2722 -0.5349
  350loPI   C6A 5596  15.312   0.975   7.373 -0.3455 -0.0136  0.1574
  350loPI   C1B 5597  14.931   1.002   9.004 -0.2286 -0.1277  0.1704
  350loPI   C2B 5598  14.779   1.154   8.526 -0.0810  0.3647  0.0937
  350loPI   C3B 5599  14.409   1.328   8.386  0.3514  0.0406  0.0628
  350loPI   C4B 5600  14.093   1.168   8.070  0.1701  0.1172 -0.2644
  351loPI    C1 5601   7.704   3.541  10.094 -0.0953 -0.0595 -0.0328
  351loPI    C2 5602   7.859   3.797  10.360  0.0167 -0.0772 -0.0806
  351loPI    C3 5603   7.545   3.571  10.460  0.0566 -0.0815  0.0355
  351loPI   PO4 5604   7.784   3.430   9.969  0.0763  0.0072  0.1144
  351loPI   GL1 5605   7.855   3.373   9.429  0.0447  0.0018 -0.1312
  351loPI   GL2 5606   7.909   3.729   9.416  0.0844  0.0758  0.0312
  351loPI   C1A 5607   7.751   3.362   9.052 -0.1611 -0.2732  0.2325
  351loPI   C2A 5608   7.635   3.324   8.603  0.3312  0.0994  0.1112
  351loPI   C3A 5609   7.708   3.234   8.174 -0.1495  0.3719  0.0491
  351loPI   C4A 5610   7.751   3.030   7.868  0.0226 -0.1771  0.1200
  351loPI   C5A 5611   7.977   2.823   7.498  0.2238 -0.0197 -0.2575
  351loPI   C6A 5612   7.958   2.850   7.107 -0.0920  0.2307 -0.0894
  351loPI   C1B 5613   8.218   3.542   9.096  0.0359  0.0342  0.1267
  351loPI   C2B 5614   8.198   3.348   8.653  0.0623  0.4256 -0.1224
  351loPI   C3B 5615   8.328   3.126   8.383 -0.1063  0.1888  0.2043
  351loPI   C4B 5616   8.239   3.018   7.922  0.0429 -0.1552 -0.0890
  352loPI    C1 5617   5.302   9.012  10.229  0.1741 -0.0927 -0.1911
  352loPI    C2 5618   5.687   8.959  10.327  0.0794  0.1487  0.3490
  352loPI    C3 5619   5.409   8.702  10.458  0.0063  0.2083  0.3121
  352loPI   PO4 5620   5.282   9.007   9.979 -0.0494  0.2422 -0.0949
  352loPI   GL1 5621   5.152   9.053   9.592  0.0165  0.2667 -0.1682
  352loPI   GL2 5622   5.374   9.242   9.545 -0.2507  0.2142  0.1696
  352loPI   C1A 5623   5.122   8.971   9.159  0.2308  0.2614  0.3830
  352loPI   C2A 5624   5.489   9.054   8.864 -0.0745 -0.2395  0.0410
  352loPI   C3A 5625   5.773   9.064   8.516 -0.3272  0.2208 -0.0529
  352loPI   C4A 5626   5.985   9.148   8.084 -0.0370  0.0949 -0.3434
  352loPI   C5A 5627   6.235   9.323   7.876  0.1173 -0.1431  0.2456
  352loPI   C6A 5628   6.554   9.505   7.673 -0.2596  0.2635 -0.2699
  352loPI   C1B 5629   5.807   9.342   9.168  0.0468  0.0768 -0.0406
  352loPI   C2B 5630   5.662   9.487   8.739  0.1662 -0.0052  0.2086
  352loPI   C3B 5631   5.726   9.585   8.321  0.3186  0.0503  0.2485
  352loPI   C4B 5632   5.722   9.530   7.781  0.2517  0.3369 -0.0481
  353loPI    C1 5633  18.171  12.272   9.875  0.0569  0.2657 -0.0293
  353loPI    C2 5634  18.389  12.349   9.549  0.1928  0.1941  0.0432
  353loPI    C3 5635  18.568  12.219   9.882  0.0208 -0.0109  0.0578
  353loPI   PO4 5636  18.015  12.501   9.962  0.2537  0.0628 -0.1028
  353loPI   GL1 5637  17.710  12.667   9.692 -0.0900 -0.1441  0.1335
  353loPI   GL2 5638  17.993  12.712   9.537  0.0484  0.2484  0.1053
  353loPI   C1A 5639  17.339  12.440   9.490  0.0478 -0.0437 -0.3064
  353loPI   C2A 5640  17.078  12.452   9.131  0.1645 -0.1926 -0.0101
  353loPI   C3A 5641  16.727  12.500   8.833 -0.1475  0.1267  0.1376
  353loPI   C4A 5642  16.721  12.715   8.396  0.2698  0.3759  0.0570
  353loPI   C5A 5643  16.678  12.879   8.030 -0.0293 -0.0096  0.1277
  353loPI   C6A 5644  16.305  12.819   7.917 -0.1986  0.0056 -0.1225
  353loPI   C1B 5645  17.682  12.680   9.158 -0.0262  0.1441 -0.0657
  353loPI   C2B 5646  17.477  12.368   8.969 -0.1298 -0.1582 -0.1044
  353loPI   C3B 5647  17.207  12.239   8.672  0.1398  0.3052 -0.3537
  353loPI   C4B 5648  17.233  12.244   8.264 -0.2433 -0.1005  0.1844
  354loPI    C1 5649   2.074   8.288   9.931 -0.0730 -0.0100 -0.1255
  354loPI    C2 5650   2.039   8.662  10.068  0.0559  0.0054 -0.1334
  354loPI    C3 5651   2.278   8.402  10.255 -0.2624 -0.1618  0.0496
  354loPI   PO4 5652   2.051   8.437   9.589  0.2262 -0.1075  0.1442
  354loPI   GL1 5653   2.218   8.290   9.199 -0.0036 -0.2598  0.1245
  354loPI   GL2 5654   2.174   7.893   9.153 -0.2311  0.1190  0.2684
  354loPI   C1A 5655   1.813   8.358   8.916 -0.0203 -0.3295  0.1646
  354loPI   C2A 5656   1.598   8.219   8.579 -0.0089  0.6007  0.0497
  354loPI   C3A 5657   1.724   8.359   8.133  0.1005  0.0800 -0.0723
  354loPI   C4A 5658   1.834   8.544   7.772  0.4962 -0.0477  0.2353
  354loPI   C5A 5659   1.744   8.454   7.421 -0.1281 -0.2410  0.1392
  354loPI   C6A 5660   1.707   8.226   6.961  0.1102  0.0720 -0.0994
  354loPI   C1B 5661   2.191   8.195   8.677 -0.2250 -0.0945 -0.0114
  354loPI   C2B 5662   2.329   8.398   8.466 -0.1260  0.0477 -0.1467
  354loPI   C3B 5663   2.233   8.478   8.053 -0.0343  0.2598  0.3252
  354loPI   C4B 5664   2.530   8.521   7.686 -0.2133  0.0429  0.4864
  355loPI    C1 5665  18.720   5.224   9.593 -0.0084 -0.1094  0.1752
  355loPI    C2 5666  18.346   5.366   9.592  0.0260 -0.0183  0.1055
  355loPI    C3 5667  18.573   5.401   9.920  0.0214  0.0544  0.1010
  355loPI   PO4 5668  18.714   4.899   9.558 -0.1773  0.0047 -0.0779
  355loPI   GL1 5669  18.869   4.713   9.215  0.0550  0.1776  0.1493
  355loPI   GL2 5670  18.554   4.704   9.027 -0.1708  0.1145 -0.3209
  355loPI   C1A 5671  18.969   4.800   8.762  0.0680  0.1416  0.0267
  355loPI   C2A 5672  18.895   4.803   8.274  0.0225 -0.3599 -0.0160
  355loPI   C3A 5673  18.994   4.929   7.825 -0.0020 -0.2693 -0.2478
  355loPI   C4A 5674  18.844   5.020   7.424 -0.1810  0.1003 -0.3157
  355loPI   C5A 5675  18.659   4.756   7.046 -0.0639 -0.1067 -0.1796
  355loPI   C6A 5676  18.239   4.613   6.932  0.1479  0.1159 -0.0664
  355loPI   C1B 5677  18.488   4.623   8.557 -0.5143 -0.0627  0.0091
  355loPI   C2B 5678  18.405   4.660   8.122 -0.0937 -0.2184 -0.2128
  355loPI   C3B 5679  18.648   4.557   7.747  0.0773 -0.0271  0.2190
  355loPI   C4B 5680  18.332   4.438   7.412 -0.1334 -0.0593 -0.0012
  356loPI    C1 5681   9.839   0.920  10.390  0.1156 -0.3259 -0.1250
  356loPI    C2 5682  10.141   0.856  10.643  0.0529 -0.1318  0.0015
  356loPI    C3 5683   9.787   0.979  10.782 -0.0756 -0.3253 -0.1495
  356loPI   PO4 5684   9.845   0.781  10.249 -0.0241  0.1780 -0.0651
  356loPI   GL1 5685   9.858   0.702   9.861  0.1717 -0.1163 -0.1659
  356loPI   GL2 5686   9.917   0.379   9.843  0.4733  0.0510 -0.3329
  356loPI   C1A 5687   9.778   0.569   9.399 -0.0069 -0.4326  0.3934
  356loPI   C2A 5688   9.762   0.632   8.900 -0.2828 -0.1210 -0.0479
  356loPI   C3A 5689   9.802   0.807   8.585  0.1532  0.1451  0.0750
  356loPI   C4A 5690   9.703   0.612   8.188  0.1546  0.1424  0.1778
  356loPI   C5A 5691   9.663   0.324   7.801  0.2395 -0.0700  0.0253
  356loPI   C6A 5692   9.877  -0.151   7.897  0.3143 -0.1238 -0.1396
  356loPI   C1B 5693  10.213   0.167   9.574  0.0102  0.4396 -0.2512
  356loPI   C2B 5694  10.214  -0.064   9.324 -0.1050  0.3875  0.1724
  356loPI   C3B 5695   9.880  -0.291   9.053 -0.0611 -0.0422 -0.2072
  356loPI   C4B 5696   9.628  -0.560   8.788  0.0421 -0.0884  0.0440
  357loPI    C1 5697   3.076   0.080   9.754  0.0876  0.2859  0.1932
  357loPI    C2 5698   2.765  -0.142   9.871 -0.0247  0.2526 -0.1563
  357loPI    C3 5699   2.877   0.175  10.088 -0.0846  0.0652  0.1558
  357loPI   PO4 5700   3.176  -0.091   9.574 -0.0491  0.1476  0.4003
  357loPI   GL1 5701   3.375  -0.072   9.280  0.0035  0.0662 -0.1569
  357loPI   GL2 5702   3.560  -0.247   9.183 -0.1194  0.0352 -0.1993
  357loPI   C1A 5703   3.137  -0.229   8.937  0.1911 -0.1715 -0.1509
  357loPI   C2A 5704   3.074   0.079   8.596  0.0536  0.0029  0.0822
  357loPI   C3A 5705   3.070   0.074   8.134 -0.0311 -0.0012 -0.2062
  357loPI   C4A 5706   3.181  -0.083   7.739  0.0969 -0.3479 -0.0004
  357loPI   C5A 5707   2.968  -0.497   7.474  0.3726 -0.0594  0.1665
  357loPI   C6A 5708   2.765  -0.709   7.254 -0.0958 -0.2562 -0.3406
  357loPI   C1B 5709   3.609  -0.077   8.781 -0.1594  0.3491  0.2570
  357loPI   C2B 5710   3.517  -0.048   8.387  0.0544  0.0296  0.2817
  357loPI   C3B 5711   3.643   0.258   8.060 -0.0492  0.1726 -0.5034
  357loPI   C4B 5712   3.705   0.366   7.653  0.1302  0.1077  0.0677
  358loPI    C1 5713   0.072  13.738  10.105 -0.0874  0.0213 -0.0485
  358loPI    C2 5714  -0.060  13.447  10.345 -0.2575  0.1601  0.0284
  358loPI    C3 5715   0.184  13.729  10.489  0.1679 -0.1212 -0.1243
  358loPI   PO4 5716   0.274  13.663   9.947 -0.1460 -0.1282  0.2782
  358loPI   GL1 5717   0.479  13.493   9.564 -0.2176 -0.3139  0.1037
  358loPI   GL2 5718   0.290  13.477   9.274  0.1286 -0.2712 -0.2059
  358loPI   C1A 5719   0.770  13.591   9.267 -0.0069  0.1511 -0.1216
  358loPI   C2A 5720   0.567  13.581   8.832 -0.0489 -0.0137  0.2740
  358loPI   C3A 5721   0.425  13.602   8.363 -0.0462  0.2499 -0.1279
  358loPI   C4A 5722   0.386  13.828   7.897  0.3168  0.3353  0.1459
  358loPI   C5A 5723   0.660  13.772   7.649  0.4703  0.1288 -0.0489
  358loPI   C6A 5724   1.065  13.315   7.667  0.1494 -0.1778  0.0467
  358loPI   C1B 5725  -0.100  13.349   8.959  0.4280  0.2527  0.1552
  358loPI   C2B 5726   0.081  13.239   8.519 -0.2579 -0.1675 -0.2950
  358loPI   C3B 5727   0.268  13.198   8.099  0.3494 -0.1905  0.0946
  358loPI   C4B 5728   0.037  13.357   7.763  0.2243  0.0050 -0.2336
  359loPI    C1 5729  10.735   8.647  10.580 -0.1174 -0.1539  0.0128
  359loPI    C2 5730  10.348   8.604  10.489 -0.1339  0.0706 -0.0277
  359loPI    C3 5731  10.479   8.945  10.653  0.0072 -0.0909  0.2017
  359loPI   PO4 5732  10.898   8.469  10.292  0.4017  0.1094  0.3265
  359loPI   GL1 5733  11.010   8.469   9.894  0.2665  0.0786 -0.0566
  359loPI   GL2 5734  11.127   8.247   9.865 -0.1158  0.0129 -0.0494
  359loPI   C1A 5735  11.009   8.509   9.457  0.3075  0.3575  0.1945
  359loPI   C2A 5736  11.004   8.542   9.021  0.0143 -0.1219  0.4026
  359loPI   C3A 5737  10.893   8.521   8.546 -0.0781 -0.1518 -0.2706
  359loPI   C4A 5738  10.632   8.515   8.188 -0.0166  0.1296 -0.0894
  359loPI   C5A 5739  10.261   8.230   8.195 -0.2449  0.1579 -0.1472
  359loPI   C6A 5740  10.135   7.744   7.964 -0.0003 -0.2148  0.1182
  359loPI   C1B 5741  10.889   8.032   9.640 -0.1108  0.0084 -0.0222
  359loPI   C2B 5742  10.693   7.760   9.316  0.0600 -0.2027 -0.3161
  359loPI   C3B 5743  10.474   7.597   8.928  0.0260 -0.0270  0.3252
  359loPI   C4B 5744  10.651   7.148   8.696 -0.1506 -0.2771 -0.0856
  360loPI    C1 5745   7.147   2.389  10.317 -0.0492  0.0011 -0.0567
  360loPI    C2 5746   7.205   2.099  10.586 -0.0976  0.1063  0.0683
  360loPI    C3 5747   7.412   2.441  10.612  0.0510  0.0354 -0.1520
  360loPI   PO4 5748   7.132   2.271  10.077  0.1505 -0.2999  0.0816
  360loPI   GL1 5749   6.960   2.002   9.758 -0.3647  0.0941  0.2850
  360loPI   GL2 5750   7.157   2.265   9.557 -0.0986 -0.3300 -0.4108
  360loPI   C1A 5751   6.785   1.859   9.372  0.3274  0.2117  0.0807
  360loPI   C2A 5752   6.882   1.823   8.911  0.3661 -0.0393  0.1354
  360loPI   C3A 5753   6.914   1.779   8.496  0.1015 -0.0707  0.1483
  360loPI   C4A 5754   6.790   1.695   8.093  0.1165 -0.3751  0.1302
  360loPI   C5A 5755   6.693   1.384   7.869  0.0768 -0.1377 -0.2415
  360loPI   C6A 5756   6.638   1.391   7.358  0.0505  0.0751 -0.0628
  360loPI   C1B 5757   7.169   2.241   9.156  0.1541 -0.0812 -0.0792
  360loPI   C2B 5758   7.160   2.250   8.712 -0.2474 -0.1957 -0.3567
  360loPI   C3B 5759   7.200   2.138   8.285 -0.2356  0.0134  0.1017
  360loPI   C4B 5760   7.135   2.015   7.875 -0.1109  0.1536  0.3938
  361loPI    C1 5761  16.778   1.759  10.036  0.0270 -0.1036  0.1669
  361loPI    C2 5762  16.802   1.375  10.147  0.0550 -0.1644 -0.0448
  361loPI    C3 5763  17.104   1.626  10.225  0.0587 -0.1975  0.0480
  361loPI   PO4 5764  16.692   1.824   9.800 -0.2279  0.0771  0.1123
  361loPI   GL1 5765  16.794   1.774   9.400 -0.0129 -0.1507 -0.2006
  361loPI   GL2 5766  17.068   1.622   9.395 -0.0846  0.0878 -0.0344
  361loPI   C1A 5767  16.859   1.615   8.951 -0.1703  0.0991  0.1626
  361loPI   C2A 5768  16.647   1.708   8.548  0.1267  0.0932 -0.0412
  361loPI   C3A 5769  16.597   1.522   8.182 -0.4770 -0.3486 -0.1624
  361loPI   C4A 5770  16.723   1.715   7.932  0.1354  0.0754 -0.0739
  361loPI   C5A 5771  16.663   2.137   7.920  0.1043 -0.1423 -0.3354
  361loPI   C6A 5772  16.471   2.383   7.637  0.3057  0.0847 -0.1008
  361loPI   C1B 5773  17.136   2.004   9.160 -0.1986 -0.4465 -0.0595
  361loPI   C2B 5774  17.034   2.029   8.782  0.0182  0.0722  0.0477
  361loPI   C3B 5775  16.961   2.173   8.386 -0.1634  0.1719  0.2834
  361loPI   C4B 5776  17.118   2.038   8.027 -0.0415  0.1109 -0.3709
  362loPI    C1 5777   9.865  11.514  10.319 -0.2974  0.2241 -0.2078
  362loPI    C2 5778   9.866  11.905  10.401  0.0555  0.1299  0.2815
  362loPI    C3 5779   9.561  11.677  10.523 -0.1140  0.2348  0.0619
  362loPI   PO4 5780  10.095  11.506  10.109  0.1230  0.0419  0.3188
  362loPI   GL1 5781  10.151  11.407   9.714  0.1147  0.0604 -0.0611
  362loPI   GL2 5782   9.931  11.640   9.619 -0.0506 -0.2678 -0.1458
  362loPI   C1A 5783  10.308  11.490   9.327 -0.1956  0.2140  0.1461
  362loPI   C2A 5784  10.338  11.524   8.953 -0.1708  0.1585 -0.0910
  362loPI   C3A 5785  10.366  11.631   8.549 -0.4929 -0.2038 -0.1826
  362loPI   C4A 5786  10.308  11.465   8.114  0.0725 -0.0058  0.1840
  362loPI   C5A 5787  10.488  11.085   7.906  0.0024 -0.0667  0.1146
  362loPI   C6A 5788  10.418  10.877   7.604  0.1039 -0.1145 -0.1256
  362loPI   C1B 5789   9.896  11.638   9.155 -0.0948 -0.2258  0.1204
  362loPI   C2B 5790   9.867  11.620   8.684 -0.1700  0.1810  0.2806
  362loPI   C3B 5791   9.859  11.601   8.231  0.1122 -0.1763 -0.1709
  362loPI   C4B 5792   9.703  11.432   7.807 -0.2953  0.0121 -0.1382
  363loPI    C1 5793   9.095   1.226  10.790  0.1200  0.1565  0.1267
  363loPI    C2 5794   8.871   1.147  11.112  0.3796 -0.3189  0.1996
  363loPI    C3 5795   9.172   1.409  11.137 -0.1416  0.3135  0.1048
  363loPI   PO4 5796   8.967   1.408  10.625 -0.1039 -0.0510 -0.1181
  363loPI   GL1 5797   8.931   1.701  10.317  0.0075  0.1802  0.1061
  363loPI   GL2 5798   9.103   1.480  10.113  0.0656  0.3849  0.0437
  363loPI   C1A 5799   9.055   1.884   9.909  0.0920 -0.4248  0.3125
  363loPI   C2A 5800   9.183   2.140   9.586  0.0595 -0.1316  0.1253
  363loPI   C3A 5801   9.225   2.374   9.171  0.2860 -0.1154  0.0778
  363loPI   C4A 5802   9.298   2.557   8.771 -0.3344 -0.1251  0.5067
  363loPI   C5A 5803   9.444   2.315   8.347  0.1569 -0.0265 -0.0556
  363loPI   C6A 5804   9.785   2.342   8.064  0.1512 -0.0060  0.0189
  363loPI   C1B 5805   8.993   1.185   9.691 -0.1622 -0.0691 -0.2503
  363loPI   C2B 5806   9.035   1.276   9.274  0.2738  0.0698  0.0037
  363loPI   C3B 5807   8.885   1.049   8.929 -0.0440  0.1849 -0.3508
  363loPI   C4B 5808   8.707   1.256   8.515 -0.1011 -0.0126  0.0119
  364loPI    C1 5809  18.532   2.754  10.295  0.1617  0.1597 -0.1322
  364loPI    C2 5810  18.144   2.771  10.388  0.2125 -0.0702  0.1376
  364loPI    C3 5811  18.404   3.010  10.575  0.1932  0.1443 -0.1036
  364loPI   PO4 5812  18.490   2.526  10.079  0.4663  0.1424 -0.1612
  364loPI   GL1 5813  18.282   2.557   9.680 -0.2675 -0.0600 -0.3655
  364loPI   GL2 5814  18.470   2.792   9.601 -0.2084 -0.1898  0.0420
  364loPI   C1A 5815  18.478   2.354   9.342  0.1996 -0.1880  0.0670
  364loPI   C2A 5816  18.754   2.463   9.178  0.2001 -0.2149 -0.1398
  364loPI   C3A 5817  19.048   2.442   8.707 -0.2589 -0.0518 -0.2667
  364loPI   C4A 5818  19.296   2.224   8.294  0.0288  0.1424 -0.5242
  364loPI   C5A 5819  19.400   2.409   7.907  0.1535  0.2326  0.3371
  364loPI   C6A 5820  19.533   2.280   7.484  0.0384  0.2904 -0.0585
  364loPI   C1B 5821  18.260   2.850   9.144  0.3456  0.3829  0.0418
  364loPI   C2B 5822  18.025   2.763   8.634 -0.1117 -0.1308  0.2360
  364loPI   C3B 5823  17.769   2.847   8.338 -0.4043 -0.3319  0.0806
  364loPI   C4B 5824  17.439   2.973   8.042  0.0767 -0.3517  0.1370
  365loPI    C1 5825   2.990  15.385  10.247  0.0902  0.1519  0.1423
  365loPI    C2 5826   2.639  15.488  10.409 -0.0455 -0.0153 -0.0403
  365loPI    C3 5827   2.910  15.290  10.627 -0.2999 -0.4019 -0.0649
  365loPI   PO4 5828   3.001  15.642  10.048 -0.0836  0.0964 -0.0268
  365loPI   GL1 5829   3.209  15.805   9.568  0.0222 -0.1562  0.0171
  365loPI   GL2 5830   2.892  15.887   9.447  0.0900  0.1096  0.0379
  365loPI   C1A 5831   3.381  15.737   9.253  0.0471 -0.0471 -0.1728
  365loPI   C2A 5832   3.666  15.771   8.791 -0.1338  0.0549 -0.1775
  365loPI   C3A 5833   3.796  15.755   8.302  0.0393  0.0603  0.0150
  365loPI   C4A 5834   3.764  15.759   7.873 -0.3431  0.2299  0.1076
  365loPI   C5A 5835   3.538  15.404   7.678 -0.2470 -0.3264  0.1637
  365loPI   C6A 5836   3.305  15.131   7.366  0.1795  0.0437  0.2240
  365loPI   C1B 5837   2.814  15.757   9.058  0.0816 -0.0858  0.0796
  365loPI   C2B 5838   2.751  15.402   8.703 -0.1803 -0.2155 -0.1272
  365loPI   C3B 5839   2.637  15.408   8.286 -0.0419 -0.1189  0.1631
  365loPI   C4B 5840   2.420  15.289   7.952  0.1578 -0.1228  0.1239
  366loPI    C1 5841  18.383   0.194  10.460 -0.1676  0.0478  0.1354
  366loPI    C2 5842  18.756   0.055  10.420 -0.2127  0.0318 -0.2678
  366loPI    C3 5843  18.605   0.120  10.784  0.2952  0.3419 -0.1030
  366loPI   PO4 5844  18.298   0.163  10.156  0.0214  0.1461 -0.2214
  366loPI   GL1 5845  18.413   0.194   9.766  0.2058 -0.0778  0.0354
  366loPI   GL2 5846  18.282   0.585   9.664 -0.0397 -0.0262 -0.0258
  366loPI   C1A 5847  18.468   0.089   9.273  0.2318 -0.1792  0.1966
  366loPI   C2A 5848  18.324  -0.048   8.869 -0.2834  0.0865  0.1916
  366loPI   C3A 5849  18.290  -0.050   8.460  0.0448 -0.0898 -0.2454
  366loPI   C4A 5850  18.266  -0.063   7.935  0.0187 -0.0346 -0.2423
  366loPI   C5A 5851  18.182  -0.329   7.557  0.0610  0.3924  0.1577
  366loPI   C6A 5852  18.085  -0.516   7.204 -0.3424 -0.3662  0.3346
  366loPI   C1B 5853  18.032   0.844   9.572  0.3176 -0.3026  0.1674
  366loPI   C2B 5854  17.798   1.075   9.292 -0.0084 -0.0605 -0.0538
  366loPI   C3B 5855  17.762   1.262   8.878  0.1346 -0.0891  0.0888
  366loPI   C4B 5856  17.572   1.389   8.504  0.0666 -0.0899  0.1077
  367loPI    C1 5857  16.074   5.173   9.890  0.1734  0.1860 -0.0730
  367loPI    C2 5858  16.462   5.087   9.937  0.1051 -0.0984 -0.0105
  367loPI    C3 5859  16.288   5.362  10.171  0.2028 -0.1720  0.1507
  367loPI   PO4 5860  15.992   5.196   9.651  0.0458 -0.3664 -0.0482
  367loPI   GL1 5861  16.291   5.229   9.335 -0.2452  0.0209  0.0940
  367loPI   GL2 5862  16.015   5.073   9.169 -0.0750 -0.1365  0.3970
  367loPI   C1A 5863  16.439   4.920   8.992 -0.2894  0.0961 -0.0951
  367loPI   C2A 5864  16.310   4.991   8.604  0.2426 -0.0402  0.2551
  367loPI   C3A 5865  16.175   5.027   8.138 -0.1271 -0.2854 -0.4464
  367loPI   C4A 5866  16.391   5.243   7.759 -0.1966 -0.2668  0.1230
  367loPI   C5A 5867  16.511   5.204   7.305  0.5190 -0.0736 -0.0301
  367loPI   C6A 5868  16.721   5.272   7.005 -0.1167  0.2650  0.0043
  367loPI   C1B 5869  15.918   5.283   8.711  0.0235  0.1686 -0.0954
  367loPI   C2B 5870  15.738   5.257   8.220  0.2760  0.0353  0.0041
  367loPI   C3B 5871  15.740   5.103   7.760  0.0731  0.0629 -0.0003
  367loPI   C4B 5872  16.029   5.195   7.447  0.0697  0.1387  0.0862
  368loPI    C1 5873   5.242  15.665   9.967  0.1329 -0.1703  0.0628
  368loPI    C2 5874   5.181  15.562   9.585  0.1589  0.0915 -0.0140
  368loPI    C3 5875   4.879  15.706   9.804  0.0816 -0.2962  0.1437
  368loPI   PO4 5876   5.481  15.773   9.975 -0.0147 -0.4658  0.1227
  368loPI   GL1 5877   5.565  15.930   9.524  0.0732  0.1995  0.1786
  368loPI   GL2 5878   5.895  15.976   9.412  0.1461  0.4707 -0.0390
  368loPI   C1A 5879   5.572  15.741   9.050 -0.0606 -0.0128 -0.0989
  368loPI   C2A 5880   5.790  15.592   8.670  0.4110 -0.2368  0.2062
  368loPI   C3A 5881   5.746  15.721   8.303  0.3121  0.0845  0.1610
  368loPI   C4A 5882   5.644  15.984   7.848 -0.2236 -0.4294 -0.0075
  368loPI   C5A 5883   5.326  16.283   7.780 -0.0078  0.0589  0.3879
  368loPI   C6A 5884   5.240  16.723   7.543 -0.2187  0.1076 -0.0248
  368loPI   C1B 5885   5.940  16.129   9.024  0.0197  0.1142  0.1458
  368loPI   C2B 5886   5.889  16.119   8.624  0.2068  0.1224  0.0946
  368loPI   C3B 5887   6.061  16.062   8.237 -0.0904  0.0680  0.0786
  368loPI   C4B 5888   6.207  16.035   7.881 -0.1369 -0.1331  0.0690
  369loPI    C1 5889   3.513  14.004  10.021 -0.1394 -0.1377 -0.0039
  369loPI    C2 5890   3.651  13.725  10.271  0.1929 -0.1470 -0.1916
  369loPI    C3 5891   3.529  14.078  10.414  0.0561 -0.2755  0.0152
  369loPI   PO4 5892   3.722  14.007   9.836 -0.4504 -0.2868 -0.0792
  369loPI   GL1 5893   3.582  14.120   9.342 -0.2264  0.5397  0.0672
  369loPI   GL2 5894   3.797  14.344   9.370 -0.0559  0.1473 -0.0716
  369loPI   C1A 5895   3.436  14.400   8.967  0.0829  0.0667 -0.2611
  369loPI   C2A 5896   3.347  14.512   8.564 -0.2309 -0.2593  0.0361
  369loPI   C3A 5897   3.181  14.463   8.113  0.1194  0.0818 -0.2249
  369loPI   C4A 5898   2.950  14.589   7.706 -0.0030 -0.1939  0.0455
  369loPI   C5A 5899   2.779  14.347   7.451 -0.1055  0.2083  0.0489
  369loPI   C6A 5900   2.607  13.977   7.681 -0.2172  0.2282 -0.0321
  369loPI   C1B 5901   3.840  14.037   8.937  0.0392  0.1944  0.2572
  369loPI   C2B 5902   3.688  14.027   8.584  0.0855 -0.3404 -0.1402
  369loPI   C3B 5903   3.410  13.934   8.344  0.3934 -0.2948  0.0219
  369loPI   C4B 5904   3.315  13.635   8.171  0.1461  0.0371 -0.1459
  370loPI    C1 5905   3.073   5.414   9.822 -0.2326  0.0197 -0.4611
  370loPI    C2 5906   2.772   5.546  10.050 -0.0046 -0.1221 -0.0676
  370loPI    C3 5907   3.121   5.742  10.045  0.0349 -0.1942 -0.1961
  370loPI   PO4 5908   2.960   5.288   9.613  0.1517  0.2908 -0.0922
  370loPI   GL1 5909   2.652   5.163   9.284  0.2557  0.3142  0.3569
  370loPI   GL2 5910   2.947   4.906   9.167  0.1882 -0.2566 -0.0655
  370loPI   C1A 5911   2.763   5.350   8.822 -0.0661 -0.2909 -0.3170
  370loPI   C2A 5912   2.703   5.622   8.471 -0.1116 -0.1638 -0.4464
  370loPI   C3A 5913   2.848   5.732   8.078 -0.0842  0.2196  0.1183
  370loPI   C4A 5914   2.780   6.131   7.729 -0.1071 -0.2670 -0.0108
  370loPI   C5A 5915   3.053   6.327   7.449  0.3868  0.1073  0.0701
  370loPI   C6A 5916   3.262   6.677   7.317  0.0217  0.1016 -0.0205
  370loPI   C1B 5917   2.726   4.844   8.873 -0.1029  0.2179  0.1610
  370loPI   C2B 5918   2.595   4.972   8.534  0.0405 -0.1608  0.2240
  370loPI   C3B 5919   2.772   5.218   8.175  0.2506  0.1628 -0.0611
  370loPI   C4B 5920   2.702   5.283   7.823 -0.0147 -0.1158 -0.0145
  371loPI    C1 5921  14.258  15.440  10.608 -0.0629 -0.2045 -0.1866
  371loPI    C2 5922  14.534  15.598  10.850 -0.1356 -0.0769 -0.1864
  371loPI    C3 5923  14.159  15.546  10.981 -0.1111 -0.2553 -0.1847
  371loPI   PO4 5924  14.311  15.653  10.347  0.0804  0.0305 -0.0438
  371loPI   GL1 5925  14.657  15.677  10.106  0.0261  0.1758 -0.0584
  371loPI   GL2 5926  14.568  15.974  10.055 -0.2327  0.4307 -0.0727
  371loPI   C1A 5927  14.398  15.569   9.725  0.0898  0.3655  0.0054
  371loPI   C2A 5928  14.484  15.717   9.274 -0.1517  0.1506 -0.3387
  371loPI   C3A 5929  14.529  15.517   8.813 -0.1314  0.0550 -0.0019
  371loPI   C4A 5930  14.358  15.278   8.454  0.1715 -0.1588  0.1285
  371loPI   C5A 5931  14.169  15.346   8.108  0.0206 -0.0497 -0.3109
  371loPI   C6A 5932  13.904  15.085   7.897 -0.2239  0.0965 -0.2014
  371loPI   C1B 5933  14.690  15.956   9.651 -0.0756 -0.2187  0.1288
  371loPI   C2B 5934  14.832  16.045   9.188 -0.1836  0.0601 -0.0556
  371loPI   C3B 5935  14.725  16.152   8.857 -0.2589 -0.0511 -0.1716
  371loPI   C4B 5936  14.447  16.287   8.522  0.1141 -0.0671 -0.1615
  372loPI    C1 5937   3.978  15.500  10.038  0.0020  0.0344 -0.1056
  372loPI    C2 5938   3.987  15.900  10.027  0.1857  0.0378  0.1003
  372loPI    C3 5939   3.897  15.712  10.368 -0.0418 -0.0967 -0.0312
  372loPI   PO4 5940   3.851  15.514   9.772  0.0044  0.2016  0.0804
  372loPI   GL1 5941   3.550  15.169   9.572 -0.4639 -0.2356  0.1280
  372loPI   GL2 5942   3.671  14.857   9.401 -0.3876 -0.0428 -0.0842
  372loPI   C1A 5943   3.702  15.272   9.122  0.1439  0.0106 -0.0381
  372loPI   C2A 5944   3.943  15.104   8.860  0.1127 -0.2859  0.0914
  372loPI   C3A 5945   4.119  14.873   8.521 -0.1421 -0.0276  0.0181
  372loPI   C4A 5946   4.198  14.681   8.086  0.1180  0.1710 -0.2360
  372loPI   C5A 5947   3.928  14.619   7.744 -0.0141  0.2090 -0.2972
  372loPI   C6A 5948   3.833  14.981   7.600 -0.1356  0.1225 -0.0110
  372loPI   C1B 5949   3.876  14.667   9.057 -0.0436  0.0033  0.2212
  372loPI   C2B 5950   3.831  14.520   8.710 -0.0647  0.0250 -0.0561
  372loPI   C3B 5951   3.755  14.741   8.315  0.4061  0.2615  0.1721
  372loPI   C4B 5952   3.538  14.903   8.054 -0.2111 -0.2466  0.0708
  373loPI    C1 5953   8.110  13.712   9.979 -0.0144 -0.2961  0.0761
  373loPI    C2 5954   8.101  13.890  10.337 -0.2744  0.2094 -0.1706
  373loPI    C3 5955   7.913  13.542  10.282 -0.1260  0.0632  0.2106
  373loPI   PO4 5956   8.410  13.679   9.965  0.1117 -0.1577 -0.2295
  373loPI   GL1 5957   8.546  13.582   9.583  0.0627 -0.0206 -0.0027
  373loPI   GL2 5958   8.227  13.384   9.575 -0.3076 -0.2276  0.3117
  373loPI   C1A 5959   8.607  13.780   9.256  0.0462 -0.1743  0.2520
  373loPI   C2A 5960   8.426  13.969   8.872  0.2139 -0.1475 -0.2482
  373loPI   C3A 5961   8.305  14.066   8.500 -0.2928 -0.0774  0.3005
  373loPI   C4A 5962   7.949  14.308   8.260  0.0991  0.1440  0.0319
  373loPI   C5A 5963   7.600  14.075   8.117  0.0171 -0.2801  0.0593
  373loPI   C6A 5964   7.498  13.684   7.830  0.2283  0.0463  0.2109
  373loPI   C1B 5965   8.021  13.516   9.170 -0.1554 -0.3599  0.2315
  373loPI   C2B 5966   7.968  13.941   9.050 -0.2052 -0.0759 -0.3081
  373loPI   C3B 5967   8.090  14.314   8.916  0.0916  0.0709 -0.0498
  373loPI   C4B 5968   7.800  14.507   8.712  0.1482 -0.1338 -0.3758
  374loPI    C1 5969  15.751  12.125  10.457  0.0520  0.0712  0.0732
  374loPI    C2 5970  15.528  12.235  10.769 -0.1264 -0.2514  0.0640
  374loPI    C3 5971  15.817  11.963  10.816  0.1924  0.0770  0.0507
  374loPI   PO4 5972  15.546  12.183  10.215  0.2200  0.2844 -0.2161
  374loPI   GL1 5973  15.390  12.125   9.735 -0.0502 -0.2740  0.2559
  374loPI   GL2 5974  15.618  11.840   9.659 -0.0431 -0.1481  0.0892
  374loPI   C1A 5975  15.269  12.190   9.401  0.1253 -0.1226 -0.0193
  374loPI   C2A 5976  15.106  12.208   8.972 -0.0197 -0.0407 -0.0533
  374loPI   C3A 5977  15.300  12.265   8.651  0.3742 -0.0674  0.0534
  374loPI   C4A 5978  15.418  12.545   8.316  0.1609 -0.0296 -0.0923
  374loPI   C5A 5979  15.472  12.740   7.901  0.0890  0.2595  0.2274
  374loPI   C6A 5980  15.830  12.952   7.695 -0.0501 -0.4221  0.0833
  374loPI   C1B 5981  15.567  11.840   9.229  0.3080  0.1504  0.2019
  374loPI   C2B 5982  15.555  11.858   8.812 -0.0998  0.1620 -0.0571
  374loPI   C3B 5983  15.543  11.949   8.385  0.1107  0.2624  0.0753
  374loPI   C4B 5984  15.382  11.994   8.058 -0.0454  0.1820  0.1161
  375loPI    C1 5985   8.629  14.535  10.205  0.0287  0.0419 -0.0809
  375loPI    C2 5986   8.529  14.547  10.592  0.2871 -0.1346 -0.0060
  375loPI    C3 5987   8.460  14.216  10.378  0.1507 -0.0396 -0.1107
  375loPI   PO4 5988   8.871  14.542  10.073  0.2553 -0.3579 -0.1219
  375loPI   GL1 5989   9.007  14.359   9.761  0.0815  0.1349  0.1029
  375loPI   GL2 5990   9.279  14.164   9.723  0.1384 -0.0743 -0.0557
  375loPI   C1A 5991   8.882  14.288   9.368 -0.0232  0.0052  0.0105
  375loPI   C2A 5992   8.849  14.305   8.971  0.0529 -0.0766 -0.2206
  375loPI   C3A 5993   8.771  14.429   8.585  0.0486  0.6084 -0.1050
  375loPI   C4A 5994   8.942  14.533   8.169 -0.0457 -0.0005  0.0293
  375loPI   C5A 5995   8.714  14.808   7.899 -0.0605  0.0648  0.0459
  375loPI   C6A 5996   8.480  15.052   7.717  0.0965 -0.0959 -0.3588
  375loPI   C1B 5997   9.413  14.229   9.274 -0.0874  0.1026  0.1053
  375loPI   C2B 5998   9.355  14.433   8.985  0.2664  0.1425  0.2010
  375loPI   C3B 5999   9.265  14.621   8.608 -0.0262 -0.1068  0.3904
  375loPI   C4B 6000   9.539  14.782   8.384  0.0441 -0.1946  0.2337
  376loPI    C1 6001  15.923   8.420   9.851 -0.1074 -0.3035  0.1316
  376loPI    C2 6002  15.844   8.653  10.167 -0.1530  0.0952 -0.1661
  376loPI    C3 6003  16.063   8.321  10.212 -0.0053  0.2440  0.2505
  376loPI   PO4 6004  16.008   8.613   9.715 -0.1882  0.1264 -0.0965
  376loPI   GL1 6005  15.895   8.942   9.487  0.0807  0.2856  0.1232
  376loPI   GL2 6006  15.988   9.258   9.419  0.1417 -0.0561 -0.0133
  376loPI   C1A 6007  16.161   8.981   9.055  0.0300  0.1517  0.6100
  376loPI   C2A 6008  16.347   8.897   8.657  0.0379  0.1483  0.0057
  376loPI   C3A 6009  16.394   8.837   8.186  0.0229  0.1801  0.1953
  376loPI   C4A 6010  16.462   8.815   7.807 -0.0116 -0.0465 -0.1728
  376loPI   C5A 6011  16.587   8.524   7.435 -0.1352  0.3376  0.0443
  376loPI   C6A 6012  16.918   8.558   7.271  0.1344 -0.1456 -0.1569
  376loPI   C1B 6013  16.090   9.529   9.141 -0.1586 -0.0864  0.1679
  376loPI   C2B 6014  16.278   9.410   8.751  0.1033  0.0870 -0.2281
  376loPI   C3B 6015  16.475   9.267   8.336 -0.2716 -0.1951  0.2231
  376loPI   C4B 6016  16.685   9.222   8.043  0.0973  0.0750 -0.1526
  377loPI    C1 6017   6.737   7.459  10.350  0.1869 -0.1267 -0.0061
  377loPI    C2 6018   6.603   7.377  10.718  0.1732 -0.0552  0.0049
  377loPI    C3 6019   6.588   7.097  10.434 -0.0665 -0.0263 -0.0132
  377loPI   PO4 6020   6.667   7.859  10.296  0.3640 -0.2481 -0.0306
  377loPI   GL1 6021   6.566   8.188  10.027  0.0533 -0.1648  0.0726
  377loPI   GL2 6022   6.294   8.343   9.894  0.0882 -0.0014 -0.1471
  377loPI   C1A 6023   6.824   8.103   9.595  0.0712 -0.1710  0.0879
  377loPI   C2A 6024   7.078   7.886   9.187  0.2923  0.0295  0.1141
  377loPI   C3A 6025   7.073   7.835   8.737 -0.0269 -0.0333 -0.1622
  377loPI   C4A 6026   7.187   7.728   8.399 -0.1049 -0.0220  0.1268
  377loPI   C5A 6027   7.264   7.671   7.913 -0.0622 -0.1687 -0.3150
  377loPI   C6A 6028   7.153   7.534   7.480  0.0819  0.1342 -0.0569
  377loPI   C1B 6029   6.385   8.354   9.474 -0.0732  0.5041  0.0872
  377loPI   C2B 6030   6.510   8.079   9.148 -0.0995 -0.0426  0.0481
  377loPI   C3B 6031   6.520   7.964   8.767 -0.0296  0.1640 -0.1215
  377loPI   C4B 6032   6.680   8.021   8.366  0.0420 -0.0649 -0.1424
  378loPI    C1 6033  14.592  12.216  10.425  0.0991  0.2048  0.2018
  378loPI    C2 6034  14.723  12.591  10.376  0.0425  0.2070  0.0622
  378loPI    C3 6035  14.411  12.518  10.615  0.0105  0.2574  0.0360
  378loPI   PO4 6036  14.528  12.131  10.204  0.1349 -0.0218  0.1949
  378loPI   GL1 6037  14.657  12.401   9.861  0.0182  0.1089 -0.0239
  378loPI   GL2 6038  14.466  12.317   9.735 -0.3416 -0.3099  0.1021
  378loPI   C1A 6039  14.879  12.453   9.476 -0.0825 -0.3761  0.1220
  378loPI   C2A 6040  14.800  12.621   8.992  0.0670  0.1080  0.3647
  378loPI   C3A 6041  14.967  12.620   8.605  0.0955 -0.2120  0.0744
  378loPI   C4A 6042  15.007  12.806   8.221  0.3987 -0.3349  0.0397
  378loPI   C5A 6043  14.971  12.794   7.851 -0.2150 -0.1358 -0.1076
  378loPI   C6A 6044  15.100  12.729   7.385  0.1645 -0.1407  0.2127
  378loPI   C1B 6045  14.355  12.538   9.394 -0.1472  0.0170 -0.1441
  378loPI   C2B 6046  14.302  12.465   9.036  0.4820 -0.1150  0.0360
  378loPI   C3B 6047  14.462  12.560   8.630  0.0784  0.2243 -0.0748
  378loPI   C4B 6048  14.553  12.703   8.228 -0.0463 -0.1544  0.0024
  379loPI    C1 6049   3.478  16.354  10.133 -0.0094 -0.2918 -0.0216
  379loPI    C2 6050   3.483  16.120  10.457  0.2086  0.0205  0.2070
  379loPI    C3 6051   3.407  16.511  10.494  0.0174  0.0212 -0.1489
  379loPI   PO4 6052   3.728  16.313   9.991  0.1080  0.1322  0.0536
  379loPI   GL1 6053   3.700  16.072   9.559 -0.1853  0.2216  0.1508
  379loPI   GL2 6054   3.544  16.165   9.397 -0.1037  0.2849  0.1241
  379loPI   C1A 6055   3.986  15.822   9.230  0.0255  0.0951  0.0623
  379loPI   C2A 6056   4.145  15.586   8.918 -0.0135 -0.2048 -0.0826
  379loPI   C3A 6057   4.275  15.445   8.660 -0.1325  0.1604 -0.1792
  379loPI   C4A 6058   4.506  15.196   8.349 -0.1287  0.0476 -0.3365
  379loPI   C5A 6059   4.476  15.115   7.930  0.0906 -0.0304 -0.3052
  379loPI   C6A 6060   4.346  14.930   7.658  0.2195 -0.3202  0.0257
  379loPI   C1B 6061   3.640  16.213   9.060  0.1068 -0.1007  0.1238
  379loPI   C2B 6062   3.701  16.277   8.598 -0.0214  0.0949  0.0156
  379loPI   C3B 6063   3.882  16.372   8.315  0.0795 -0.0333 -0.0108
  379loPI   C4B 6064   4.066  16.666   8.005 -0.0188  0.0932  0.1504
  380loPI    C1 6065  14.711   7.435  10.120 -0.0458 -0.0661  0.0250
  380loPI    C2 6066  14.598   7.795  10.253  0.1448  0.1232 -0.3111
  380loPI    C3 6067  14.956   7.649  10.354  0.0096 -0.0399 -0.0565
  380loPI   PO4 6068  14.614   7.420   9.876 -0.1578  0.0720 -0.0256
  380loPI   GL1 6069  14.385   7.225   9.623  0.0176  0.3143  0.1546
  380loPI   GL2 6070  14.461   6.943   9.406 -0.1955  0.0808 -0.0611
  380loPI   C1A 6071  14.119   7.254   9.156  0.2308  0.0167 -0.2307
  380loPI   C2A 6072  14.367   7.305   8.745 -0.1323  0.1520  0.1040
  380loPI   C3A 6073  14.433   7.334   8.289  0.3475  0.2013  0.2437
  380loPI   C4A 6074  14.198   7.127   7.938 -0.1136 -0.1424  0.1662
  380loPI   C5A 6075  14.144   6.709   7.717  0.0042  0.0018 -0.0819
  380loPI   C6A 6076  13.763   6.602   7.424 -0.3989  0.2519  0.1094
  380loPI   C1B 6077  14.560   6.961   9.023 -0.1461 -0.0341  0.1891
  380loPI   C2B 6078  14.620   6.901   8.574 -0.2539 -0.0450  0.1811
  380loPI   C3B 6079  14.512   6.700   8.114  0.4653 -0.2266  0.1439
  380loPI   C4B 6080  14.493   6.349   7.876  0.2837 -0.0977  0.0521
  381loPI    C1 6081  13.342   5.228  10.195  0.1915  0.0308  0.1359
  381loPI    C2 6082  13.005   5.312  10.393  0.0989  0.0895 -0.0437
  381loPI    C3 6083  13.337   5.214  10.594  0.0313  0.2363  0.1428
  381loPI   PO4 6084  13.424   5.462   9.979 -0.1129 -0.0521  0.0969
  381loPI   GL1 6085  13.506   5.362   9.612 -0.6602 -0.0161 -0.2127
  381loPI   GL2 6086  13.851   5.259   9.534 -0.0172  0.1525 -0.0812
  381loPI   C1A 6087  13.327   5.140   9.242 -0.1738 -0.0126  0.2786
  381loPI   C2A 6088  13.304   5.198   8.885  0.1172  0.1760  0.3144
  381loPI   C3A 6089  13.345   5.260   8.437 -0.1664 -0.0898 -0.2259
  381loPI   C4A 6090  13.291   5.353   7.991  0.1223  0.0573 -0.1146
  381loPI   C5A 6091  13.154   5.333   7.501  0.2279  0.2477 -0.2257
  381loPI   C6A 6092  12.906   5.019   7.401 -0.0117 -0.2448 -0.0566
  381loPI   C1B 6093  13.714   5.532   9.146  0.0782 -0.0578  0.1292
  381loPI   C2B 6094  13.740   5.745   8.716  0.1070 -0.1263  0.3159
  381loPI   C3B 6095  13.841   5.990   8.345  0.0978 -0.1089 -0.1989
  381loPI   C4B 6096  13.717   5.992   7.933 -0.0318 -0.4330 -0.0603
  382loPI    C1 6097   6.396   3.465  10.223 -0.2921  0.0018  0.0585
  382loPI    C2 6098   6.546   3.263  10.534 -0.1570 -0.1754 -0.1192
  382loPI    C3 6099   6.173   3.405  10.549 -0.0758  0.0127  0.2104
  382loPI   PO4 6100   6.537   3.610  10.072  0.1846  0.0864  0.2688
  382loPI   GL1 6101   6.465   3.589   9.669 -0.0259  0.1454 -0.2345
  382loPI   GL2 6102   6.433   3.345   9.386 -0.0678 -0.0979 -0.2807
  382loPI   C1A 6103   6.752   3.761   9.237 -0.1130  0.0090 -0.0042
  382loPI   C2A 6104   6.850   3.801   8.729  0.0329  0.1098 -0.1297
  382loPI   C3A 6105   6.695   3.836   8.400 -0.2666  0.2353  0.0443
  382loPI   C4A 6106   6.518   3.545   8.063 -0.0679  0.1840  0.1023
  382loPI   C5A 6107   6.434   3.472   7.615  0.1345 -0.1621 -0.3440
  382loPI   C6A 6108   6.236   3.153   7.483 -0.3208  0.0937  0.0148
  382loPI   C1B 6109   6.608   3.211   9.002  0.0854  0.2048  0.1984
  382loPI   C2B 6110   6.825   2.840   8.743 -0.1988  0.1841  0.0086
  382loPI   C3B 6111   6.876   2.730   8.290  0.2296 -0.2118 -0.1475
  382loPI   C4B 6112   6.951   2.684   7.820  0.2068 -0.1348  0.1425
  383loPI    C1 6113   7.625  13.123  10.138  0.2068 -0.1850 -0.1052
  383loPI    C2 6114   7.878  12.995  10.420  0.4138 -0.2729 -0.3278
  383loPI    C3 6115   7.566  12.769  10.315  0.1393 -0.0885  0.0676
  383loPI   PO4 6116   7.739  13.197   9.925 -0.1364  0.0095 -0.1255
  383loPI   GL1 6117   7.727  13.193   9.509  0.3671  0.0672  0.1334
  383loPI   GL2 6118   7.662  12.931   9.285 -0.0939  0.2171 -0.4794
  383loPI   C1A 6119   7.541  13.369   9.109  0.1076 -0.1026  0.2715
  383loPI   C2A 6120   7.484  13.478   8.589 -0.1415 -0.2303 -0.2486
  383loPI   C3A 6121   7.302  13.512   8.236  0.0277  0.0986 -0.0784
  383loPI   C4A 6122   7.113  13.298   7.815 -0.2089  0.2666 -0.1390
  383loPI   C5A 6123   7.083  13.093   7.465  0.0888  0.0739 -0.1665
  383loPI   C6A 6124   7.067  13.264   7.066  0.2253 -0.0147  0.2418
  383loPI   C1B 6125   7.544  12.785   8.911  0.0475  0.0132  0.0921
  383loPI   C2B 6126   7.590  12.681   8.475 -0.3593  0.0266 -0.4377
  383loPI   C3B 6127   7.760  12.518   8.054 -0.0895  0.1738 -0.0244
  383loPI   C4B 6128   7.796  12.196   7.716 -0.1067  0.0103  0.0309
  384loPI    C1 6129   8.105   0.910  10.554  0.1172 -0.1365 -0.1519
  384loPI    C2 6130   7.843   0.664  10.729 -0.0303  0.0425 -0.1173
  384loPI    C3 6131   8.083   0.893  10.953 -0.0030  0.0455 -0.1495
  384loPI   PO4 6132   8.217   0.829  10.362  0.0597  0.2019 -0.1213
  384loPI   GL1 6133   8.187   0.605  10.002 -0.2078 -0.0333  0.1362
  384loPI   GL2 6134   7.927   0.611   9.855  0.0178  0.0598 -0.0320
  384loPI   C1A 6135   8.404   0.796   9.642 -0.1651 -0.0765  0.0865
  384loPI   C2A 6136   8.463   0.928   9.249 -0.1509 -0.0814  0.1317
  384loPI   C3A 6137   8.404   0.891   8.816  0.1485  0.3861 -0.0489
  384loPI   C4A 6138   8.371   0.818   8.370  0.0852  0.0047 -0.1149
  384loPI   C5A 6139   8.437   1.039   7.990 -0.0014 -0.2371  0.3872
  384loPI   C6A 6140   8.407   1.017   7.593 -0.0872  0.2228 -0.0088
  384loPI   C1B 6141   8.027   0.634   9.364  0.0278  0.2729  0.4595
  384loPI   C2B 6142   8.114   0.556   8.995  0.3559  0.1418 -0.1310
  384loPI   C3B 6143   8.223   0.386   8.654 -0.1431 -0.0725 -0.2823
  384loPI   C4B 6144   8.205   0.323   8.191  0.3750  0.1451  0.3286
  385loPI    C1 6145  18.226  17.466   9.878 -0.0605  0.1662 -0.1128
  385loPI    C2 6146  18.180  17.766  10.138 -0.0219 -0.0312  0.1249
  385loPI    C3 6147  18.379  17.436  10.246 -0.2035 -0.2109 -0.0795
  385loPI   PO4 6148  18.238  17.614   9.646 -0.1262 -0.0464 -0.3215
  385loPI   GL1 6149  18.199  17.692   9.163  0.1864 -0.0591 -0.1148
  385loPI   GL2 6150  17.917  17.674   9.265 -0.0973 -0.2383 -0.1174
  385loPI   C1A 6151  18.248  17.894   8.770 -0.2078  0.0325  0.4795
  385loPI   C2A 6152  18.015  17.920   8.384 -0.1511 -0.1197  0.0889
  385loPI   C3A 6153  17.714  18.120   7.969 -0.2559  0.0562  0.3142
  385loPI   C4A 6154  17.304  18.127   7.797  0.0253  0.2138  0.4082
  385loPI   C5A 6155  16.817  18.272   7.692  0.1859  0.1054 -0.0238
  385loPI   C6A 6156  16.519  18.014   7.619 -0.1884 -0.1156  0.0119
  385loPI   C1B 6157  17.825  17.603   8.806  0.1384  0.1102  0.1320
  385loPI   C2B 6158  17.609  17.557   8.413 -0.0566  0.1779  0.0114
  385loPI   C3B 6159  17.457  17.704   8.102  0.1209 -0.4598  0.1466
  385loPI   C4B 6160  17.488  17.512   7.640  0.2374  0.2545  0.2200
  386loPI    C1 6161  17.621  15.812  10.366  0.1699 -0.1933  0.0906
  386loPI    C2 6162  17.808  15.883  10.713 -0.0827 -0.1624  0.2226
  386loPI    C3 6163  17.529  16.137  10.581 -0.1678 -0.3065  0.1222
  386loPI   PO4 6164  17.745  15.772  10.108  0.1133 -0.0229 -0.2814
  386loPI   GL1 6165  17.612  15.853   9.714 -0.1884  0.0037  0.1903
  386loPI   GL2 6166  17.809  16.017   9.687 -0.1239  0.0087  0.5591
  386loPI   C1A 6167  17.741  15.739   9.270  0.6566  0.1246  0.0543
  386loPI   C2A 6168  17.568  15.470   8.931  0.0339  0.1166 -0.1219
  386loPI   C3A 6169  17.549  15.250   8.595 -0.1005 -0.1303  0.0626
  386loPI   C4A 6170  17.466  15.057   8.166  0.1108  0.1165  0.0856
  386loPI   C5A 6171  17.396  14.842   7.798 -0.1121  0.0217 -0.0617
  386loPI   C6A 6172  17.085  14.740   7.454 -0.1395 -0.0687  0.0117
  386loPI   C1B 6173  18.139  15.969   9.347  0.0937 -0.1626 -0.2962
  386loPI   C2B 6174  18.184  16.026   8.925  0.2308  0.0581  0.5000
  386loPI   C3B 6175  18.234  16.046   8.499 -0.2370 -0.0888 -0.0781
  386loPI   C4B 6176  18.073  15.894   8.100  0.1491  0.0569  0.0897
  387loPI    C1 6177  10.430   2.061  10.413  0.1502  0.0133  0.1063
  387loPI    C2 6178  10.756   2.227  10.576  0.2431 -0.1413  0.0799
  387loPI    C3 6179  10.450   2.114  10.809  0.2693 -0.1296  0.1200
  387loPI   PO4 6180  10.396   2.249  10.164 -0.0064 -0.0450  0.1061
  387loPI   GL1 6181  10.493   2.250   9.799  0.1634 -0.2201  0.0915
  387loPI   GL2 6182  10.818   2.263   9.687 -0.0239 -0.0260 -0.1050
  387loPI   C1A 6183  10.683   1.771   9.729 -0.1527 -0.0857 -0.0555
  387loPI   C2A 6184  10.800   1.563   9.273 -0.2282 -0.0638  0.1160
  387loPI   C3A 6185  10.902   1.350   8.846 -0.0874 -0.4680  0.3719
  387loPI   C4A 6186  11.009   1.354   8.481 -0.0298  0.1344  0.1118
  387loPI   C5A 6187  11.382   1.220   8.180 -0.2114 -0.1244  0.0767
  387loPI   C6A 6188  11.599   0.865   8.084  0.2275 -0.0054  0.2012
  387loPI   C1B 6189  10.578   2.075   9.307 -0.1375 -0.1003 -0.0709
  387loPI   C2B 6190  10.631   1.843   8.906  0.1202  0.0375  0.1676
  387loPI   C3B 6191  10.670   1.709   8.464  0.1401 -0.1014 -0.2018
  387loPI   C4B 6192  10.652   1.384   8.098  0.1141 -0.1763  0.0580
  388loPI    C1 6193  12.814   0.466  10.616  0.0311 -0.0167 -0.1058
  388loPI    C2 6194  12.424   0.538  10.669  0.0179 -0.2432  0.1267
  388loPI    C3 6195  12.609   0.264  10.894  0.3055 -0.1604 -0.0040
  388loPI   PO4 6196  12.854   0.416  10.333  0.0321 -0.3184  0.0451
  388loPI   GL1 6197  12.502   0.423   9.996 -0.1112  0.1094 -0.4668
  388loPI   GL2 6198  12.549   0.741  10.128 -0.3495  0.1841  0.2542
  388loPI   C1A 6199  12.708   0.435   9.597 -0.0210  0.0832 -0.1612
  388loPI   C2A 6200  12.756   0.196   9.171  0.1576  0.1022 -0.0556
  388loPI   C3A 6201  12.767   0.132   8.664  0.2002 -0.0531  0.0354
  388loPI   C4A 6202  12.993   0.005   8.298 -0.1875 -0.0465  0.0368
  388loPI   C5A 6203  13.274   0.331   8.125  0.0455 -0.0342 -0.1996
  388loPI   C6A 6204  13.423   0.387   7.716  0.0825 -0.1085 -0.1096
  388loPI   C1B 6205  12.413   0.836   9.753 -0.1063  0.0292  0.1944
  388loPI   C2B 6206  12.248   0.620   9.417  0.2613 -0.2851  0.3468
  388loPI   C3B 6207  12.498   0.563   8.964 -0.0722 -0.0852 -0.0263
  388loPI   C4B 6208  12.415   0.526   8.602 -0.0393  0.1649 -0.1448
  389loPI    C1 6209   9.379  18.299  10.572  0.2720 -0.0146  0.0056
  389loPI    C2 6210   9.507  18.046  10.290  0.1287 -0.0367 -0.0405
  389loPI    C3 6211   9.626  18.000  10.669  0.1386 -0.1466 -0.0566
  389loPI   PO4 6212   9.181  18.415  10.364 -0.3085 -0.0041  0.4144
  389loPI   GL1 6213   9.099  18.405   9.888 -0.4427  0.1192 -0.2456
  389loPI   GL2 6214   9.352  18.250   9.793  0.0196  0.0598  0.1724
  389loPI   C1A 6215   9.130  18.446   9.404 -0.1715 -0.3184 -0.0750
  389loPI   C2A 6216   9.327  18.627   8.988 -0.4712  0.1009 -0.1676
  389loPI   C3A 6217   9.448  18.715   8.509  0.1862 -0.2972 -0.3117
  389loPI   C4A 6218   9.283  18.925   8.069 -0.1577 -0.1246 -0.1354
  389loPI   C5A 6219   8.936  19.159   7.811  0.2355  0.1840 -0.0850
  389loPI   C6A 6220   8.508  19.223   7.740  0.1339  0.3984 -0.0736
  389loPI   C1B 6221   9.019  18.012   9.649  0.3549 -0.0599  0.0051
  389loPI   C2B 6222   8.794  17.788   9.543 -0.0562  0.1970  0.0761
  389loPI   C3B 6223   8.528  17.747   9.242  0.0742  0.0478  0.0487
  389loPI   C4B 6224   8.191  17.500   9.123  0.1294 -0.1592  0.3446
  390loPI    C1 6225   3.659  11.192   9.698  0.3057 -0.1573 -0.3127
  390loPI    C2 6226   3.868  11.530   9.650 -0.0544  0.1226  0.0202
  390loPI    C3 6227   4.027  11.223   9.850  0.1851  0.1815 -0.0769
  390loPI   PO4 6228   3.505  11.189   9.518 -0.2605 -0.1017 -0.1498
  390loPI   GL1 6229   3.104  11.310   9.343  0.0269  0.0653 -0.1006
  390loPI   GL2 6230   3.244  11.634   9.226  0.0667  0.2843 -0.1248
  390loPI   C1A 6231   2.877  11.187   8.954  0.1357  0.2142  0.0094
  390loPI   C2A 6232   2.743  11.294   8.484 -0.0612 -0.1842 -0.0532
  390loPI   C3A 6233   2.517  11.431   8.128 -0.1111 -0.1806 -0.2637
  390loPI   C4A 6234   2.203  11.437   8.079 -0.4001 -0.0375 -0.0195
  390loPI   C5A 6235   1.861  11.794   7.942  0.1555  0.0283  0.2903
  390loPI   C6A 6236   1.848  11.879   7.534 -0.1117  0.0544 -0.0278
  390loPI   C1B 6237   3.233  11.491   8.775  0.1353 -0.5103 -0.1913
  390loPI   C2B 6238   3.302  11.589   8.332 -0.0257  0.1651  0.0180
  390loPI   C3B 6239   3.122  11.683   7.923  0.1281  0.0702  0.0193
  390loPI   C4B 6240   2.700  11.648   7.725 -0.0317 -0.0455 -0.0242
  391loPI    C1 6241   3.182   6.565  10.117 -0.1994  0.1429  0.1065
  391loPI    C2 6242   3.119   6.202  10.273  0.1949 -0.0207 -0.1015
  391loPI    C3 6243   3.099   6.527  10.506 -0.1451 -0.1737  0.0896
  391loPI   PO4 6244   3.423   6.558   9.988  0.1304 -0.2160  0.0699
  391loPI   GL1 6245   3.440   6.655   9.468 -0.0899  0.1574  0.1982
  391loPI   GL2 6246   3.392   6.925   9.542  0.2543 -0.2005  0.1744
  391loPI   C1A 6247   3.552   6.791   9.051  0.1611  0.0459 -0.0541
  391loPI   C2A 6248   3.613   6.894   8.630  0.3660  0.2150  0.0461
  391loPI   C3A 6249   3.745   6.805   8.174  0.0852  0.0726 -0.1774
  391loPI   C4A 6250   3.689   6.985   7.797  0.1612 -0.0798 -0.3817
  391loPI   C5A 6251   3.770   6.834   7.447 -0.2602  0.0778  0.1398
  391loPI   C6A 6252   3.928   6.415   7.362 -0.2912 -0.3800 -0.0545
  391loPI   C1B 6253   3.190   7.194   9.243  0.0828  0.2975  0.0822
  391loPI   C2B 6254   3.355   7.359   8.801  0.2916  0.2175 -0.0689
  391loPI   C3B 6255   3.606   7.347   8.406  0.0068  0.0116  0.1065
  391loPI   C4B 6256   3.595   7.411   7.955 -0.1112  0.0397 -0.1514
  392loPI    C1 6257   7.312  13.398   9.909  0.3601 -0.2628  0.0967
  392loPI    C2 6258   7.280  13.016   9.791  0.2895 -0.2357  0.0269
  392loPI    C3 6259   6.960  13.209   9.932  0.2794 -0.1424 -0.1223
  392loPI   PO4 6260   7.375  13.511   9.758 -0.0766 -0.0284 -0.0675
  392loPI   GL1 6261   7.283  13.978   9.652  0.0111  0.1422  0.1603
  392loPI   GL2 6262   7.092  14.182   9.534 -0.0593 -0.1463 -0.0416
  392loPI   C1A 6263   7.444  13.930   9.155 -0.2178  0.0378  0.1273
  392loPI   C2A 6264   7.624  14.052   8.665 -0.2403  0.2722 -0.0302
  392loPI   C3A 6265   7.924  13.785   8.305  0.1630  0.1022  0.1696
  392loPI   C4A 6266   8.107  13.621   8.082  0.1176  0.1759  0.0200
  392loPI   C5A 6267   8.000  13.616   7.702  0.1476 -0.0331  0.0916
  392loPI   C6A 6268   7.780  13.722   7.408 -0.0839  0.0356 -0.0863
  392loPI   C1B 6269   6.922  13.975   9.133  0.2791 -0.0522 -0.0918
  392loPI   C2B 6270   7.118  13.844   8.753  0.3222  0.0631  0.0884
  392loPI   C3B 6271   7.147  13.976   8.397  0.1642  0.0582  0.0958
  392loPI   C4B 6272   7.109  13.982   7.952 -0.2108  0.6318 -0.1764
  393loPI    C1 6273   9.039   9.877   9.941 -0.2819  0.2868 -0.0799
  393loPI    C2 6274   8.783   9.811  10.240 -0.2032  0.2982 -0.0095
  393loPI    C3 6275   9.144   9.965  10.317 -0.1936  0.3282 -0.1138
  393loPI   PO4 6276   8.876   9.989   9.788 -0.2044  0.1596  0.3671
  393loPI   GL1 6277   8.783  10.414   9.645  0.0738  0.0529  0.0459
  393loPI   GL2 6278   9.094  10.594   9.544  0.1868  0.4212 -0.2261
  393loPI   C1A 6279   8.570  10.384   9.291 -0.2689 -0.1305  0.0318
  393loPI   C2A 6280   8.617  10.392   8.848  0.0864 -0.1598  0.1203
  393loPI   C3A 6281   8.350  10.310   8.443 -0.0204  0.2012  0.3823
  393loPI   C4A 6282   8.056  10.499   8.092  0.3717 -0.3952  0.0777
  393loPI   C5A 6283   7.945  10.804   7.765 -0.1717  0.0863 -0.3469
  393loPI   C6A 6284   7.967  10.921   7.426  0.0075 -0.0426  0.0448
  393loPI   C1B 6285   9.036  10.423   9.176  0.2256 -0.0586 -0.1346
  393loPI   C2B 6286   9.095  10.488   8.774  0.0635  0.0839 -0.0139
  393loPI   C3B 6287   9.152  10.265   8.332 -0.3657 -0.3229  0.1331
  393loPI   C4B 6288   9.177  10.273   7.825 -0.1693  0.0877  0.1466
  394loPI    C1 6289  13.327   0.760  10.967  0.2650 -0.0723 -0.1147
  394loPI    C2 6290  13.285   0.876  11.348  0.1544  0.1208 -0.1841
  394loPI    C3 6291  13.225   0.494  11.247 -0.0150  0.1086 -0.0404
  394loPI   PO4 6292  13.159   0.867  10.686 -0.0573  0.1656 -0.0573
  394loPI   GL1 6293  12.943   0.968  10.289 -0.0363  0.1394  0.0486
  394loPI   GL2 6294  13.213   0.844  10.153  0.0306  0.0121  0.0189
  394loPI   C1A 6295  12.876   0.919   9.757 -0.1055  0.0972 -0.5009
  394loPI   C2A 6296  12.834   0.830   9.332 -0.1043 -0.1327 -0.0263
  394loPI   C3A 6297  12.903   0.908   8.841  0.1954 -0.0924  0.0031
  394loPI   C4A 6298  12.732   0.985   8.366  0.3167 -0.3359  0.1996
  394loPI   C5A 6299  12.651   1.207   8.054  0.0660  0.3062  0.0624
  394loPI   C6A 6300  12.532   1.372   7.665 -0.0204 -0.0748 -0.2420
  394loPI   C1B 6301  13.455   0.861   9.796  0.2164 -0.1272  0.2369
  394loPI   C2B 6302  13.360   0.858   9.367  0.0392  0.0544 -0.5080
  394loPI   C3B 6303  13.465   0.768   8.971  0.0087 -0.0833  0.1322
  394loPI   C4B 6304  13.470   0.669   8.504  0.3399  0.0419  0.1510
  395loPI    C1 6305  17.388   5.856   9.886 -0.1342 -0.0239  0.1905
  395loPI    C2 6306  17.353   6.085  10.212  0.0074 -0.0193  0.2028
  395loPI    C3 6307  17.206   5.713  10.212  0.0338 -0.0299  0.2824
  395loPI   PO4 6308  17.481   6.039   9.641  0.1835  0.3136  0.1480
  395loPI   GL1 6309  17.717   6.225   9.383 -0.1346  0.0393 -0.0211
  395loPI   GL2 6310  17.961   6.487   9.326 -0.0431  0.2520 -0.0007
  395loPI   C1A 6311  17.596   6.256   8.951 -0.0193  0.2629  0.0970
  395loPI   C2A 6312  17.621   6.364   8.514 -0.4757  0.2099  0.0499
  395loPI   C3A 6313  17.556   6.376   8.100  0.0262  0.1140 -0.4210
  395loPI   C4A 6314  17.588   6.104   7.709 -0.1818 -0.2185  0.0758
  395loPI   C5A 6315  17.412   6.098   7.447 -0.0492 -0.0285 -0.0255
  395loPI   C6A 6316  17.389   6.245   7.068  0.2211  0.2223 -0.1007
  395loPI   C1B 6317  18.048   6.445   8.935 -0.2775  0.2303 -0.1400
  395loPI   C2B 6318  18.135   6.204   8.596 -0.0962 -0.1726  0.1344
  395loPI   C3B 6319  17.963   6.117   8.139 -0.2753 -0.1398 -0.1955
  395loPI   C4B 6320  18.115   6.082   7.830 -0.1950 -0.2110  0.1134
  396loPI    C1 6321   1.581   2.528   9.927 -0.0031  0.0907 -0.2348
  396loPI    C2 6322   1.595   2.860  10.149 -0.1814 -0.0413 -0.0214
  396loPI    C3 6323   1.380   2.546  10.273  0.1513 -0.3132 -0.1177
  396loPI   PO4 6324   1.658   2.639   9.716  0.1640 -0.2262  0.0195
  396loPI   GL1 6325   1.701   2.464   9.269  0.0861 -0.0323  0.0865
  396loPI   GL2 6326   1.396   2.380   9.360  0.0626 -0.0029 -0.4508
  396loPI   C1A 6327   1.625   2.305   8.929 -0.0714  0.1858  0.1376
  396loPI   C2A 6328   1.294   2.177   8.573  0.0306 -0.0935 -0.1879
  396loPI   C3A 6329   0.920   2.008   8.339 -0.0858 -0.1529  0.4470
  396loPI   C4A 6330   0.643   1.793   8.100 -0.0747 -0.3043 -0.1187
  396loPI   C5A 6331   0.441   1.491   7.919 -0.0669  0.3237 -0.0365
  396loPI   C6A 6332   0.262   1.204   7.620  0.2777 -0.0539 -0.0698
  396loPI   C1B 6333   1.161   2.190   9.095  0.3787 -0.0236 -0.3277
  396loPI   C2B 6334   1.063   1.867   8.831 -0.0800  0.1167  0.2788
  396loPI   C3B 6335   0.847   1.468   8.592  0.2047 -0.1715  0.0159
  396loPI   C4B 6336   0.861   1.383   8.088  0.2445 -0.3617  0.1385
  397loPI    C1 6337  17.876   1.773  10.003  0.0001 -0.0305  0.0923
  397loPI    C2 6338  17.537   1.852  10.200  0.0854  0.3115  0.1079
  397loPI    C3 6339  17.827   1.642  10.378  0.0564  0.3935  0.2539
  397loPI   PO4 6340  17.802   1.980   9.831 -0.0439 -0.1452 -0.1096
  397loPI   GL1 6341  17.667   1.879   9.374 -0.0280 -0.1044  0.2702
  397loPI   GL2 6342  17.536   1.521   9.297 -0.0637 -0.1429 -0.3350
  397loPI   C1A 6343  17.533   1.909   8.880  0.0584  0.0213 -0.3227
  397loPI   C2A 6344  17.351   1.811   8.454 -0.0583 -0.0325 -0.1687
  397loPI   C3A 6345  17.356   1.623   8.071 -0.1020  0.0890 -0.2034
  397loPI   C4A 6346  17.062   1.313   8.028  0.0401  0.0804 -0.0260
  397loPI   C5A 6347  16.681   1.084   7.907 -0.3582  0.2566  0.2858
  397loPI   C6A 6348  16.284   0.982   8.036  0.3170 -0.0624  0.1441
  397loPI   C1B 6349  17.242   1.278   9.089  0.0583 -0.1978  0.2012
  397loPI   C2B 6350  17.080   1.335   8.577  0.1547  0.1064 -0.0580
  397loPI   C3B 6351  16.982   0.924   8.327 -0.0612  0.0214  0.0314
  397loPI   C4B 6352  16.817   0.517   8.250  0.0704  0.1412  0.0630
  398loPI    C1 6353  11.934   0.490  10.512  0.1396  0.2852  0.0002
  398loPI    C2 6354  12.012   0.174  10.745 -0.0699  0.1434 -0.1188
  398loPI    C3 6355  11.861   0.508  10.905  0.0946  0.1631 -0.0022
  398loPI   PO4 6356  12.113   0.402  10.317  0.1661 -0.1567  0.3171
  398loPI   GL1 6357  11.938   0.382   9.918  0.0767  0.1509  0.0332
  398loPI   GL2 6358  11.686   0.481   9.897 -0.1039 -0.0248  0.0407
  398loPI   C1A 6359  12.208   0.156   9.702 -0.2709 -0.1428  0.4648
  398loPI   C2A 6360  12.346   0.051   9.396  0.1935 -0.0706  0.4718
  398loPI   C3A 6361  12.454  -0.181   8.914 -0.0839 -0.2000  0.0782
  398loPI   C4A 6362  12.506  -0.360   8.555 -0.0857  0.1027  0.0447
  398loPI   C5A 6363  12.653  -0.270   8.060 -0.3859  0.0740  0.2053
  398loPI   C6A 6364  12.609  -0.204   7.615  0.1712 -0.3329  0.0850
  398loPI   C1B 6365  11.634   0.299   9.498 -0.2620 -0.0371  0.0302
  398loPI   C2B 6366  11.931   0.235   9.122  0.2727 -0.2195  0.0533
  398loPI   C3B 6367  12.155   0.097   8.721 -0.3973 -0.2007 -0.1461
  398loPI   C4B 6368  12.329   0.079   8.338 -0.1976 -0.1974 -0.0170
  399loPI    C1 6369   7.753   5.000   9.830  0.1520 -0.1328 -0.1495
  399loPI    C2 6370   7.784   4.715  10.109 -0.0122 -0.0571 -0.0519
  399loPI    C3 6371   8.111   4.846   9.918  0.1282  0.0214  0.2366
  399loPI   PO4 6372   7.419   4.899   9.762  0.0051 -0.0267  0.0718
  399loPI   GL1 6373   7.151   4.719   9.499  0.1638  0.0198 -0.0418
  399loPI   GL2 6374   7.333   4.752   9.289 -0.0050  0.4908  0.0002
  399loPI   C1A 6375   6.873   4.553   9.177 -0.0554 -0.1231 -0.0352
  399loPI   C2A 6376   6.862   4.527   8.667  0.2866 -0.1963 -0.1453
  399loPI   C3A 6377   6.730   4.342   8.268  0.2581  0.2121  0.3539
  399loPI   C4A 6378   6.524   4.021   7.898  0.0365  0.1475 -0.2838
  399loPI   C5A 6379   6.646   3.944   7.611 -0.2793 -0.0413  0.1215
  399loPI   C6A 6380   6.626   3.886   7.170  0.1729 -0.0905  0.1166
  399loPI   C1B 6381   7.344   4.597   8.963  0.0816 -0.3219  0.1731
  399loPI   C2B 6382   7.318   4.642   8.574  0.3445  0.2214  0.1572
  399loPI   C3B 6383   7.195   4.613   8.190 -0.0273  0.0519  0.0279
  399loPI   C4B 6384   6.881   4.477   7.829  0.0858  0.2602 -0.0897
  400loPI    C1 6385  18.030  10.974  10.158  0.2565  0.1305 -0.3396
  400loPI    C2 6386  18.249  11.201  10.404  0.0108  0.1753 -0.1581
  400loPI    C3 6387  18.085  10.861  10.538 -0.0793  0.1721 -0.2753
  400loPI   PO4 6388  18.097  11.091   9.952 -0.1152 -0.1733 -0.0651
  400loPI   GL1 6389  17.845  11.054   9.704  0.0935  0.0488  0.1755
  400loPI   GL2 6390  17.765  11.267   9.603  0.0473  0.0804 -0.2406
  400loPI   C1A 6391  17.806  11.136   9.120  0.1879 -0.1831 -0.2208
  400loPI   C2A 6392  17.675  11.404   8.819 -0.1866 -0.1318 -0.3452
  400loPI   C3A 6393  17.567  11.331   8.472  0.2451 -0.0437 -0.1646
  400loPI   C4A 6394  17.563  11.125   7.966 -0.0379 -0.1046  0.1373
  400loPI   C5A 6395  17.709  10.740   7.867 -0.2785 -0.2278 -0.0076
  400loPI   C6A 6396  17.777  10.385   7.587  0.0992 -0.0413 -0.1498
  400loPI   C1B 6397  17.783  11.599   9.253 -0.0179 -0.0224  0.0665
  400loPI   C2B 6398  17.624  11.904   8.951  0.0208  0.1027  0.0030
  400loPI   C3B 6399  17.819  12.226   8.581  0.1004  0.0220  0.1845
  400loPI   C4B 6400  17.676  12.510   8.366  0.2988  0.0272  0.0095
  401loPI    C1 6401  14.929   2.796  10.167  0.3304 -0.1828  0.1940
  401loPI    C2 6402  14.709   3.081  10.341  0.3490 -0.0493  0.0017
  401loPI    C3 6403  14.705   2.709  10.488  0.1000 -0.0175  0.0812
  401loPI   PO4 6404  15.073   2.957  10.010  0.1171  0.4031  0.0574
  401loPI   GL1 6405  15.124   3.175   9.572 -0.0021 -0.0644  0.1735
  401loPI   GL2 6406  15.298   2.939   9.505 -0.2310  0.1259 -0.0830
  401loPI   C1A 6407  15.122   3.324   9.117 -0.0867 -0.1334 -0.1022
  401loPI   C2A 6408  15.083   3.624   8.756  0.1027 -0.0076 -0.2005
  401loPI   C3A 6409  14.955   3.748   8.337 -0.4724  0.1977 -0.0268
  401loPI   C4A 6410  14.979   3.858   7.980 -0.1037  0.1725 -0.0721
  401loPI   C5A 6411  14.822   3.538   7.530  0.0155  0.0407  0.0562
  401loPI   C6A 6412  14.776   3.121   7.414  0.2626  0.0250 -0.2050
  401loPI   C1B 6413  15.240   2.797   9.008 -0.3076 -0.3498  0.0803
  401loPI   C2B 6414  15.167   3.068   8.600 -0.0722  0.0293  0.0395
  401loPI   C3B 6415  15.188   3.221   8.100  0.1509 -0.1690 -0.0964
  401loPI   C4B 6416  15.180   3.067   7.694  0.1428  0.3376  0.4410
  402loPI    C1 6417   1.673  12.068  10.051  0.0699  0.1795 -0.0684
  402loPI    C2 6418   1.449  12.142  10.374  0.1515 -0.0283  0.0371
  402loPI    C3 6419   1.819  12.291  10.349  0.1122  0.0634 -0.0019
  402loPI   PO4 6420   1.331  12.094   9.886  0.2076  0.2731  0.0290
  402loPI   GL1 6421   1.007  12.225   9.510  0.3251  0.4088  0.1679
  402loPI   GL2 6422   0.890  12.565   9.358 -0.0882  0.2676  0.2362
  402loPI   C1A 6423   0.986  12.141   9.052  0.2345 -0.1509 -0.2865
  402loPI   C2A 6424   1.179  12.040   8.660  0.0677 -0.3318 -0.1086
  402loPI   C3A 6425   0.981  12.026   8.329  0.2768 -0.2699 -0.0093
  402loPI   C4A 6426   0.986  11.980   7.918 -0.2023 -0.2057  0.4137
  402loPI   C5A 6427   1.122  12.352   7.606  0.0205 -0.0537  0.3140
  402loPI   C6A 6428   1.294  12.831   7.576 -0.0890 -0.0685  0.1364
  402loPI   C1B 6429   0.658  12.645   8.891 -0.1407  0.1340 -0.0969
  402loPI   C2B 6430   0.745  12.424   8.594  0.0828  0.2318  0.2554
  402loPI   C3B 6431   0.939  12.462   8.092  0.2284 -0.4551  0.1020
  402loPI   C4B 6432   0.804  12.722   7.816  0.1331 -0.0385  0.0392
  403loPI    C1 6433   8.369   6.267  10.454  0.2729  0.0781 -0.0099
  403loPI    C2 6434   8.204   6.606  10.588  0.0033 -0.0026 -0.1305
  403loPI    C3 6435   8.577   6.608  10.443  0.0936  0.1923  0.0982
  403loPI   PO4 6436   8.306   6.196  10.234  0.0265 -0.1930  0.0977
  403loPI   GL1 6437   7.995   6.275   9.770 -0.0037 -0.0257 -0.2265
  403loPI   GL2 6438   8.143   6.188   9.696  0.0434  0.0836 -0.3159
  403loPI   C1A 6439   7.706   6.363   9.426  0.0157 -0.1809  0.0747
  403loPI   C2A 6440   7.611   6.501   8.962 -0.0410 -0.0205 -0.2963
  403loPI   C3A 6441   7.540   6.422   8.527 -0.1267  0.3205 -0.1946
  403loPI   C4A 6442   7.716   6.585   8.128  0.3098 -0.1711 -0.4261
  403loPI   C5A 6443   7.841   6.879   7.844 -0.1375 -0.1593  0.0483
  403loPI   C6A 6444   8.106   7.248   7.745  0.1941 -0.0974 -0.1151
  403loPI   C1B 6445   8.276   6.294   9.303 -0.0379 -0.2766 -0.1349
  403loPI   C2B 6446   8.242   6.334   8.918  0.4096  0.0062  0.0311
  403loPI   C3B 6447   8.006   6.498   8.564  0.1940  0.3188  0.2611
  403loPI   C4B 6448   7.798   6.869   8.513  0.1531 -0.2477 -0.0366
  404loPI    C1 6449   4.673  12.710  10.111 -0.0043 -0.0886  0.0941
  404loPI    C2 6450   4.840  13.072  10.082 -0.1290 -0.0391 -0.0206
  404loPI    C3 6451   4.874  12.862  10.421  0.2691 -0.0826 -0.0831
  404loPI   PO4 6452   4.776  12.630   9.819  0.2824 -0.4246  0.1242
  404loPI   GL1 6453   4.876  12.650   9.377  0.1777 -0.5722 -0.3019
  404loPI   GL2 6454   4.552  12.522   9.335  0.1512  0.2409  0.0235
  404loPI   C1A 6455   4.940  12.446   9.012  0.2512 -0.0398 -0.3994
  404loPI   C2A 6456   4.928  12.340   8.653 -0.1142 -0.1816  0.2035
  404loPI   C3A 6457   4.847  12.285   8.196  0.1111 -0.2289 -0.1482
  404loPI   C4A 6458   4.946  12.281   7.826 -0.3897  0.0217 -0.1139
  404loPI   C5A 6459   5.025  12.690   7.578 -0.0401  0.0764  0.1650
  404loPI   C6A 6460   5.175  13.013   7.709 -0.1132  0.1964  0.0282
  404loPI   C1B 6461   4.496  12.205   8.954  0.1334  0.2481 -0.0106
  404loPI   C2B 6462   4.479  12.100   8.530  0.0754  0.1434  0.2551
  404loPI   C3B 6463   4.397  12.051   8.080 -0.3054 -0.2196  0.2891
  404loPI   C4B 6464   4.448  11.946   7.621  0.1013 -0.0015 -0.0994
  405loPI    C1 6465  10.647   4.117  10.173 -0.0028 -0.2783  0.2607
  405loPI    C2 6466  10.286   4.141  10.343 -0.1393  0.2353 -0.0785
  405loPI    C3 6467  10.612   4.243  10.551 -0.1777 -0.2445  0.2342
  405loPI   PO4 6468  10.643   4.343   9.972  0.2035  0.2070  0.2603
  405loPI   GL1 6469  10.555   4.497   9.592  0.4319 -0.0833 -0.1509
  405loPI   GL2 6470  10.414   4.161   9.549 -0.0139 -0.0802 -0.0392
  405loPI   C1A 6471  10.731   4.657   9.296 -0.2652 -0.0496  0.2074
  405loPI   C2A 6472  10.836   4.512   8.801  0.0035 -0.0613 -0.0478
  405loPI   C3A 6473  10.633   4.530   8.433 -0.0480  0.1585  0.1859
  405loPI   C4A 6474  10.429   4.221   8.186 -0.2384 -0.2160  0.1844
  405loPI   C5A 6475  10.523   3.887   7.875 -0.1252 -0.2052  0.0288
  405loPI   C6A 6476  10.669   3.408   7.969 -0.3833  0.0619  0.0256
  405loPI   C1B 6477  10.686   4.046   9.185  0.3793  0.0768 -0.2265
  405loPI   C2B 6478  10.595   4.011   8.842  0.1936 -0.2797 -0.0287
  405loPI   C3B 6479  10.220   3.968   8.519 -0.0043 -0.0753  0.0904
  405loPI   C4B 6480  10.198   3.612   8.183  0.0454 -0.2691 -0.0045
  406loPI    C1 6481   9.480  11.062  10.351  0.1995 -0.3893  0.0434
  406loPI    C2 6482   9.774  11.110  10.619  0.0249 -0.2685  0.2160
  406loPI    C3 6483   9.405  11.242  10.700  0.0044 -0.0870 -0.1501
  406loPI   PO4 6484   9.546  11.181  10.135 -0.1691  0.1086 -0.1664
  406loPI   GL1 6485   9.357  11.154   9.686  0.0656 -0.4998 -0.0620
  406loPI   GL2 6486   9.413  11.435   9.641  0.2647  0.3533 -0.1023
  406loPI   C1A 6487   9.246  10.963   9.264 -0.0294 -0.0040 -0.0829
  406loPI   C2A 6488   9.212  11.117   8.837  0.0250  0.2260 -0.0973
  406loPI   C3A 6489   9.141  10.991   8.431 -0.1850 -0.0504 -0.0911
  406loPI   C4A 6490   8.844  11.155   8.144  0.1378  0.1573  0.2439
  406loPI   C5A 6491   8.847  11.261   7.765  0.2037 -0.2584  0.0902
  406loPI   C6A 6492   8.699  11.063   7.361  0.0232  0.2200 -0.0404
  406loPI   C1B 6493   9.383  11.478   9.199 -0.2967 -0.0260  0.3116
  406loPI   C2B 6494   9.384  11.685   8.896  0.0067  0.0483  0.0040
  406loPI   C3B 6495   9.425  11.538   8.475 -0.1327  0.1334  0.0005
  406loPI   C4B 6496   9.273  11.456   8.045  0.0300 -0.1628  0.0113
  407loPI    C1 6497   0.060   4.071  10.001 -0.0571 -0.0110  0.0210
  407loPI    C2 6498   0.093   3.673  10.032  0.1303  0.0030  0.0170
  407loPI    C3 6499   0.364   3.910  10.206  0.0549  0.1279 -0.0344
  407loPI   PO4 6500   0.072   4.067   9.668  0.2933  0.0585  0.1288
  407loPI   GL1 6501   0.016   4.134   9.284  0.0061  0.2641  0.0120
  407loPI   GL2 6502  -0.304   4.083   9.287  0.2873  0.0091 -0.0327
  407loPI   C1A 6503   0.221   4.362   8.925 -0.0568 -0.1284 -0.1550
  407loPI   C2A 6504   0.329   4.449   8.510 -0.0077  0.3384  0.2147
  407loPI   C3A 6505   0.407   4.532   8.019 -0.0562 -0.0821  0.1482
  407loPI   C4A 6506   0.206   4.366   7.631  0.3073  0.0790 -0.0063
  407loPI   C5A 6507  -0.075   3.982   7.550 -0.1496 -0.2517  0.4040
  407loPI   C6A 6508  -0.349   3.789   7.316  0.0974  0.1292 -0.0963
  407loPI   C1B 6509  -0.408   4.216   8.874  0.0058 -0.0479  0.1421
  407loPI   C2B 6510  -0.726   4.279   8.384 -0.0954 -0.1355  0.0150
  407loPI   C3B 6511  -0.818   4.369   8.017  0.2329 -0.1300  0.0870
  407loPI   C4B 6512  -0.974   4.750   7.660 -0.0038  0.0575 -0.3962
  408loPI    C1 6513   4.502   0.527   9.880  0.0476 -0.1266 -0.2152
  408loPI    C2 6514   4.759   0.577  10.182 -0.0204 -0.0795 -0.1650
  408loPI    C3 6515   4.573   0.227  10.135 -0.3196  0.0396  0.0925
  408loPI   PO4 6516   4.621   0.584   9.632 -0.5508 -0.2396  0.0072
  408loPI   GL1 6517   4.853   0.743   9.246 -0.2264  0.2216 -0.1504
  408loPI   GL2 6518   4.959   0.376   9.228  0.0470 -0.2271 -0.1679
  408loPI   C1A 6519   4.809   0.624   8.849 -0.2235  0.1837  0.2633
  408loPI   C2A 6520   5.099   0.770   8.566 -0.0158 -0.5315 -0.2999
  408loPI   C3A 6521   5.184   0.667   8.131  0.0035  0.0988 -0.0119
  408loPI   C4A 6522   5.303   0.541   7.898  0.1825  0.0648  0.2725
  408loPI   C5A 6523   5.663   0.382   7.726 -0.1510  0.1926  0.1214
  408loPI   C6A 6524   5.865   0.084   7.602  0.1939 -0.1551  0.2465
  408loPI   C1B 6525   5.354   0.216   9.025  0.0735 -0.1396  0.1013
  408loPI   C2B 6526   5.500   0.320   8.635 -0.2851  0.2209 -0.4246
  408loPI   C3B 6527   5.677   0.688   8.327  0.2248  0.0849 -0.0314
  408loPI   C4B 6528   5.746   0.845   7.944  0.2299  0.3395  0.1032
  409loPI    C1 6529   3.526  17.375   9.681 -0.1773  0.2424 -0.0003
  409loPI    C2 6530   3.543  17.236  10.056  0.0469  0.0593 -0.0756
  409loPI    C3 6531   3.759  17.556   9.951  0.0400  0.0666 -0.0673
  409loPI   PO4 6532   3.419  17.093   9.628 -0.0131  0.1237 -0.0574
  409loPI   GL1 6533   3.300  16.953   9.200  0.1373  0.1072 -0.1371
  409loPI   GL2 6534   3.571  16.742   9.177 -0.0445 -0.0235  0.1209
  409loPI   C1A 6535   3.118  16.947   8.862 -0.2744  0.0726  0.2267
  409loPI   C2A 6536   3.093  17.024   8.362  0.3761 -0.1524 -0.0619
  409loPI   C3A 6537   2.808  16.960   8.003 -0.1573  0.1840 -0.0812
  409loPI   C4A 6538   2.517  16.809   7.899  0.0163 -0.1809  0.4892
  409loPI   C5A 6539   2.285  16.492   7.609  0.3481 -0.1331 -0.0208
  409loPI   C6A 6540   2.560  16.320   7.254  0.0588 -0.2630 -0.0926
  409loPI   C1B 6541   3.714  16.730   8.747 -0.3817 -0.2131  0.2507
  409loPI   C2B 6542   3.955  16.861   8.414  0.1617 -0.1755  0.0475
  409loPI   C3B 6543   3.969  17.128   8.076  0.0138  0.1519  0.0028
  409loPI   C4B 6544   4.085  17.072   7.636 -0.1731 -0.0470 -0.0129
  410loPI    C1 6545   0.363  10.496   9.992 -0.0307 -0.1184  0.0203
  410loPI    C2 6546   0.258  10.137  10.133 -0.0591 -0.0765  0.1064
  410loPI    C3 6547   0.151  10.468  10.330  0.0412 -0.0241  0.0736
  410loPI   PO4 6548   0.316  10.410   9.724  0.2531  0.2281 -0.1181
  410loPI   GL1 6549   0.391  10.210   9.373 -0.1445 -0.2160 -0.2504
  410loPI   GL2 6550   0.700  10.358   9.389 -0.2050  0.1421 -0.2389
  410loPI   C1A 6551   0.465  10.390   8.953 -0.1030 -0.1456 -0.0822
  410loPI   C2A 6552   0.561  10.371   8.494 -0.0287 -0.2227  0.2943
  410loPI   C3A 6553   0.723  10.456   8.083 -0.1281  0.2115  0.1404
  410loPI   C4A 6554   0.608  10.437   7.801  0.1004 -0.2822 -0.1717
  410loPI   C5A 6555   0.218  10.725   7.594  0.2297  0.1265 -0.0148
  410loPI   C6A 6556  -0.092  11.010   7.410 -0.3405 -0.2455  0.0016
  410loPI   C1B 6557   0.952  10.210   9.077  0.0100  0.1193 -0.1428
  410loPI   C2B 6558   0.869  10.050   8.779 -0.0749 -0.0273 -0.0514
  410loPI   C3B 6559   1.044  10.031   8.341 -0.0679 -0.3184 -0.1519
  410loPI   C4B 6560   1.110  10.087   8.026  0.1189  0.1235 -0.1459
  411loPI    C1 6561   3.120  10.289   9.918  0.1977  0.0061  0.0107
  411loPI    C2 6562   3.088  10.642  10.104  0.0280  0.0939 -0.1808
  411loPI    C3 6563   2.876  10.328  10.233  0.0256  0.1149 -0.1336
  411loPI   PO4 6564   3.086  10.345   9.648 -0.0991 -0.1800  0.0739
  411loPI   GL1 6565   3.245  10.510   9.237 -0.1737 -0.2112 -0.1836
  411loPI   GL2 6566   3.247  10.801   9.277 -0.0229  0.1381  0.0301
  411loPI   C1A 6567   3.159  10.242   8.805  0.1590  0.6227  0.0411
  411loPI   C2A 6568   3.276  10.270   8.381 -0.0213 -0.0601  0.0178
  411loPI   C3A 6569   3.368  10.293   7.983 -0.2517 -0.1371  0.2095
  411loPI   C4A 6570   3.232  10.192   7.631 -0.1222  0.1492  0.0069
  411loPI   C5A 6571   2.968   9.906   7.518  0.3086  0.2315  0.1492
  411loPI   C6A 6572   2.572   9.794   7.439  0.2378  0.1296 -0.1410
  411loPI   C1B 6573   3.393  11.033   8.909  0.0556  0.0539  0.0689
  411loPI   C2B 6574   3.348  11.097   8.508 -0.0928 -0.0209  0.1506
  411loPI   C3B 6575   3.127  11.162   8.159 -0.4987  0.1197  0.4090
  411loPI   C4B 6576   3.091  11.070   7.751 -0.0483 -0.2133  0.1666
  412loPI    C1 6577   8.131   1.418  10.878  0.2212 -0.2307 -0.0471
  412loPI    C2 6578   8.519   1.493  10.941  0.1772 -0.0274 -0.0102
  412loPI    C3 6579   8.241   1.695  11.145  0.0498 -0.1110 -0.0992
  412loPI   PO4 6580   8.190   1.444  10.512 -0.1805  0.0867 -0.2055
  412loPI   GL1 6581   8.104   1.739  10.109  0.2243  0.2471 -0.1632
  412loPI   GL2 6582   8.425   1.909  10.119  0.0108 -0.2465  0.0586
  412loPI   C1A 6583   8.219   1.510   9.645 -0.4389  0.3636  0.0608
  412loPI   C2A 6584   8.333   1.478   9.287  0.3426  0.2895 -0.0990
  412loPI   C3A 6585   8.352   1.402   8.856 -0.3568  0.0174  0.0476
  412loPI   C4A 6586   8.415   1.586   8.438 -0.2000  0.0968 -0.0378
  412loPI   C5A 6587   8.677   1.568   8.145  0.0327 -0.0724  0.1429
  412loPI   C6A 6588   9.089   1.482   8.232 -0.1534  0.1975 -0.2984
  412loPI   C1B 6589   8.670   1.623   9.839  0.6444 -0.2360 -0.2698
  412loPI   C2B 6590   8.855   1.686   9.461 -0.0629  0.2559  0.1157
  412loPI   C3B 6591   8.786   1.649   9.079  0.2641 -0.3113  0.2013
  412loPI   C4B 6592   9.121   1.464   8.777  0.2916  0.2284 -0.1313
  413loPI    C1 6593   7.620   9.540  10.156 -0.2069 -0.2775 -0.4361
  413loPI    C2 6594   7.406   9.434  10.477  0.0266 -0.1480 -0.2343
  413loPI    C3 6595   7.225   9.485  10.124 -0.3113  0.1655 -0.0228
  413loPI   PO4 6596   7.678   9.722  10.168 -0.0961 -0.2310  0.0552
  413loPI   GL1 6597   7.690   9.963   9.727 -0.3178  0.2229  0.1871
  413loPI   GL2 6598   7.963  10.001   9.750  0.2845  0.3122 -0.1076
  413loPI   C1A 6599   7.619  10.039   9.251 -0.2542  0.0137  0.1746
  413loPI   C2A 6600   7.568   9.963   8.827  0.1311 -0.0939  0.0489
  413loPI   C3A 6601   7.795   9.843   8.359  0.3061 -0.3783 -0.1807
  413loPI   C4A 6602   7.999   9.908   7.919 -0.2133 -0.1762  0.2615
  413loPI   C5A 6603   8.334  10.218   7.879 -0.1031 -0.2285  0.0865
  413loPI   C6A 6604   8.711  10.394   8.027  0.1843  0.0874  0.2110
  413loPI   C1B 6605   8.070  10.232   9.293 -0.1467 -0.1638 -0.2318
  413loPI   C2B 6606   8.123  10.148   8.843  0.0604  0.1039 -0.2318
  413loPI   C3B 6607   8.205   9.853   8.630  0.1842 -0.3173 -0.1664
  413loPI   C4B 6608   8.250   9.560   8.367 -0.1249  0.2510  0.1043
  414loPI    C1 6609  11.224  12.776  10.169  0.1906  0.1172  0.2498
  414loPI    C2 6610  11.101  12.398  10.217  0.2776  0.0829  0.2030
  414loPI    C3 6611  10.838  12.698  10.244  0.1474 -0.0020 -0.0821
  414loPI   PO4 6612  11.251  12.840   9.929  0.2496 -0.0247 -0.0462
  414loPI   GL1 6613  11.394  13.158   9.707  0.1653  0.1034  0.1427
  414loPI   GL2 6614  11.519  13.343   9.750 -0.0720 -0.1234 -0.1610
  414loPI   C1A 6615  11.308  13.273   9.235  0.1016  0.0601 -0.1648
  414loPI   C2A 6616  11.306  13.243   8.772  0.4624  0.0160 -0.0494
  414loPI   C3A 6617  11.051  13.403   8.371 -0.1597  0.0564  0.2996
  414loPI   C4A 6618  11.210  13.489   7.927  0.1791  0.0075  0.2846
  414loPI   C5A 6619  11.402  13.757   7.629 -0.0294 -0.1344  0.1170
  414loPI   C6A 6620  11.443  14.120   7.334  0.0640 -0.1687 -0.1126
  414loPI   C1B 6621  11.679  13.560   9.338 -0.0401 -0.0645  0.0119
  414loPI   C2B 6622  11.876  13.472   8.923 -0.0917 -0.3507  0.0010
  414loPI   C3B 6623  11.632  13.564   8.559 -0.1347  0.2354 -0.4294
  414loPI   C4B 6624  11.622  13.809   8.189  0.1556 -0.0810  0.2620
  415loPI    C1 6625  12.935  11.372  10.181  0.1062 -0.0957  0.0548
  415loPI    C2 6626  12.975  11.652  10.464  0.0942  0.0293 -0.0659
  415loPI    C3 6627  12.656  11.410  10.466  0.2209 -0.1413  0.1745
  415loPI   PO4 6628  12.959  11.490   9.952 -0.0176 -0.2228  0.2623
  415loPI   GL1 6629  12.625  11.620   9.630  0.3221 -0.2023 -0.2553
  415loPI   GL2 6630  12.450  11.430   9.448  0.0628  0.5192  0.0107
  415loPI   C1A 6631  12.836  11.718   9.268  0.0696  0.2706  0.1764
  415loPI   C2A 6632  13.104  11.892   8.937 -0.0958  0.0642 -0.0292
  415loPI   C3A 6633  13.298  12.002   8.603 -0.0850  0.1353  0.0484
  415loPI   C4A 6634  13.401  11.916   8.211  0.0414  0.0325 -0.1656
  415loPI   C5A 6635  13.621  11.886   7.846 -0.1158  0.2429 -0.1865
  415loPI   C6A 6636  13.979  11.804   7.638 -0.0604  0.1471 -0.1455
  415loPI   C1B 6637  12.601  11.334   8.957 -0.3720 -0.1861 -0.3584
  415loPI   C2B 6638  12.945  11.395   8.766  0.1904 -0.0692  0.0361
  415loPI   C3B 6639  13.078  11.562   8.337  0.1708 -0.1462  0.0666
  415loPI   C4B 6640  12.995  11.773   7.890  0.1938 -0.0208  0.1726
  416loPI    C1 6641   8.205  10.564  10.579 -0.1702 -0.0816  0.1125
  416loPI    C2 6642   8.503  10.815  10.669 -0.2137 -0.0618  0.2020
  416loPI    C3 6643   8.269  10.670  10.959 -0.2656 -0.1095  0.1365
  416loPI   PO4 6644   8.119  10.560  10.282 -0.0567 -0.1295  0.1118
  416loPI   GL1 6645   7.958  10.835   9.944 -0.0442 -0.1043 -0.0497
  416loPI   GL2 6646   7.693  10.607   9.946  0.1283  0.1215  0.1719
  416loPI   C1A 6647   8.072  10.800   9.433  0.1909  0.0516 -0.1352
  416loPI   C2A 6648   8.190  10.728   9.098  0.1206  0.2788  0.1418
  416loPI   C3A 6649   8.289  10.768   8.636 -0.5811  0.4398  0.0673
  416loPI   C4A 6650   8.422  10.824   8.205  0.0953 -0.0714 -0.3079
  416loPI   C5A 6651   8.599  10.854   7.808 -0.0796  0.0259 -0.4376
  416loPI   C6A 6652   8.890  10.621   7.582 -0.0119 -0.0266 -0.1672
  416loPI   C1B 6653   7.649  10.552   9.489 -0.0645 -0.1584 -0.2199
  416loPI   C2B 6654   7.672  10.509   9.034  0.0137  0.0624 -0.2642
  416loPI   C3B 6655   7.746  10.365   8.597  0.3681  0.0644  0.3077
  416loPI   C4B 6656   7.537  10.210   8.183 -0.2451 -0.3216 -0.2372
  417loPI    C1 6657  15.164   5.464  10.213 -0.1294 -0.1757  0.0141
  417loPI    C2 6658  15.350   5.793  10.344 -0.1030 -0.1097 -0.1852
  417loPI    C3 6659  15.378   5.452  10.551  0.2108 -0.0915 -0.1936
  417loPI   PO4 6660  15.141   5.491   9.873 -0.1277  0.1547  0.0608
  417loPI   GL1 6661  15.111   5.748   9.451 -0.2314  0.3590  0.0536
  417loPI   GL2 6662  14.803   5.738   9.564 -0.0188 -0.1684  0.1072
  417loPI   C1A 6663  15.294   5.648   9.055  0.1222 -0.1481  0.2713
  417loPI   C2A 6664  15.431   5.509   8.630  0.2061 -0.3252 -0.0295
  417loPI   C3A 6665  15.393   5.644   8.259  0.1023  0.3877  0.0003
  417loPI   C4A 6666  15.379   5.470   7.878  0.0751 -0.0348  0.2056
  417loPI   C5A 6667  15.231   5.231   7.491  0.1357 -0.0950 -0.3216
  417loPI   C6A 6668  15.566   4.884   7.238 -0.2603 -0.2146 -0.0740
  417loPI   C1B 6669  14.804   5.618   9.105  0.0088 -0.1254 -0.1469
  417loPI   C2B 6670  14.919   5.531   8.691 -0.0428  0.1513  0.1715
  417loPI   C3B 6671  15.032   5.300   8.251  0.0715 -0.3679 -0.0165
  417loPI   C4B 6672  14.884   5.211   7.852 -0.0494 -0.2318  0.0672
  418loPI    C1 6673  12.307   3.117  10.233  0.0242 -0.1196 -0.1746
  418loPI    C2 6674  12.087   3.032  10.556  0.0356  0.2463 -0.0666
  418loPI    C3 6675  12.077   2.790  10.238  0.0861 -0.1618  0.2351
  418loPI   PO4 6676  12.224   3.304  10.127 -0.1262 -0.0855  0.0477
  418loPI   GL1 6677  12.291   3.451   9.736  0.2135  0.0270 -0.1674
  418loPI   GL2 6678  12.165   3.688   9.761  0.0892  0.3703  0.0165
  418loPI   C1A 6679  12.519   3.672   9.372 -0.2775  0.1637  0.3515
  418loPI   C2A 6680  12.333   3.770   8.897  0.1527 -0.2089 -0.0139
  418loPI   C3A 6681  12.035   3.981   8.613  0.1187 -0.3064  0.1800
  418loPI   C4A 6682  11.895   4.039   8.163 -0.2051  0.1071  0.2171
  418loPI   C5A 6683  11.920   4.489   7.940 -0.0118  0.1054  0.0961
  418loPI   C6A 6684  11.839   4.950   7.764 -0.2985  0.0545  0.0357
  418loPI   C1B 6685  12.060   3.732   9.303  0.3568 -0.0079  0.0293
  418loPI   C2B 6686  11.849   3.995   9.097  0.5611 -0.1648  0.1374
  418loPI   C3B 6687  11.616   4.186   8.793 -0.2490 -0.2971 -0.0838
  418loPI   C4B 6688  11.481   4.181   8.369  0.1099 -0.0282  0.0635
  419loPI    C1 6689   7.586   8.200  10.419  0.2737  0.0003 -0.1776
  419loPI    C2 6690   7.785   7.896  10.587  0.2401  0.1022  0.0503
  419loPI    C3 6691   7.691   8.218  10.805  0.0120  0.1474 -0.1108
  419loPI   PO4 6692   7.667   8.190  10.194 -0.1269 -0.0210 -0.0863
  419loPI   GL1 6693   7.741   7.848   9.916 -0.0176 -0.0050 -0.1420
  419loPI   GL2 6694   7.414   7.898   9.890 -0.3396  0.3013 -0.1878
  419loPI   C1A 6695   7.698   7.398   9.728 -0.0687  0.0331 -0.1979
  419loPI   C2A 6696   7.680   7.311   9.295 -0.0284 -0.1701 -0.1755
  419loPI   C3A 6697   7.507   7.051   8.953 -0.4497  0.1678  0.0339
  419loPI   C4A 6698   7.308   6.836   8.556 -0.2565 -0.3546 -0.0494
  419loPI   C5A 6699   7.282   6.801   8.076 -0.0671  0.0142  0.0480
  419loPI   C6A 6700   7.245   6.872   7.647  0.0411 -0.2828  0.0374
  419loPI   C1B 6701   7.587   7.784   9.417  0.0735 -0.0522  0.2506
  419loPI   C2B 6702   7.546   7.666   8.947 -0.4334 -0.1453 -0.3612
  419loPI   C3B 6703   7.534   7.326   8.551  0.1508  0.3051 -0.1129
  419loPI   C4B 6704   7.565   7.281   8.133  0.0158  0.0474  0.1301
  420loPI    C1 6705  12.594  12.205  10.021  0.0476 -0.3111 -0.0772
  420loPI    C2 6706  12.652  11.823  10.124  0.2102 -0.3583 -0.3351
  420loPI    C3 6707  12.935  12.095  10.200 -0.1185 -0.1804  0.3330
  420loPI   PO4 6708  12.505  12.246   9.815 -0.0918 -0.1260  0.1586
  420loPI   GL1 6709  12.366  11.994   9.455  0.1052 -0.1746 -0.0670
  420loPI   GL2 6710  12.051  11.964   9.442  0.2650  0.2706 -0.1555
  420loPI   C1A 6711  12.460  12.034   8.985  0.3348  0.0076 -0.1632
  420loPI   C2A 6712  12.634  11.811   8.611 -0.1982  0.0065  0.2091
  420loPI   C3A 6713  12.933  12.127   8.317  0.0391 -0.0192  0.1196
  420loPI   C4A 6714  12.759  12.461   8.014 -0.1081 -0.0862 -0.1013
  420loPI   C5A 6715  12.850  12.878   7.974 -0.0594  0.1978  0.2455
  420loPI   C6A 6716  12.656  13.220   8.067 -0.0075 -0.1450 -0.1390
  420loPI   C1B 6717  12.135  11.717   9.137 -0.1066  0.1315  0.1829
  420loPI   C2B 6718  12.227  11.561   8.633  0.0531  0.1659 -0.3259
  420loPI   C3B 6719  12.461  11.448   8.284 -0.2738  0.3259 -0.3395
  420loPI   C4B 6720  12.373  11.209   7.910 -0.2867  0.0144 -0.1606
  421loPI    C1 6721   1.821   0.456   9.957  0.1352 -0.0033  0.0525
  421loPI    C2 6722   1.861   0.082  10.091 -0.4375 -0.0802  0.0347
  421loPI    C3 6723   1.827   0.384  10.350 -0.1292 -0.0546  0.0492
  421loPI   PO4 6724   1.917   0.433   9.735 -0.2504 -0.0028  0.2055
  421loPI   GL1 6725   2.244   0.360   9.421  0.4153  0.3867 -0.1303
  421loPI   GL2 6726   2.494   0.559   9.226  0.0205  0.0804 -0.4309
  421loPI   C1A 6727   2.180   0.169   9.010  0.3596 -0.0713  0.1847
  421loPI   C2A 6728   1.980   0.055   8.663 -0.0801 -0.1546  0.1722
  421loPI   C3A 6729   1.834   0.077   8.207 -0.1641 -0.0443  0.0926
  421loPI   C4A 6730   1.707  -0.099   7.921 -0.2338 -0.3418  0.0378
  421loPI   C5A 6731   1.336  -0.332   7.770  0.0828  0.2012  0.2937
  421loPI   C6A 6732   0.889  -0.328   7.987 -0.0229  0.0577  0.1097
  421loPI   C1B 6733   2.467   0.502   8.731 -0.0679 -0.1156 -0.4080
  421loPI   C2B 6734   2.402   0.709   8.431 -0.0494  0.1194  0.0911
  421loPI   C3B 6735   2.519   0.738   8.037  0.3800  0.4291  0.2053
  421loPI   C4B 6736   2.534   1.107   7.828 -0.0148  0.0811 -0.0754
  422loPI    C1 6737   4.949   7.788  10.145 -0.1268  0.0403  0.0282
  422loPI    C2 6738   4.553   7.790  10.207 -0.1143  0.4978  0.1281
  422loPI    C3 6739   4.801   7.919  10.493  0.1186  0.1271  0.1012
  422loPI   PO4 6740   5.095   7.584  10.142 -0.0592 -0.0444  0.4245
  422loPI   GL1 6741   5.026   7.492   9.614  0.0826 -0.1675 -0.0939
  422loPI   GL2 6742   5.181   7.209   9.482  0.0646  0.1500 -0.0149
  422loPI   C1A 6743   4.814   7.759   9.411  0.4636 -0.2336 -0.1049
  422loPI   C2A 6744   4.912   8.207   9.350 -0.1603  0.1722 -0.1345
  422loPI   C3A 6745   5.036   8.402   8.969 -0.0788 -0.0004  0.3900
  422loPI   C4A 6746   5.154   8.681   8.720 -0.2782  0.0049 -0.3123
  422loPI   C5A 6747   5.314   8.785   8.233 -0.2946 -0.0746  0.3148
  422loPI   C6A 6748   5.077   8.822   7.862  0.1471 -0.2132 -0.0601
  422loPI   C1B 6749   5.251   7.099   9.061 -0.2766  0.0403 -0.1136
  422loPI   C2B 6750   5.245   6.941   8.752 -0.1575  0.2224 -0.2586
  422loPI   C3B 6751   5.162   6.914   8.378 -0.0598 -0.0450  0.1042
  422loPI   C4B 6752   5.151   6.499   8.173 -0.0600  0.5141  0.2693
  423loPI    C1 6753   9.337   7.243  10.123  0.1033 -0.1016  0.0777
  423loPI    C2 6754   9.626   7.416   9.907 -0.0458  0.1009  0.0369
  423loPI    C3 6755   9.418   7.632  10.171 -0.4148  0.0494 -0.2057
  423loPI   PO4 6756   9.202   7.137   9.991 -0.0528 -0.0847 -0.2123
  423loPI   GL1 6757   9.115   6.797   9.759  0.2042  0.1333 -0.1224
  423loPI   GL2 6758   9.160   6.527   9.845  0.1726  0.3132  0.0375
  423loPI   C1A 6759   9.051   6.790   9.383 -0.1083  0.1596  0.0692
  423loPI   C2A 6760   9.039   6.493   8.960 -0.1999 -0.0518 -0.0949
  423loPI   C3A 6761   9.149   6.373   8.639 -0.0879  0.1726  0.0228
  423loPI   C4A 6762   9.006   6.350   8.233 -0.1584 -0.1865 -0.0206
  423loPI   C5A 6763   8.638   6.582   8.042  0.3097 -0.0797  0.0814
  423loPI   C6A 6764   8.206   6.494   7.779 -0.1407  0.2356  0.1837
  423loPI   C1B 6765   9.160   6.304   9.499 -0.2691 -0.0920 -0.0763
  423loPI   C2B 6766   9.276   6.129   9.158 -0.0528  0.0127 -0.0364
  423loPI   C3B 6767   9.391   5.917   8.838 -0.1524  0.3940  0.2026
  423loPI   C4B 6768   9.279   5.919   8.399 -0.1325  0.1217  0.0372
  424loPI    C1 6769  11.977  16.474  10.304 -0.0609 -0.0779 -0.3714
  424loPI    C2 6770  11.635  16.278  10.373  0.0630 -0.2094 -0.1196
  424loPI    C3 6771  11.791  16.514  10.656  0.1783 -0.1461 -0.2352
  424loPI   PO4 6772  11.972  16.458   9.940  0.0932 -0.3808 -0.0568
  424loPI   GL1 6773  11.815  16.311   9.636  0.1309 -0.1511 -0.0072
  424loPI   GL2 6774  12.073  16.594   9.470  0.0708 -0.0410  0.0222
  424loPI   C1A 6775  11.941  16.040   9.398  0.2587  0.0935 -0.2955
  424loPI   C2A 6776  11.934  15.734   9.072 -0.4042  0.1350  0.0417
  424loPI   C3A 6777  11.732  15.678   8.670  0.0950  0.2900  0.1152
  424loPI   C4A 6778  11.963  15.686   8.193 -0.1399  0.0346  0.1863
  424loPI   C5A 6779  12.218  15.711   7.897 -0.1092 -0.0887 -0.2891
  424loPI   C6A 6780  12.440  15.909   7.558 -0.3848  0.0396 -0.1273
  424loPI   C1B 6781  11.900  16.458   9.127  0.2213 -0.2418  0.1372
  424loPI   C2B 6782  11.927  16.447   8.706 -0.0402  0.2476 -0.0922
  424loPI   C3B 6783  12.125  16.580   8.325 -0.1515  0.2509 -0.2421
  424loPI   C4B 6784  12.468  16.451   8.165  0.1975 -0.0853  0.0196
  425loPI    C1 6785   6.987  11.725  10.234  0.1552  0.0354 -0.0262
  425loPI    C2 6786   7.174  11.416  10.406 -0.1606  0.0438  0.3472
  425loPI    C3 6787   7.257  11.790  10.522  0.2492  0.1110 -0.1307
  425loPI   PO4 6788   6.800  11.659   9.897 -0.0019  0.0546 -0.1126
  425loPI   GL1 6789   6.551  11.375   9.634  0.0430  0.0808 -0.1510
  425loPI   GL2 6790   6.779  11.177   9.462 -0.0472 -0.2673 -0.0522
  425loPI   C1A 6791   6.331  11.351   9.249 -0.0032  0.0636  0.0757
  425loPI   C2A 6792   6.389  11.129   8.839  0.1956  0.1922  0.3492
  425loPI   C3A 6793   6.563  11.045   8.439 -0.1396 -0.0482  0.0333
  425loPI   C4A 6794   6.579  11.179   8.065  0.1682 -0.0282  0.1602
  425loPI   C5A 6795   6.808  11.456   7.689  0.0837 -0.2416  0.1314
  425loPI   C6A 6796   7.076  11.402   7.459  0.3092  0.0334 -0.2950
  425loPI   C1B 6797   6.863  11.265   8.998 -0.0287 -0.1764  0.1098
  425loPI   C2B 6798   7.093  11.101   8.564  0.1368 -0.0795 -0.2479
  425loPI   C3B 6799   7.092  11.009   8.155 -0.0776  0.2228  0.1771
  425loPI   C4B 6800   7.017  10.882   7.807 -0.4092 -0.0124  0.2241
  426loPI    C1 6801   3.387   0.815   9.777 -0.0430  0.0181  0.0343
  426loPI    C2 6802   3.241   0.515   9.998  0.0431  0.1262  0.2405
  426loPI    C3 6803   3.284   0.879  10.158  0.0974  0.2086  0.0414
  426loPI   PO4 6804   3.686   0.831   9.723 -0.0279  0.1796  0.1944
  426loPI   GL1 6805   3.922   0.943   9.346  0.0702 -0.0781  0.0251
  426loPI   GL2 6806   3.791   0.688   9.267 -0.0284 -0.1299 -0.3221
  426loPI   C1A 6807   4.009   1.086   9.008  0.0724  0.0993  0.1236
  426loPI   C2A 6808   3.892   1.272   8.671 -0.2743  0.1862  0.1235
  426loPI   C3A 6809   3.831   1.413   8.295  0.0286 -0.0508 -0.0391
  426loPI   C4A 6810   3.853   1.361   7.801 -0.4007 -0.0296 -0.3234
  426loPI   C5A 6811   3.718   1.780   7.483 -0.0893  0.0233 -0.0346
  426loPI   C6A 6812   4.022   2.043   7.448  0.2260 -0.1594 -0.2423
  426loPI   C1B 6813   3.805   0.656   8.835 -0.1756 -0.2108  0.3215
  426loPI   C2B 6814   3.762   0.699   8.328 -0.5962  0.3944 -0.1543
  426loPI   C3B 6815   3.786   0.840   8.020 -0.4026  0.0026  0.0195
  426loPI   C4B 6816   3.765   0.850   7.656  0.2412  0.0240  0.3243
  427loPI    C1 6817  11.951   7.593  10.133  0.1870  0.1145  0.2402
  427loPI    C2 6818  11.837   7.214  10.191  0.0505  0.1126 -0.0252
  427loPI    C3 6819  12.225   7.302  10.141  0.0714 -0.0076 -0.0798
  427loPI   PO4 6820  11.687   7.710  10.115 -0.1231 -0.3513  0.2180
  427loPI   GL1 6821  11.511   7.913   9.724  0.1948 -0.2272 -0.2114
  427loPI   GL2 6822  11.807   7.936   9.668 -0.2043 -0.0947 -0.0734
  427loPI   C1A 6823  11.363   8.084   9.366 -0.2974  0.0888 -0.1222
  427loPI   C2A 6824  11.105   8.055   9.084 -0.2269  0.1482 -0.0270
  427loPI   C3A 6825  10.853   8.119   8.749 -0.0556 -0.0273 -0.0097
  427loPI   C4A 6826  10.738   8.006   8.347 -0.1782  0.2243 -0.1107
  427loPI   C5A 6827  10.734   7.920   7.818  0.1197 -0.3928 -0.2599
  427loPI   C6A 6828  10.710   8.351   7.711  0.0588  0.0065  0.2978
  427loPI   C1B 6829  11.900   7.925   9.242  0.3897 -0.0110 -0.0465
  427loPI   C2B 6830  11.564   7.934   8.958 -0.2394 -0.0774 -0.1930
  427loPI   C3B 6831  11.327   7.996   8.593 -0.1650  0.5865 -0.0674
  427loPI   C4B 6832  11.225   7.898   8.161 -0.4053  0.0456  0.2414
  428loPI    C1 6833   1.325   8.282  10.109 -0.1191  0.3702 -0.0606
  428loPI    C2 6834   1.626   8.424   9.887  0.2727 -0.1901  0.0904
  428loPI    C3 6835   1.588   8.537  10.269  0.0806  0.1442 -0.0233
  428loPI   PO4 6836   1.183   8.215   9.831  0.4138  0.1974 -0.0040
  428loPI   GL1 6837   1.012   8.276   9.450  0.0644 -0.0573  0.0281
  428loPI   GL2 6838   0.884   8.495   9.392 -0.0187 -0.1429  0.5090
  428loPI   C1A 6839   1.272   8.164   9.081  0.1573  0.2173 -0.1147
  428loPI   C2A 6840   1.091   8.156   8.636 -0.0695  0.0251  0.2401
  428loPI   C3A 6841   1.246   8.126   8.215 -0.1225 -0.0329  0.2177
  428loPI   C4A 6842   1.412   8.124   7.803 -0.1742  0.0562  0.1663
  428loPI   C5A 6843   1.211   8.274   7.378  0.4444  0.4015  0.2910
  428loPI   C6A 6844   1.188   8.720   7.122 -0.0327 -0.2896 -0.2142
  428loPI   C1B 6845   0.846   8.523   8.954 -0.1397  0.0696  0.1903
  428loPI   C2B 6846   0.894   8.586   8.483 -0.0515 -0.2023 -0.3618
  428loPI   C3B 6847   0.771   8.626   8.047 -0.1240 -0.0041 -0.2071
  428loPI   C4B 6848   0.457   8.590   7.704 -0.1373 -0.0974 -0.1507
  429loPI    C1 6849   9.497   4.945   9.787  0.1098 -0.1740  0.1119
  429loPI    C2 6850   9.481   4.738  10.129 -0.0438  0.0387  0.2355
  429loPI    C3 6851   9.399   5.130  10.128 -0.0603  0.0366 -0.0482
  429loPI   PO4 6852   9.790   4.926   9.702 -0.0908 -0.4123 -0.0085
  429loPI   GL1 6853   9.788   4.878   9.288 -0.3281 -0.2595 -0.0657
  429loPI   GL2 6854   9.605   5.057   9.254 -0.0013 -0.1122 -0.3543
  429loPI   C1A 6855   9.663   4.628   9.067 -0.1852 -0.5485 -0.2724
  429loPI   C2A 6856   9.641   4.602   8.661  0.1118  0.2364 -0.0830
  429loPI   C3A 6857   9.583   4.552   8.159 -0.3057 -0.1750  0.1703
  429loPI   C4A 6858   9.637   4.576   7.770 -0.1321 -0.3445  0.0016
  429loPI   C5A 6859   9.740   4.561   7.370  0.0400 -0.2071 -0.2416
  429loPI   C6A 6860   9.421   4.356   7.260  0.1761 -0.1529 -0.1359
  429loPI   C1B 6861   9.571   5.065   8.826 -0.1445  0.0232 -0.3215
  429loPI   C2B 6862   9.756   4.984   8.355 -0.3204 -0.0221 -0.0069
  429loPI   C3B 6863   9.979   4.991   7.878  0.0070 -0.1288 -0.1697
  429loPI   C4B 6864  10.249   4.804   7.632 -0.1124  0.0002 -0.3726
  430loPI    C1 6865  13.588  12.250  10.332 -0.0690 -0.1150  0.0773
  430loPI    C2 6866  13.616  12.312  10.726  0.1597  0.0438  0.0381
  430loPI    C3 6867  13.370  12.030  10.585 -0.1105  0.1539  0.2794
  430loPI   PO4 6868  13.684  12.492  10.152 -0.2528  0.0422 -0.0425
  430loPI   GL1 6869  13.859  12.832   9.815 -0.1285 -0.2643 -0.2223
  430loPI   GL2 6870  13.915  12.555   9.683 -0.1166  0.3013 -0.1177
  430loPI   C1A 6871  13.551  12.858   9.485 -0.0830  0.1030  0.0805
  430loPI   C2A 6872  13.353  12.656   9.062  0.2325 -0.0896 -0.0399
  430loPI   C3A 6873  13.259  12.499   8.636  0.0694  0.0982 -0.0625
  430loPI   C4A 6874  13.243  12.510   8.227  0.0595 -0.2585 -0.0701
  430loPI   C5A 6875  13.221  12.228   7.898  0.0446 -0.2910  0.1417
  430loPI   C6A 6876  13.406  12.214   7.513  0.2022  0.0646  0.0335
  430loPI   C1B 6877  13.868  12.548   9.191 -0.0761  0.3441 -0.0541
  430loPI   C2B 6878  13.847  12.480   8.724  0.0815  0.0913 -0.0660
  430loPI   C3B 6879  13.764  12.391   8.381 -0.2048 -0.1117 -0.3516
  430loPI   C4B 6880  13.660  12.346   7.975  0.1272  0.2585 -0.0256
  431loPI    C1 6881   5.065   6.115   9.673  0.0795 -0.1365  0.1828
  431loPI    C2 6882   5.277   6.308   9.952  0.2246  0.0257 -0.0358
  431loPI    C3 6883   5.268   5.908   9.948  0.1819  0.0221  0.2278
  431loPI   PO4 6884   4.774   6.222   9.643  0.0490 -0.0845 -0.1805
  431loPI   GL1 6885   4.586   6.392   9.271 -0.0076 -0.0255  0.3241
  431loPI   GL2 6886   4.967   6.319   9.144 -0.1834  0.1084  0.1474
  431loPI   C1A 6887   4.489   6.428   8.871 -0.0189 -0.1517 -0.1489
  431loPI   C2A 6888   4.431   6.446   8.544  0.0103 -0.0122  0.3025
  431loPI   C3A 6889   4.553   6.398   8.087  0.2108 -0.0192 -0.1774
  431loPI   C4A 6890   4.959   6.228   7.823  0.1568  0.1031 -0.1600
  431loPI   C5A 6891   5.360   6.395   7.687  0.1319 -0.2562 -0.0876
  431loPI   C6A 6892   5.450   6.808   7.456 -0.0156 -0.0623 -0.0840
  431loPI   C1B 6893   4.793   6.053   8.916 -0.2402  0.2299  0.0675
  431loPI   C2B 6894   4.465   5.954   8.618 -0.0242 -0.1517  0.0976
  431loPI   C3B 6895   4.458   5.906   8.138 -0.0110 -0.3736  0.1734
  431loPI   C4B 6896   4.577   5.813   7.638  0.0818 -0.2082  0.0654
  432loPI    C1 6897  10.199  17.396  10.611 -0.0097 -0.1007 -0.0257
  432loPI    C2 6898   9.861  17.585  10.711  0.1085  0.0590  0.0766
  432loPI    C3 6899  10.132  17.498  10.992  0.3169  0.2599 -0.0579
  432loPI   PO4 6900  10.197  17.262  10.389  0.0012 -0.2742 -0.0194
  432loPI   GL1 6901  10.250  17.306   9.911 -0.0191  0.0213  0.0551
  432loPI   GL2 6902   9.965  17.296   9.657 -0.2249 -0.1243 -0.0051
  432loPI   C1A 6903  10.401  17.426   9.550 -0.0606 -0.1261 -0.0735
  432loPI   C2A 6904  10.449  17.551   9.130  0.2037  0.0749 -0.3913
  432loPI   C3A 6905  10.356  17.652   8.752 -0.2055  0.1378  0.1247
  432loPI   C4A 6906  10.617  17.780   8.452 -0.0980 -0.1260  0.1864
  432loPI   C5A 6907  10.840  17.640   8.155  0.1384  0.2717 -0.0444
  432loPI   C6A 6908  11.168  17.465   7.942  0.2298  0.0632  0.2102
  432loPI   C1B 6909   9.992  17.460   9.221  0.2846 -0.0496 -0.0945
  432loPI   C2B 6910   9.910  17.393   8.767  0.1870  0.1885 -0.1473
  432loPI   C3B 6911   9.608  17.453   8.523 -0.0517 -0.0849  0.0650
  432loPI   C4B 6912   9.619  17.297   8.134  0.0733 -0.1002  0.2933
  433loPI    C1 6913   1.244   9.911   9.759 -0.2142 -0.1078  0.2159
  433loPI    C2 6914   1.182  10.221   9.514  0.0854 -0.2631 -0.0648
  433loPI    C3 6915   1.262  10.285   9.901 -0.0611 -0.0015 -0.0751
  433loPI   PO4 6916   1.436   9.768   9.570 -0.0467 -0.1414  0.0703
  433loPI   GL1 6917   1.415   9.939   9.147 -0.3743  0.1964  0.3338
  433loPI   GL2 6918   1.757  10.007   9.175  0.0844  0.2847  0.3483
  433loPI   C1A 6919   1.338   9.791   8.737  0.0286  0.0048 -0.1136
  433loPI   C2A 6920   1.527   9.761   8.400  0.1049  0.3290 -0.1554
  433loPI   C3A 6921   1.293   9.621   8.042 -0.2685 -0.0727 -0.2336
  433loPI   C4A 6922   1.307   9.690   7.590 -0.1153 -0.0822  0.1309
  433loPI   C5A 6923   1.005   9.464   7.337  0.1474 -0.1299 -0.0531
  433loPI   C6A 6924   0.765   9.107   7.301 -0.2690 -0.0846 -0.0749
  433loPI   C1B 6925   1.874   9.658   8.801  0.2629  0.0131  0.1582
  433loPI   C2B 6926   2.002   9.548   8.415  0.0867 -0.1632  0.0445
  433loPI   C3B 6927   2.193   9.377   8.059  0.0761 -0.0358  0.1145
  433loPI   C4B 6928   2.282   9.405   7.548 -0.2193  0.1737  0.0863
  434loPI    C1 6929  10.840   5.706  10.290 -0.2131 -0.1802  0.1788
  434loPI    C2 6930  10.610   5.995  10.444 -0.1578  0.0725 -0.1984
  434loPI    C3 6931  11.008   6.030  10.456 -0.1504 -0.0005 -0.2245
  434loPI   PO4 6932  10.776   5.650  10.042 -0.0289  0.0444 -0.1885
  434loPI   GL1 6933  10.658   5.828   9.665  0.0942  0.3218  0.0762
  434loPI   GL2 6934  10.969   5.837   9.630 -0.2497  0.1332  0.2626
  434loPI   C1A 6935  10.658   6.106   9.294 -0.0628  0.0603  0.3131
  434loPI   C2A 6936  10.604   6.391   9.023 -0.1804  0.0970  0.1930
  434loPI   C3A 6937  10.753   6.648   8.590 -0.0502  0.1997 -0.1020
  434loPI   C4A 6938  10.952   6.641   8.264 -0.0163  0.0828 -0.5345
  434loPI   C5A 6939  11.060   6.724   7.754  0.2499 -0.0155  0.0250
  434loPI   C6A 6940  11.200   7.016   7.433 -0.2814  0.0524  0.4496
  434loPI   C1B 6941  10.912   5.724   9.155  0.2417  0.4148 -0.2353
  434loPI   C2B 6942  10.733   5.880   8.771 -0.1498 -0.1227  0.0017
  434loPI   C3B 6943  10.700   5.713   8.462 -0.0362  0.2549 -0.1232
  434loPI   C4B 6944  10.544   5.552   8.092  0.2442 -0.0430 -0.0440
  435loPI    C1 6945  15.432   5.021  10.268  0.1105 -0.1414 -0.1674
  435loPI    C2 6946  15.545   4.641  10.217 -0.0911 -0.2655  0.2608
  435loPI    C3 6947  15.618   4.826  10.563  0.0772  0.1172  0.0272
  435loPI   PO4 6948  15.541   5.130  10.026 -0.2157  0.0320  0.1761
  435loPI   GL1 6949  15.381   5.187   9.552 -0.0792  0.1681  0.1880
  435loPI   GL2 6950  15.572   5.344   9.293  0.0922  0.0194 -0.2379
  435loPI   C1A 6951  15.094   5.156   9.170 -0.0239  0.0394  0.1169
  435loPI   C2A 6952  14.961   5.022   8.744  0.2567 -0.0056 -0.0903
  435loPI   C3A 6953  14.842   4.827   8.441  0.2071  0.0741  0.2401
  435loPI   C4A 6954  14.578   4.852   8.026 -0.1712 -0.1812  0.2837
  435loPI   C5A 6955  14.496   4.579   7.669 -0.2790 -0.2905  0.1193
  435loPI   C6A 6956  14.232   4.746   7.293 -0.2683  0.0830  0.0169
  435loPI   C1B 6957  15.516   5.093   8.891 -0.2050 -0.2456  0.0118
  435loPI   C2B 6958  15.406   4.933   8.467 -0.1575  0.3013  0.3365
  435loPI   C3B 6959  15.275   4.929   8.015  0.0925  0.0423  0.0502
  435loPI   C4B 6960  14.999   4.695   7.655 -0.0039  0.0490  0.1656
  436loPI    C1 6961   2.029   2.985   9.871  0.4119  0.0128 -0.0750
  436loPI    C2 6962   2.105   3.332  10.056 -0.1227  0.0863  0.0241
  436loPI    C3 6963   2.057   2.997  10.270 -0.1151  0.0488 -0.0324
  436loPI   PO4 6964   2.270   2.994   9.652  0.1728 -0.4181  0.1167
  436loPI   GL1 6965   2.107   2.868   9.315  0.1216  0.0626  0.0643
  436loPI   GL2 6966   2.098   3.159   9.166  0.1360  0.1285  0.0738
  436loPI   C1A 6967   1.898   2.736   8.896 -0.1450 -0.3471  0.0960
  436loPI   C2A 6968   1.979   2.587   8.369  0.0881 -0.3274 -0.3186
  436loPI   C3A 6969   1.934   2.798   8.076  0.1937 -0.2051  0.0513
  436loPI   C4A 6970   2.082   2.734   7.687  0.1142  0.0613 -0.0101
  436loPI   C5A 6971   1.931   2.696   7.272 -0.1447  0.0557 -0.2208
  436loPI   C6A 6972   1.882   3.025   7.019  0.1396 -0.2341  0.0670
  436loPI   C1B 6973   2.107   3.140   8.677  0.2640  0.0571  0.0179
  436loPI   C2B 6974   2.446   3.202   8.319  0.0285 -0.1054  0.2647
  436loPI   C3B 6975   2.475   3.016   7.932 -0.2232 -0.0995 -0.2995
  436loPI   C4B 6976   2.563   2.747   7.588  0.1419  0.0421  0.0412
  437loPI    C1 6977  15.178   3.410  10.273  0.1316  0.1327 -0.2156
  437loPI    C2 6978  15.227   3.747  10.482 -0.0975  0.2011 -0.2691
  437loPI    C3 6979  15.344   3.397  10.636  0.0944  0.2975 -0.1921
  437loPI   PO4 6980  15.181   3.509   9.970  0.0113 -0.0801  0.0580
  437loPI   GL1 6981  15.392   3.611   9.586  0.0310  0.0304  0.1779
  437loPI   GL2 6982  15.628   3.789   9.547  0.2801  0.2728  0.2319
  437loPI   C1A 6983  15.111   3.771   9.337 -0.2047  0.0065  0.0346
  437loPI   C2A 6984  15.039   4.071   8.988  0.4544 -0.1373 -0.1263
  437loPI   C3A 6985  14.748   4.320   8.550  0.0154 -0.0622  0.1139
  437loPI   C4A 6986  14.845   4.444   8.062  0.3935 -0.2421 -0.1406
  437loPI   C5A 6987  14.906   4.241   7.657  0.0985  0.0144  0.2652
  437loPI   C6A 6988  15.228   3.914   7.549  0.3183  0.2136  0.0643
  437loPI   C1B 6989  15.529   3.712   9.115  0.3039 -0.0896 -0.3938
  437loPI   C2B 6990  15.502   3.893   8.635 -0.1063  0.2175  0.0221
  437loPI   C3B 6991  15.507   3.701   8.249  0.1640 -0.0743 -0.0252
  437loPI   C4B 6992  15.438   3.554   7.871  0.1142 -0.2301 -0.0166
  438loPI    C1 6993  14.599   5.280  10.306 -0.2058 -0.0810 -0.0542
  438loPI    C2 6994  14.917   5.074  10.433 -0.0922  0.1603  0.0590
  438loPI    C3 6995  14.553   4.982  10.569 -0.0991 -0.2373 -0.2099
  438loPI   PO4 6996  14.709   5.384  10.009  0.4061  0.0718  0.1080
  438loPI   GL1 6997  14.709   5.270   9.554 -0.2861 -0.0402  0.0548
  438loPI   GL2 6998  14.335   5.345   9.656 -0.2717  0.0195  0.1323
  438loPI   C1A 6999  14.631   5.179   9.070 -0.3907  0.1167 -0.3369
  438loPI   C2A 7000  14.505   5.180   8.596 -0.1004  0.2499 -0.2267
  438loPI   C3A 7001  14.552   5.271   8.245  0.0572  0.1033  0.0936
  438loPI   C4A 7002  14.544   5.557   7.903 -0.0226  0.2595  0.0401
  438loPI   C5A 7003  14.592   5.981   7.597  0.0439 -0.0419 -0.0833
  438loPI   C6A 7004  14.497   6.443   7.360 -0.2128  0.1916 -0.1826
  438loPI   C1B 7005  14.201   5.410   9.225  0.2184 -0.3635  0.0433
  438loPI   C2B 7006  14.258   5.547   8.847  0.4021  0.0545 -0.1825
  438loPI   C3B 7007  14.191   5.587   8.471 -0.1020  0.0328  0.3039
  438loPI   C4B 7008  13.787   5.487   8.191 -0.2771  0.0063 -0.1042
  439loPI    C1 7009   8.808  11.455  10.293  0.0252 -0.1116  0.1597
  439loPI    C2 7010   9.187  11.508  10.176 -0.0216 -0.1667 -0.0200
  439loPI    C3 7011   9.082  11.582  10.554  0.0742  0.2845 -0.0762
  439loPI   PO4 7012   8.665  11.263  10.159 -0.2324  0.0443 -0.1222
  439loPI   GL1 7013   8.434  11.076   9.870 -0.1546  0.0688 -0.0636
  439loPI   GL2 7014   8.275  11.228   9.614  0.0229  0.3365 -0.4140
  439loPI   C1A 7015   8.596  10.843   9.522 -0.0193 -0.2957 -0.0223
  439loPI   C2A 7016   8.679  10.837   9.138 -0.5063 -0.1578 -0.1230
  439loPI   C3A 7017   8.740  10.921   8.759 -0.0208  0.0146 -0.1718
  439loPI   C4A 7018   8.802  10.697   8.437 -0.1715 -0.0761 -0.0775
  439loPI   C5A 7019   9.066  10.721   8.035  0.2768 -0.0209 -0.0807
  439loPI   C6A 7020   9.261  10.967   7.828  0.1813 -0.0594  0.0697
  439loPI   C1B 7021   8.317  11.189   9.225 -0.1550 -0.0527  0.1287
  439loPI   C2B 7022   8.308  11.164   8.902  0.1920 -0.1588 -0.1116
  439loPI   C3B 7023   8.448  11.291   8.510  0.2822 -0.0835 -0.0462
  439loPI   C4B 7024   8.348  11.328   8.018  0.2149 -0.2598  0.0679
  440loPI    C1 7025   5.510   0.873   9.932 -0.0265 -0.0138 -0.1564
  440loPI    C2 7026   5.732   0.667  10.193 -0.0683 -0.0896 -0.1801
  440loPI    C3 7027   5.426   0.889  10.322  0.1658  0.2061 -0.1220
  440loPI   PO4 7028   5.528   0.799   9.743  0.1969  0.2489  0.0374
  440loPI   GL1 7029   5.681   0.532   9.414 -0.1108  0.0979  0.2496
  440loPI   GL2 7030   5.389   0.691   9.262 -0.0722  0.2270  0.0918
  440loPI   C1A 7031   5.759   0.665   8.935  0.6127  0.1835 -0.0494
  440loPI   C2A 7032   5.536   0.985   8.638 -0.3931 -0.1638  0.0975
  440loPI   C3A 7033   5.342   1.130   8.331  0.1708 -0.1846  0.0553
  440loPI   C4A 7034   5.122   1.115   7.938  0.0939 -0.0192 -0.0842
  440loPI   C5A 7035   5.066   1.347   7.563 -0.2574 -0.1306  0.0027
  440loPI   C6A 7036   5.004   1.511   7.169 -0.0078  0.1354 -0.0062
  440loPI   C1B 7037   5.293   0.970   9.056  0.0739 -0.2123  0.1980
  440loPI   C2B 7038   4.954   1.248   9.036  0.0372  0.1037 -0.2300
  440loPI   C3B 7039   4.870   1.232   8.526 -0.2417 -0.1585 -0.0394
  440loPI   C4B 7040   4.877   1.469   8.091 -0.0175 -0.1070 -0.4132
  441loPI    C1 7041   4.608   5.206  10.051  0.2011  0.0315  0.1916
  441loPI    C2 7042   4.640   4.846   9.881 -0.3966  0.0003  0.1230
  441loPI    C3 7043   4.835   4.925  10.220  0.0492 -0.2525 -0.0657
  441loPI   PO4 7044   4.520   5.325   9.889 -0.0163  0.0631 -0.0190
  441loPI   GL1 7045   4.455   5.267   9.546  0.0112 -0.1407 -0.1106
  441loPI   GL2 7046   4.385   4.986   9.380  0.1196 -0.0442 -0.0189
  441loPI   C1A 7047   4.577   5.488   9.189 -0.1719  0.1410  0.0565
  441loPI   C2A 7048   4.716   5.552   8.792  0.0489 -0.1006  0.1394
  441loPI   C3A 7049   4.831   5.431   8.379  0.1834  0.2933 -0.2279
  441loPI   C4A 7050   4.838   5.377   7.857  0.1461  0.2741 -0.0391
  441loPI   C5A 7051   4.710   5.372   7.412  0.0584  0.0473 -0.0726
  441loPI   C6A 7052   4.822   5.023   7.219  0.0524 -0.0610  0.1290
  441loPI   C1B 7053   4.382   4.993   8.980 -0.1625  0.2078  0.0479
  441loPI   C2B 7054   4.487   5.078   8.541  0.1120 -0.1953  0.2527
  441loPI   C3B 7055   4.570   4.946   8.156  0.1426 -0.0208  0.2245
  441loPI   C4B 7056   4.458   4.905   7.671  0.1142 -0.1817 -0.1077
  442loPI    C1 7057   7.128   4.369   9.987 -0.2686 -0.1227 -0.1108
  442loPI    C2 7058   6.958   4.731  10.009  0.0018 -0.0148  0.3279
  442loPI    C3 7059   7.322   4.670  10.165  0.1526 -0.3701 -0.1382
  442loPI   PO4 7060   7.171   4.255   9.857 -0.1839  0.1337  0.0599
  442loPI   GL1 7061   7.263   4.202   9.513 -0.2195 -0.1101  0.1263
  442loPI   GL2 7062   7.100   3.919   9.488 -0.1103 -0.5741 -0.1082
  442loPI   C1A 7063   7.052   4.154   8.995  0.1805  0.1636  0.2126
  442loPI   C2A 7064   7.153   4.195   8.451  0.1974  0.1177 -0.0999
  442loPI   C3A 7065   7.022   4.033   7.968 -0.2741 -0.0477 -0.1128
  442loPI   C4A 7066   7.167   4.033   7.567 -0.0256 -0.4446  0.0209
  442loPI   C5A 7067   7.526   3.829   7.382 -0.1128 -0.0570  0.2147
  442loPI   C6A 7068   7.830   3.681   7.174  0.0657 -0.2456 -0.0576
  442loPI   C1B 7069   7.234   3.656   9.128 -0.4207 -0.0669 -0.1010
  442loPI   C2B 7070   7.070   3.373   8.803  0.1389  0.4435  0.0104
  442loPI   C3B 7071   6.847   3.250   8.462  0.0058 -0.4681  0.0194
  442loPI   C4B 7072   6.451   3.047   8.415  0.1518 -0.0504  0.1393
  443loPI    C1 7073  18.833  16.571  10.297 -0.0948 -0.2110  0.4681
  443loPI    C2 7074  19.149  16.633  10.059 -0.3874 -0.2201  0.0670
  443loPI    C3 7075  19.105  16.849  10.393 -0.3284  0.2936 -0.2471
  443loPI   PO4 7076  18.626  16.589  10.062 -0.1016 -0.0556  0.1307
  443loPI   GL1 7077  18.529  16.439   9.653  0.0084 -0.3082  0.1059
  443loPI   GL2 7078  18.448  16.271   9.701 -0.0490 -0.2166 -0.2685
  443loPI   C1A 7079  18.583  16.388   9.144 -0.2683  0.1898  0.0369
  443loPI   C2A 7080  18.631  16.410   8.724 -0.0971  0.1333  0.0248
  443loPI   C3A 7081  18.681  16.430   8.347 -0.0086 -0.0202 -0.0089
  443loPI   C4A 7082  18.496  16.314   7.956 -0.0057  0.3169  0.0965
  443loPI   C5A 7083  18.592  16.412   7.577  0.0161 -0.2287  0.1975
  443loPI   C6A 7084  18.867  16.473   7.237  0.0653 -0.0663 -0.1581
  443loPI   C1B 7085  18.842  16.072   9.428  0.1795  0.2697  0.5397
  443loPI   C2B 7086  18.922  16.070   9.022 -0.0926 -0.0358 -0.2973
  443loPI   C3B 7087  18.862  15.990   8.618  0.2488 -0.0668 -0.0217
  443loPI   C4B 7088  18.648  15.856   8.214  0.1224 -0.3023 -0.1691
  444loPI    C1 7089   4.717   2.034  10.234 -0.1765  0.0165 -0.0324
  444loPI    C2 7090   4.718   2.427  10.164 -0.0735  0.0197 -0.0147
  444loPI    C3 7091   5.063   2.225  10.175 -0.1273 -0.0741 -0.0397
  444loPI   PO4 7092   4.613   1.964  10.008  0.0772 -0.2518  0.0550
  444loPI   GL1 7093   4.770   1.831   9.655 -0.1204 -0.0244 -0.1739
  444loPI   GL2 7094   4.991   1.552   9.594 -0.1904  0.1089  0.2082
  444loPI   C1A 7095   4.805   2.147   9.253 -0.0938 -0.0497 -0.1405
  444loPI   C2A 7096   4.979   2.111   8.785  0.4317 -0.1002 -0.0454
  444loPI   C3A 7097   5.444   1.971   8.661  0.1487 -0.1182 -0.2819
  444loPI   C4A 7098   5.388   2.222   8.250 -0.2252  0.1802  0.3190
  444loPI   C5A 7099   5.483   2.099   7.819 -0.2348 -0.1942  0.2362
  444loPI   C6A 7100   5.353   1.809   7.507  0.3868  0.1935  0.0661
  444loPI   C1B 7101   5.170   1.732   9.185  0.0097  0.0033  0.1562
  444loPI   C2B 7102   5.384   1.528   8.974  0.0992  0.2204 -0.3260
  444loPI   C3B 7103   5.656   1.500   8.675 -0.2374 -0.0099  0.0954
  444loPI   C4B 7104   5.916   1.420   8.288 -0.0960  0.0368  0.0398
  445loPI    C1 7105   7.737   1.940  10.417  0.2383 -0.2409  0.1993
  445loPI    C2 7106   7.726   2.132  10.768 -0.0584  0.0235  0.0505
  445loPI    C3 7107   8.030   1.886  10.684  0.0526  0.0133  0.4611
  445loPI   PO4 7108   7.611   2.125  10.257  0.4355  0.0662  0.1219
  445loPI   GL1 7109   7.520   2.087   9.830 -0.2185 -0.0883 -0.0966
  445loPI   GL2 7110   7.670   1.836   9.863 -0.3429  0.4461 -0.0902
  445loPI   C1A 7111   7.574   2.096   9.456 -0.1205  0.2117 -0.1385
  445loPI   C2A 7112   7.901   2.332   9.224 -0.1224 -0.0750 -0.0650
  445loPI   C3A 7113   8.149   2.331   8.873 -0.0239  0.1324  0.1500
  445loPI   C4A 7114   8.286   2.219   8.530 -0.1770 -0.1256  0.2996
  445loPI   C5A 7115   8.499   2.039   8.165  0.1401  0.0153 -0.0005
  445loPI   C6A 7116   8.655   2.013   7.769  0.1300 -0.0797 -0.0455
  445loPI   C1B 7117   7.687   1.635   9.605  0.1576 -0.0798  0.3282
  445loPI   C2B 7118   7.853   1.656   9.291 -0.1120  0.0344  0.0447
  445loPI   C3B 7119   7.926   1.768   8.802 -0.0123  0.1943  0.0368
  445loPI   C4B 7120   7.968   1.788   8.381  0.2040 -0.0737 -0.0600
  446loPI    C1 7121   5.136  16.148  10.315 -0.0984  0.0461  0.2344
  446loPI    C2 7122   5.385  15.856  10.430 -0.2015 -0.1450 -0.0180
  446loPI    C3 7123   4.990  15.815  10.483 -0.2011  0.0444  0.1429
  446loPI   PO4 7124   5.333  16.230  10.081 -0.1767 -0.0603 -0.1298
  446loPI   GL1 7125   5.154  16.126   9.760 -0.0524 -0.1939 -0.0272
  446loPI   GL2 7126   5.123  16.332   9.566 -0.3431 -0.4222  0.0911
  446loPI   C1A 7127   5.014  15.957   9.309  0.3059  0.2478 -0.3914
  446loPI   C2A 7128   5.127  15.990   8.880 -0.0980 -0.1904 -0.1124
  446loPI   C3A 7129   5.318  15.879   8.533  0.0983  0.1214  0.0178
  446loPI   C4A 7130   5.214  15.856   8.110  0.2100  0.1949  0.1471
  446loPI   C5A 7131   5.091  15.885   7.641  0.3240  0.0299 -0.0785
  446loPI   C6A 7132   5.164  15.643   7.280 -0.2328  0.2325 -0.1959
  446loPI   C1B 7133   5.389  16.324   9.300  0.0183  0.0730 -0.0037
  446loPI   C2B 7134   5.479  16.321   8.853  0.0120  0.2651  0.0411
  446loPI   C3B 7135   5.531  16.677   8.502 -0.0215  0.0109  0.0337
  446loPI   C4B 7136   5.261  16.728   8.092  0.2147 -0.2292  0.0698
  447loPI    C1 7137  10.951   5.001  10.314  0.1275  0.0096  0.1336
  447loPI    C2 7138  11.256   4.791  10.466  0.1362 -0.0651  0.0144
  447loPI    C3 7139  10.957   4.602  10.279 -0.0019  0.0046  0.1622
  447loPI   PO4 7140  11.111   5.243  10.218 -0.2003 -0.2189  0.0398
  447loPI   GL1 7141  11.242   5.465   9.900 -0.2890 -0.1247 -0.0964
  447loPI   GL2 7142  11.021   5.382   9.588  0.2952 -0.0006 -0.1651
  447loPI   C1A 7143  11.499   5.197   9.586  0.1904 -0.2534  0.0382
  447loPI   C2A 7144  11.487   5.187   9.089 -0.1119 -0.0490  0.3857
  447loPI   C3A 7145  11.414   5.101   8.732  0.2890  0.0927 -0.1523
  447loPI   C4A 7146  11.435   5.047   8.327 -0.0379 -0.0960 -0.2378
  447loPI   C5A 7147  11.042   5.096   8.052 -0.2414  0.0543  0.4385
  447loPI   C6A 7148  10.779   5.057   7.582  0.1731 -0.2289 -0.2587
  447loPI   C1B 7149  10.720   5.256   9.291 -0.3008 -0.3712 -0.3251
  447loPI   C2B 7150  10.484   5.371   8.904 -0.3796 -0.0130  0.0190
  447loPI   C3B 7151  10.221   5.529   8.552  0.1565  0.0174  0.2445
  447loPI   C4B 7152  10.047   5.467   8.187 -0.1549  0.0832  0.5380
  448loPI    C1 7153  14.159   7.562  10.168 -0.1004 -0.0473 -0.0447
  448loPI    C2 7154  13.781   7.479  10.270 -0.0823  0.0322  0.0890
  448loPI    C3 7155  14.009   7.704  10.510  0.0058  0.1027 -0.0592
  448loPI   PO4 7156  14.159   7.659   9.942  0.1272  0.0732  0.0950
  448loPI   GL1 7157  14.070   7.687   9.431  0.0580  0.2145  0.2828
  448loPI   GL2 7158  14.349   7.741   9.500 -0.2889  0.0879 -0.0030
  448loPI   C1A 7159  14.038   7.686   9.014  0.2838  0.2838 -0.1093
  448loPI   C2A 7160  13.817   7.491   8.665 -0.2578  0.2080 -0.1127
  448loPI   C3A 7161  13.870   7.284   8.298 -0.1313 -0.1107 -0.0197
  448loPI   C4A 7162  13.802   6.841   8.132  0.1011 -0.1916 -0.0752
  448loPI   C5A 7163  13.599   6.471   8.349 -0.0927 -0.0164 -0.1632
  448loPI   C6A 7164  13.454   6.273   8.705 -0.0361 -0.0973  0.1370
  448loPI   C1B 7165  14.680   7.424   9.256  0.2269 -0.0849 -0.0312
  448loPI   C2B 7166  14.853   7.368   8.865 -0.0566 -0.0338 -0.0886
  448loPI   C3B 7167  14.916   7.254   8.474  0.0418 -0.0663 -0.1317
  448loPI   C4B 7168  14.863   7.155   8.006  0.0786 -0.1041 -0.0448
  449loPI    C1 7169  12.613   4.489  10.514 -0.2468  0.2284 -0.1059
  449loPI    C2 7170  12.428   4.731  10.774 -0.2988 -0.1196  0.1888
  449loPI    C3 7171  12.656   4.430  10.907 -0.1408 -0.1659 -0.1725
  449loPI   PO4 7172  12.774   4.459  10.353  0.0972 -0.1807  0.2375
  449loPI   GL1 7173  12.601   4.582  10.025  0.1911 -0.2311  0.0390
  449loPI   GL2 7174  12.845   4.483   9.785 -0.3295  0.1225 -0.1171
  449loPI   C1A 7175  12.456   4.694   9.579 -0.2897  0.0372  0.0119
  449loPI   C2A 7176  12.332   4.736   9.198 -0.1017 -0.2389 -0.0126
  449loPI   C3A 7177  12.353   4.757   8.729 -0.3825  0.0340  0.0460
  449loPI   C4A 7178  12.471   4.747   8.265  0.2331 -0.2039 -0.0007
  449loPI   C5A 7179  12.567   5.067   8.082  0.0294  0.0352  0.0597
  449loPI   C6A 7180  12.749   5.333   7.788  0.1027  0.2413 -0.2933
  449loPI   C1B 7181  12.773   4.363   9.345  0.2201  0.2093  0.0450
  449loPI   C2B 7182  12.779   4.493   8.928  0.0917  0.2196 -0.1700
  449loPI   C3B 7183  12.861   4.447   8.517  0.1357 -0.0717  0.1993
  449loPI   C4B 7184  12.843   4.518   8.096 -0.4469 -0.6003  0.2619
  450loPI    C1 7185  14.367  13.896  10.855  0.3245  0.1429  0.1053
  450loPI    C2 7186  14.567  14.119  11.121  0.3507 -0.0682  0.2653
  450loPI    C3 7187  14.612  13.721  11.119  0.1807 -0.0881  0.0887
  450loPI   PO4 7188  14.356  14.120  10.591 -0.0034  0.0132 -0.0681
  450loPI   GL1 7189  14.526  14.077  10.278  0.0300 -0.0880 -0.1651
  450loPI   GL2 7190  14.414  13.961   9.999  0.0343 -0.0100 -0.0828
  450loPI   C1A 7191  14.687  14.354   9.930 -0.0658 -0.0202 -0.0864
  450loPI   C2A 7192  14.676  14.548   9.498 -0.2907  0.0281 -0.0163
  450loPI   C3A 7193  14.788  14.585   9.055  0.1783  0.1580  0.0739
  450loPI   C4A 7194  14.769  14.669   8.564  0.1865  0.0042 -0.2112
  450loPI   C5A 7195  14.642  14.383   8.293  0.2705  0.2574 -0.1516
  450loPI   C6A 7196  14.730  14.166   7.809  0.2810  0.0226  0.0961
  450loPI   C1B 7197  14.387  14.127   9.637 -0.0119 -0.2173 -0.0743
  450loPI   C2B 7198  14.277  13.928   9.234  0.1807 -0.1093 -0.0836
  450loPI   C3B 7199  14.047  13.931   8.885 -0.0655  0.1530 -0.1402
  450loPI   C4B 7200  13.730  13.839   8.628  0.2182 -0.0178  0.0493
  451loPI    C1 7201   4.387  14.996  10.081  0.0283 -0.0964  0.1293
  451loPI    C2 7202   4.464  15.141  10.446 -0.0203  0.3319 -0.0240
  451loPI    C3 7203   4.086  15.106  10.320 -0.0172 -0.0871  0.0681
  451loPI   PO4 7204   4.507  15.181   9.884 -0.2207 -0.1720 -0.1373
  451loPI   GL1 7205   4.780  15.313   9.474  0.0895 -0.0845 -0.3230
  451loPI   GL2 7206   4.851  15.033   9.215  0.2796 -0.1818 -0.4480
  451loPI   C1A 7207   5.106  15.466   9.121 -0.3141 -0.2453  0.1223
  451loPI   C2A 7208   5.303  15.421   8.673 -0.0480 -0.0033 -0.4010
  451loPI   C3A 7209   5.393  15.392   8.233  0.0867  0.1331  0.1897
  451loPI   C4A 7210   5.429  15.530   7.758  0.1691  0.0728  0.0312
  451loPI   C5A 7211   5.614  15.405   7.383 -0.2160 -0.0221  0.1056
  451loPI   C6A 7212   5.805  15.370   6.972  0.3424 -0.2970  0.1915
  451loPI   C1B 7213   4.928  15.140   8.841  0.1906 -0.1017  0.2774
  451loPI   C2B 7214   5.039  15.076   8.398  0.2036 -0.0437  0.3601
  451loPI   C3B 7215   5.022  15.161   7.965 -0.0804  0.2114  0.0633
  451loPI   C4B 7216   5.151  15.134   7.511  0.0611  0.2574 -0.0861
  452loPI    C1 7217   7.364  16.871  10.253  0.2769 -0.1002  0.0191
  452loPI    C2 7218   7.698  16.900  10.473  0.3238  0.1659 -0.0829
  452loPI    C3 7219   7.435  17.202  10.467  0.1183 -0.0098 -0.0658
  452loPI   PO4 7220   7.468  16.762  10.000 -0.0951 -0.0106  0.1601
  452loPI   GL1 7221   7.656  16.611   9.672 -0.0274 -0.1394  0.2383
  452loPI   GL2 7222   7.378  16.508   9.542  0.0724  0.1936  0.1500
  452loPI   C1A 7223   7.812  16.593   9.288 -0.2999  0.2270  0.0130
  452loPI   C2A 7224   7.864  16.431   8.947  0.0178 -0.0894 -0.1489
  452loPI   C3A 7225   7.955  16.519   8.549  0.0468 -0.3501 -0.2026
  452loPI   C4A 7226   8.021  16.340   8.087  0.0075 -0.0306  0.0065
  452loPI   C5A 7227   8.468  16.288   7.940  0.5391 -0.0373 -0.0079
  452loPI   C6A 7228   8.888  16.159   7.798 -0.1468  0.0530 -0.1140
  452loPI   C1B 7229   7.346  16.535   9.084  0.2889 -0.0764 -0.0047
  452loPI   C2B 7230   7.468  16.471   8.649 -0.1042 -0.0165  0.1194
  452loPI   C3B 7231   7.502  16.181   8.339  0.3605 -0.0984 -0.1538
  452loPI   C4B 7232   7.632  16.119   7.789  0.0750  0.0694 -0.1242
  453loPI    C1 7233  18.399   6.330   9.599 -0.1445 -0.1484 -0.0618
  453loPI    C2 7234  18.106   6.360   9.870  0.0018  0.1812  0.0659
  453loPI    C3 7235  18.406   6.624   9.870  0.2442 -0.0868 -0.1328
  453loPI   PO4 7236  18.261   6.098   9.493 -0.4483  0.2585  0.3294
  453loPI   GL1 7237  18.194   5.948   9.099  0.0179 -0.3003 -0.2630
  453loPI   GL2 7238  18.263   5.626   9.137 -0.1732  0.0177  0.0619
  453loPI   C1A 7239  17.849   5.849   8.847  0.1426  0.2764 -0.3211
  453loPI   C2A 7240  17.481   5.885   8.566  0.0631  0.1764  0.4034
  453loPI   C3A 7241  17.404   5.919   8.231 -0.0319  0.0793  0.1842
  453loPI   C4A 7242  17.011   6.204   7.934 -0.1965 -0.0519  0.2140
  453loPI   C5A 7243  16.808   6.502   7.582  0.1802  0.3309 -0.0836
  453loPI   C6A 7244  17.015   6.784   7.340 -0.1943  0.3532  0.2274
  453loPI   C1B 7245  18.211   5.714   8.547  0.2310  0.0305  0.1116
  453loPI   C2B 7246  18.208   5.581   8.078  0.3655  0.1183  0.4308
  453loPI   C3B 7247  18.346   5.641   7.698 -0.1148 -0.1256  0.2561
  453loPI   C4B 7248  18.368   5.897   7.319 -0.1390  0.2179 -0.1107
  454loPI    C1 7249   0.856   9.058   9.898  0.0957  0.2731 -0.2763
  454loPI    C2 7250   0.548   8.877  10.078  0.3661 -0.0132 -0.0897
  454loPI    C3 7251   0.649   9.250  10.181  0.1356  0.0522 -0.0943
  454loPI   PO4 7252   0.821   8.999   9.680 -0.0428  0.0742 -0.1682
  454loPI   GL1 7253   0.824   9.177   9.355  0.0547  0.0909  0.0194
  454loPI   GL2 7254   0.526   9.365   9.305  0.0491  0.1615  0.0603
  454loPI   C1A 7255   0.936   9.044   9.025 -0.0809  0.2036  0.1925
  454loPI   C2A 7256   0.915   9.057   8.565 -0.1376 -0.0850  0.2702
  454loPI   C3A 7257   0.862   9.106   8.101 -0.0706  0.0277  0.2721
  454loPI   C4A 7258   1.180   9.178   7.805 -0.4617 -0.0850  0.0027
  454loPI   C5A 7259   1.351   9.129   7.347 -0.2316  0.2727  0.2822
  454loPI   C6A 7260   1.702   8.921   7.231 -0.2081 -0.0612 -0.2895
  454loPI   C1B 7261   0.513   9.286   8.873  0.1078 -0.2018 -0.2424
  454loPI   C2B 7262   0.441   9.205   8.459  0.2018  0.1496  0.3025
  454loPI   C3B 7263   0.162   9.436   8.135  0.0661 -0.3531  0.0272
  454loPI   C4B 7264   0.103   9.417   7.618 -0.3096 -0.3548 -0.1771
  455loPI    C1 7265   8.291   4.360   9.921 -0.0378 -0.1239  0.0037
  455loPI    C2 7266   7.981   4.288  10.163 -0.0795  0.1525  0.0354
  455loPI    C3 7267   8.299   4.488  10.300 -0.0877  0.2789 -0.1266
  455loPI   PO4 7268   8.168   4.397   9.713 -0.1086  0.1345 -0.3082
  455loPI   GL1 7269   8.049   4.742   9.431 -0.1656 -0.0453 -0.0769
  455loPI   GL2 7270   7.757   4.925   9.365  0.3321 -0.2008  0.2331
  455loPI   C1A 7271   8.147   4.604   9.110 -0.1559 -0.0526 -0.0163
  455loPI   C2A 7272   8.285   4.487   8.636  0.1311  0.0162  0.1788
  455loPI   C3A 7273   8.140   4.284   8.426  0.1239 -0.0815 -0.0867
  455loPI   C4A 7274   8.036   4.124   8.049 -0.4549 -0.1308 -0.0290
  455loPI   C5A 7275   7.893   3.898   7.669 -0.2068 -0.1316 -0.0858
  455loPI   C6A 7276   8.048   3.474   7.920 -0.0747 -0.1560 -0.2497
  455loPI   C1B 7277   7.763   4.885   8.914  0.4539 -0.1164 -0.0194
  455loPI   C2B 7278   7.830   4.712   8.518  0.0346  0.2735 -0.0872
  455loPI   C3B 7279   7.752   4.756   8.031  0.4394 -0.1872  0.1084
  455loPI   C4B 7280   7.837   4.403   7.733  0.2469  0.0989  0.0545
  456loPI    C1 7281   3.600   6.069  10.147  0.2347 -0.0473 -0.0634
  456loPI    C2 7282   3.699   5.683  10.188 -0.0540 -0.0983  0.1889
  456loPI    C3 7283   3.884   5.961  10.408  0.2893 -0.0672 -0.1308
  456loPI   PO4 7284   3.466   6.079   9.957  0.0485 -0.1182  0.3436
  456loPI   GL1 7285   3.472   6.073   9.520  0.2782  0.1057  0.1023
  456loPI   GL2 7286   3.615   5.805   9.282 -0.1007 -0.2480  0.0081
  456loPI   C1A 7287   3.456   6.217   9.049 -0.0759  0.0782 -0.0084
  456loPI   C2A 7288   3.507   6.046   8.655  0.0627 -0.0087  0.1474
  456loPI   C3A 7289   3.244   5.627   8.496 -0.2580 -0.0884  0.3567
  456loPI   C4A 7290   3.258   5.287   8.115 -0.0972  0.2465  0.1660
  456loPI   C5A 7291   3.261   5.386   7.674  0.0967  0.0238  0.0096
  456loPI   C6A 7292   3.066   5.091   7.439 -0.2516 -0.0133 -0.0340
  456loPI   C1B 7293   3.689   5.606   8.923  0.0287 -0.3328  0.3235
  456loPI   C2B 7294   3.721   5.529   8.455  0.2528 -0.0539  0.3914
  456loPI   C3B 7295   3.816   5.496   7.945  0.2043  0.2429  0.0632
  456loPI   C4B 7296   3.586   5.603   7.436  0.3206 -0.5091  0.4226
  457loPI    C1 7297  14.227   3.332  10.047  0.0206 -0.0383 -0.1713
  457loPI    C2 7298  14.227   3.538  10.389  0.0251 -0.0624 -0.1567
  457loPI    C3 7299  13.938   3.272  10.316  0.1440 -0.2151 -0.0761
  457loPI   PO4 7300  14.315   3.631   9.889 -0.1366  0.1199 -0.2371
  457loPI   GL1 7301  14.207   3.687   9.489 -0.0148  0.1480  0.0567
  457loPI   GL2 7302  14.391   3.916   9.423  0.1441 -0.1150  0.1066
  457loPI   C1A 7303  14.105   3.345   9.163  0.2192  0.0608  0.1949
  457loPI   C2A 7304  13.677   3.327   8.776 -0.2321  0.1951  0.3217
  457loPI   C3A 7305  13.369   3.503   8.530  0.2157  0.1138  0.0001
  457loPI   C4A 7306  13.091   3.601   8.179 -0.3748 -0.0391 -0.2694
  457loPI   C5A 7307  12.632   3.499   8.026 -0.0379 -0.0526 -0.2297
  457loPI   C6A 7308  12.342   3.746   7.903  0.0796 -0.3464  0.1204
  457loPI   C1B 7309  14.639   3.734   9.149 -0.3159  0.1555  0.1836
  457loPI   C2B 7310  14.591   3.763   8.695 -0.2375  0.0534  0.2750
  457loPI   C3B 7311  14.488   3.889   8.372 -0.1664  0.1303  0.1171
  457loPI   C4B 7312  14.394   4.168   8.086 -0.0635  0.0866  0.0306
  458loPI    C1 7313  13.188   1.743  10.761 -0.1357  0.3263 -0.1672
  458loPI    C2 7314  13.257   1.705  11.153  0.1191  0.0242 -0.2379
  458loPI    C3 7315  13.100   2.043  11.010 -0.1523  0.0666  0.1464
  458loPI   PO4 7316  13.452   1.742  10.668 -0.1363 -0.1986  0.3008
  458loPI   GL1 7317  13.526   1.546  10.187 -0.0092  0.0636  0.0068
  458loPI   GL2 7318  13.454   1.725   9.953 -0.1870 -0.2187 -0.1758
  458loPI   C1A 7319  13.291   1.321   9.825 -0.3916  0.1576  0.0918
  458loPI   C2A 7320  13.194   1.357   9.461  0.1649 -0.1716 -0.3648
  458loPI   C3A 7321  13.241   1.326   8.985 -0.0042  0.1336 -0.1234
  458loPI   C4A 7322  13.254   1.506   8.527  0.1242 -0.1968 -0.1740
  458loPI   C5A 7323  12.921   1.595   8.233 -0.2785  0.0520  0.2680
  458loPI   C6A 7324  13.084   1.763   7.746  0.1738 -0.0018  0.0777
  458loPI   C1B 7325  13.560   1.739   9.485  0.1179  0.2116 -0.0846
  458loPI   C2B 7326  13.591   1.686   9.091 -0.1509  0.0567 -0.1511
  458loPI   C3B 7327  13.664   1.501   8.766  0.1491 -0.0874  0.2553
  458loPI   C4B 7328  13.644   1.261   8.412 -0.1048  0.0652  0.1002
  459loPI    C1 7329   1.851  14.210  10.286  0.3209 -0.0383 -0.1432
  459loPI    C2 7330   1.837  14.570  10.460  0.0575 -0.0914 -0.0490
  459loPI    C3 7331   2.132  14.315  10.550  0.1224  0.0175  0.0488
  459loPI   PO4 7332   1.903  14.299   9.968 -0.0075 -0.2681  0.1490
  459loPI   GL1 7333   2.019  14.490   9.561 -0.0293 -0.0181 -0.3482
  459loPI   GL2 7334   1.819  14.742   9.395 -0.4365 -0.1636 -0.2449
  459loPI   C1A 7335   2.387  14.550   9.355  0.1685  0.0805 -0.1207
  459loPI   C2A 7336   2.424  14.249   8.937 -0.2237 -0.1753  0.1010
  459loPI   C3A 7337   2.409  14.111   8.523  0.1527 -0.1793  0.4933
  459loPI   C4A 7338   2.467  13.730   8.133  0.0449  0.0137  0.1783
  459loPI   C5A 7339   2.476  13.469   7.821 -0.0718  0.0206  0.0095
  459loPI   C6A 7340   2.224  13.168   7.673 -0.1081  0.0724  0.3758
  459loPI   C1B 7341   2.072  14.600   8.948  0.1094 -0.0491 -0.0590
  459loPI   C2B 7342   2.180  14.667   8.540  0.2553 -0.0446  0.1153
  459loPI   C3B 7343   2.175  14.349   8.114  0.3336 -0.0889  0.3381
  459loPI   C4B 7344   2.122  14.040   7.920 -0.0761 -0.0642 -0.1401
  460loPI    C1 7345   8.207  17.868  10.508 -0.2605 -0.0480  0.1684
  460loPI    C2 7346   8.544  17.854  10.723  0.0351 -0.1738 -0.2885
  460loPI    C3 7347   8.195  17.935  10.902  0.3271  0.1248  0.1658
  460loPI   PO4 7348   8.313  18.022  10.217 -0.0644 -0.0284  0.0399
  460loPI   GL1 7349   8.269  17.765   9.754 -0.3874 -0.2368  0.1698
  460loPI   GL2 7350   8.103  17.453   9.630 -0.0380 -0.1159  0.0480
  460loPI   C1A 7351   8.063  18.002   9.492 -0.0981  0.6024 -0.0342
  460loPI   C2A 7352   7.941  17.944   9.076  0.0106 -0.5225 -0.0200
  460loPI   C3A 7353   8.065  17.868   8.632  0.0400  0.2563 -0.0613
  460loPI   C4A 7354   8.395  17.577   8.554 -0.3172  0.0225 -0.2475
  460loPI   C5A 7355   8.652  17.398   8.243 -0.1267  0.1046 -0.0981
  460loPI   C6A 7356   8.820  17.395   7.863  0.2622  0.4849  0.0030
  460loPI   C1B 7357   7.977  17.129   9.311  0.1716 -0.3686  0.2852
  460loPI   C2B 7358   8.120  16.900   8.920  0.1584  0.0048 -0.1918
  460loPI   C3B 7359   8.228  16.947   8.616  0.3130 -0.1233 -0.0606
  460loPI   C4B 7360   8.220  16.853   8.158  0.1371 -0.0711  0.1553
  461loPI    C1 7361  12.935  15.144  10.868  0.1785  0.0770  0.0002
  461loPI    C2 7362  13.242  15.401  10.869  0.2232  0.0238 -0.0139
  461loPI    C3 7363  12.879  15.522  10.985  0.3024  0.0232  0.2394
  461loPI   PO4 7364  13.005  15.037  10.588  0.0776 -0.1131  0.0668
  461loPI   GL1 7365  12.950  15.108  10.144 -0.0204 -0.2895 -0.1481
  461loPI   GL2 7366  12.725  15.168   9.883  0.2359 -0.2687  0.0193
  461loPI   C1A 7367  13.228  15.008   9.875 -0.2773  0.4773  0.2469
  461loPI   C2A 7368  13.185  15.015   9.555 -0.2681  0.1076  0.2236
  461loPI   C3A 7369  13.254  15.128   9.127 -0.2055 -0.1049 -0.2183
  461loPI   C4A 7370  13.390  15.149   8.712  0.1080  0.0338  0.1132
  461loPI   C5A 7371  13.268  14.993   8.292 -0.5240 -0.1649  0.1512
  461loPI   C6A 7372  12.996  14.749   8.196 -0.0233  0.1795 -0.0438
  461loPI   C1B 7373  12.691  15.184   9.488  0.1389  0.2930  0.0808
  461loPI   C2B 7374  12.658  15.223   8.986  0.1769 -0.2316 -0.2820
  461loPI   C3B 7375  12.875  15.196   8.537  0.1057  0.0632 -0.4283
  461loPI   C4B 7376  12.843  15.206   8.128  0.4866  0.2315 -0.2607
  462loPI    C1 7377   3.493   0.078   9.980 -0.1438  0.1829 -0.0002
  462loPI    C2 7378   3.715  -0.067  10.280  0.0157 -0.1225 -0.2594
  462loPI    C3 7379   3.370   0.120  10.358  0.0994 -0.1181  0.1171
  462loPI   PO4 7380   3.620  -0.117   9.809 -0.1110 -0.1506 -0.1777
  462loPI   GL1 7381   3.879  -0.043   9.459  0.0321 -0.2101 -0.2314
  462loPI   GL2 7382   4.169  -0.298   9.489 -0.0645  0.0546 -0.0678
  462loPI   C1A 7383   3.923   0.162   9.093 -0.2813 -0.1190  0.1885
  462loPI   C2A 7384   3.933   0.299   8.549  0.1255 -0.2149  0.1572
  462loPI   C3A 7385   4.125   0.402   8.216  0.4373 -0.0697 -0.3641
  462loPI   C4A 7386   4.284   0.735   7.838 -0.1556  0.0079 -0.0032
  462loPI   C5A 7387   4.183   0.924   7.459 -0.3792 -0.2802  0.0204
  462loPI   C6A 7388   4.295   0.901   6.964 -0.1014  0.2515  0.0489
  462loPI   C1B 7389   4.114  -0.295   9.050 -0.0810  0.2611 -0.0195
  462loPI   C2B 7390   4.132  -0.238   8.676 -0.2326 -0.0615  0.3917
  462loPI   C3B 7391   4.003  -0.207   8.201 -0.0206 -0.4844  0.1387
  462loPI   C4B 7392   4.329  -0.335   7.856  0.2290  0.0326 -0.2342
  463loPI    C1 7393  10.218   6.285  10.265 -0.0346  0.2277 -0.1860
  463loPI    C2 7394   9.903   6.448  10.449 -0.0838 -0.0232 -0.0430
  463loPI    C3 7395  10.246   6.397  10.648  0.0242  0.1743 -0.1744
  463loPI   PO4 7396  10.075   6.114  10.095 -0.2668  0.1427 -0.2159
  463loPI   GL1 7397  10.163   5.909   9.625 -0.0957  0.0726 -0.2437
  463loPI   GL2 7398  10.304   6.278   9.627 -0.1640 -0.4253 -0.0509
  463loPI   C1A 7399  10.258   5.755   9.218 -0.0573 -0.3024  0.2882
  463loPI   C2A 7400  10.225   5.934   8.843 -0.0209  0.0481  0.1551
  463loPI   C3A 7401  10.219   5.996   8.352  0.1787 -0.2067 -0.1725
  463loPI   C4A 7402  10.005   6.239   7.984  0.0848  0.1773 -0.2738
  463loPI   C5A 7403   9.707   6.665   8.006  0.1241 -0.1360  0.6325
  463loPI   C6A 7404   9.611   7.071   8.103 -0.1918  0.0859 -0.0627
  463loPI   C1B 7405  10.157   6.299   9.206 -0.3790 -0.1028  0.0489
  463loPI   C2B 7406  10.250   6.407   8.690  0.0251 -0.1011  0.1969
  463loPI   C3B 7407  10.385   6.514   8.243 -0.0293 -0.0659 -0.1898
  463loPI   C4B 7408  10.227   6.804   7.836  0.2404 -0.3762  0.1088
  464loPI    C1 7409   2.942   7.837   9.858  0.1899  0.0561 -0.1753
  464loPI    C2 7410   3.068   7.516  10.061 -0.0287 -0.0099 -0.1408
  464loPI    C3 7411   2.859   7.801  10.248  0.0590  0.0936 -0.1993
  464loPI   PO4 7412   2.976   7.718   9.634  0.0099  0.1346 -0.1167
  464loPI   GL1 7413   3.196   7.682   9.366  0.1359  0.1526 -0.0943
  464loPI   GL2 7414   3.551   7.550   9.370  0.1812  0.0011  0.0940
  464loPI   C1A 7415   3.007   7.795   8.871 -0.3998 -0.0148  0.1359
  464loPI   C2A 7416   3.218   7.721   8.396  0.2530  0.3179 -0.1009
  464loPI   C3A 7417   3.108   7.871   7.928  0.0742 -0.1637  0.0367
  464loPI   C4A 7418   2.869   7.917   7.548  0.1889  0.0506 -0.1729
  464loPI   C5A 7419   2.641   8.046   7.190  0.1316  0.1256  0.2383
  464loPI   C6A 7420   2.295   8.265   6.909  0.1568 -0.0771  0.5714
  464loPI   C1B 7421   3.910   7.685   9.158 -0.0769  0.0044 -0.0895
  464loPI   C2B 7422   4.042   7.714   8.723 -0.2441 -0.0306 -0.2787
  464loPI   C3B 7423   4.168   7.798   8.204  0.0435 -0.0855  0.0631
  464loPI   C4B 7424   4.319   7.716   7.781  0.3557 -0.0906  0.3766
  465loPI    C1 7425   6.178   2.899   9.748  0.0098 -0.0190 -0.3838
  465loPI    C2 7426   6.266   2.560   9.942  0.0104  0.3106  0.2130
  465loPI    C3 7427   5.903   2.610   9.782  0.0216  0.0178  0.0900
  465loPI   PO4 7428   6.401   2.959   9.675  0.2122  0.3171 -0.1086
  465loPI   GL1 7429   6.714   2.888   9.341  0.1676  0.0080  0.1669
  465loPI   GL2 7430   6.839   2.652   9.283  0.0686 -0.2307 -0.0647
  465loPI   C1A 7431   6.440   2.769   9.014  0.2286 -0.0357  0.0326
  465loPI   C2A 7432   6.378   2.612   8.583 -0.3173  0.1273 -0.1202
  465loPI   C3A 7433   6.343   2.520   8.123  0.4005  0.1371  0.1282
  465loPI   C4A 7434   6.445   2.785   7.858  0.4197 -0.0655  0.1616
  465loPI   C5A 7435   6.717   3.123   7.916 -0.1095  0.0287 -0.2429
  465loPI   C6A 7436   7.243   3.121   7.872  0.0729  0.3741  0.0499
  465loPI   C1B 7437   6.611   2.302   8.930 -0.3279 -0.0615  0.1086
  465loPI   C2B 7438   6.674   2.226   8.445 -0.0102 -0.2751 -0.0146
  465loPI   C3B 7439   6.728   2.245   8.018  0.0738  0.0760 -0.2113
  465loPI   C4B 7440   6.571   2.032   7.676 -0.1991  0.2713 -0.4333
  466loPI    C1 7441   1.851  15.066  10.295  0.1512  0.1578  0.0184
  466loPI    C2 7442   2.175  15.293  10.236  0.1941  0.1606  0.2562
  466loPI    C3 7443   2.201  14.960  10.457  0.0894  0.0251  0.0671
  466loPI   PO4 7444   1.730  15.226  10.037  0.0260  0.0281  0.3426
  466loPI   GL1 7445   1.563  15.250   9.660 -0.1860 -0.0750 -0.2081
  466loPI   GL2 7446   1.647  15.575   9.473  0.2582  0.1462 -0.2252
  466loPI   C1A 7447   1.501  15.096   9.347 -0.0186 -0.3562 -0.0946
  466loPI   C2A 7448   1.384  14.873   8.928  0.0441  0.1146  0.3187
  466loPI   C3A 7449   1.247  14.683   8.509  0.1384 -0.1211 -0.0540
  466loPI   C4A 7450   1.187  14.462   8.040  0.1685  0.0682 -0.1941
  466loPI   C5A 7451   1.357  14.698   7.727 -0.3607 -0.1025 -0.0096
  466loPI   C6A 7452   1.580  15.102   7.484  0.0401  0.1540 -0.2119
  466loPI   C1B 7453   1.709  15.705   8.986 -0.0687  0.1892  0.2137
  466loPI   C2B 7454   1.513  15.708   8.631 -0.0098 -0.0807  0.0329
  466loPI   C3B 7455   1.403  15.553   8.271  0.1192  0.3313  0.0013
  466loPI   C4B 7456   1.555  15.145   8.007 -0.0868  0.0283 -0.2801
  467loPI    C1 7457  12.286  10.693  10.083 -0.0142  0.1438 -0.1199
  467loPI    C2 7458  12.510  10.909  10.335 -0.0005  0.0493 -0.0503
  467loPI    C3 7459  12.372  10.550  10.447 -0.0948  0.0591 -0.1336
  467loPI   PO4 7460  12.497  10.604   9.816  0.1730 -0.0993 -0.2207
  467loPI   GL1 7461  12.548  10.893   9.386  0.0475 -0.0296  0.0186
  467loPI   GL2 7462  12.277  11.044   9.159 -0.1062  0.1273 -0.0555
  467loPI   C1A 7463  12.850  10.969   9.130  0.2012 -0.0931  0.1968
  467loPI   C2A 7464  13.235  11.146   9.055 -0.0288  0.0776 -0.2744
  467loPI   C3A 7465  13.438  11.470   8.770 -0.5180  0.0856  0.0163
  467loPI   C4A 7466  13.570  11.447   8.401  0.3347 -0.1746  0.0862
  467loPI   C5A 7467  13.465  11.453   8.003  0.0357 -0.3518  0.2242
  467loPI   C6A 7468  13.343  11.443   7.733 -0.1979 -0.0007 -0.1586
  467loPI   C1B 7469  12.104  10.767   8.886  0.3252  0.1806  0.0626
  467loPI   C2B 7470  11.878  10.630   8.525 -0.0452 -0.3413 -0.3032
  467loPI   C3B 7471  11.894  10.541   8.138 -0.0296 -0.1643  0.1303
  467loPI   C4B 7472  11.891  10.623   7.595 -0.2387 -0.0438 -0.1799
  468loPI    C1 7473   7.445  10.129  10.159 -0.0442 -0.0095  0.0217
  468loPI    C2 7474   7.589  10.362  10.450 -0.0553  0.1189 -0.0748
  468loPI    C3 7475   7.433  10.005  10.539 -0.1456  0.1975  0.0875
  468loPI   PO4 7476   7.280  10.253   9.940 -0.2598 -0.1057 -0.1405
  468loPI   GL1 7477   7.275  10.263   9.509 -0.1669 -0.0486 -0.0183
  468loPI   GL2 7478   7.169  10.434   9.336 -0.1654 -0.2704  0.3634
  468loPI   C1A 7479   7.120   9.916   9.128 -0.3820  0.1895 -0.2127
  468loPI   C2A 7480   7.185   9.721   8.762  0.1642 -0.0430 -0.1991
  468loPI   C3A 7481   7.233   9.831   8.466  0.2708  0.0244 -0.2283
  468loPI   C4A 7482   7.366   9.735   7.998 -0.0754 -0.1803  0.0270
  468loPI   C5A 7483   7.541   9.948   7.669  0.0210 -0.1092  0.0319
  468loPI   C6A 7484   7.845  10.276   7.594 -0.1241 -0.1325 -0.3043
  468loPI   C1B 7485   7.200  10.377   8.928  0.2186 -0.0641 -0.0978
  468loPI   C2B 7486   7.195  10.426   8.510 -0.3914 -0.0467  0.0696
  468loPI   C3B 7487   7.126  10.438   8.046  0.0268  0.0360 -0.1779
  468loPI   C4B 7488   7.161  10.175   7.885 -0.0061 -0.0486 -0.1397
  469loPI    C1 7489   0.394   6.691  10.066 -0.1912  0.1061 -0.1007
  469loPI    C2 7490   0.066   6.510  10.206 -0.1462  0.1033  0.0024
  469loPI    C3 7491   0.235   6.806  10.415 -0.0029  0.0115  0.0187
  469loPI   PO4 7492   0.386   6.765   9.827  0.2137 -0.0215 -0.0759
  469loPI   GL1 7493   0.409   6.657   9.379  0.2861  0.0689  0.2037
  469loPI   GL2 7494   0.723   6.564   9.140  0.1028 -0.4103 -0.1676
  469loPI   C1A 7495   0.356   6.787   8.843  0.0933 -0.1382  0.2920
  469loPI   C2A 7496   0.346   6.739   8.439 -0.0714 -0.0584  0.0683
  469loPI   C3A 7497  -0.025   6.863   8.181 -0.3204 -0.1849  0.3353
  469loPI   C4A 7498  -0.240   6.945   7.838  0.2364  0.0438  0.1184
  469loPI   C5A 7499  -0.524   6.752   7.593 -0.2619 -0.1540  0.0791
  469loPI   C6A 7500  -0.714   6.369   7.411  0.0402 -0.1491 -0.0194
  469loPI   C1B 7501   0.953   6.777   8.766  0.0099  0.1727 -0.0732
  469loPI   C2B 7502   0.995   6.742   8.370 -0.2827  0.1689  0.1702
  469loPI   C3B 7503   0.927   6.735   7.936  0.0007 -0.0710  0.3171
  469loPI   C4B 7504   1.382   6.906   7.835  0.0916  0.0172  0.2125
  470loPI    C1 7505  10.915  15.282  10.362 -0.0348  0.0840 -0.1915
  470loPI    C2 7506  11.223  15.438  10.564  0.0835 -0.3734 -0.0061
  470loPI    C3 7507  11.014  15.135  10.721 -0.3062 -0.2339 -0.2415
  470loPI   PO4 7508  10.819  15.515  10.189  0.0637  0.2009 -0.1688
  470loPI   GL1 7509  10.778  15.491   9.765 -0.2061  0.0726  0.1272
  470loPI   GL2 7510  10.643  15.659   9.591  0.0128 -0.3159 -0.0723
  470loPI   C1A 7511  10.599  15.245   9.324 -0.1253 -0.0132 -0.1684
  470loPI   C2A 7512  10.722  15.024   8.931  0.0748  0.1945 -0.0403
  470loPI   C3A 7513  10.712  14.686   8.673  0.1280  0.3432 -0.1036
  470loPI   C4A 7514  10.515  14.658   8.302  0.1069  0.0320  0.0393
  470loPI   C5A 7515  10.334  14.872   7.874  0.0800 -0.1985 -0.0290
  470loPI   C6A 7516  10.320  15.014   7.489  0.1866  0.1389  0.2891
  470loPI   C1B 7517  10.934  15.650   9.295  0.0207  0.1400 -0.0431
  470loPI   C2B 7518  10.858  15.522   8.818  0.1472  0.0140  0.1426
  470loPI   C3B 7519  10.622  15.709   8.498 -0.1992 -0.2528 -0.0976
  470loPI   C4B 7520  10.537  16.006   8.266 -0.1448  0.0184 -0.3332
  471loPI    C1 7521  13.705  16.671  10.653 -0.1050 -0.1712  0.0973
  471loPI    C2 7522  13.777  16.977  10.901  0.0564 -0.1168 -0.0150
  471loPI    C3 7523  13.648  16.627  11.047 -0.0317 -0.0271  0.1248
  471loPI   PO4 7524  13.947  16.555  10.541 -0.2130 -0.0731 -0.1355
  471loPI   GL1 7525  14.290  16.654  10.245 -0.0486 -0.2115  0.0682
  471loPI   GL2 7526  14.490  16.464  10.271  0.1940  0.4877 -0.1623
  471loPI   C1A 7527  14.041  16.644   9.854  0.0046 -0.2228  0.0331
  471loPI   C2A 7528  14.046  16.616   9.484  0.2563  0.1482  0.0581
  471loPI   C3A 7529  13.924  16.689   9.052 -0.0485  0.5502 -0.3337
  471loPI   C4A 7530  14.075  16.755   8.616 -0.1143  0.2852 -0.0273
  471loPI   C5A 7531  14.053  16.580   8.252  0.4395  0.2045 -0.2075
  471loPI   C6A 7532  13.847  16.257   8.014 -0.0089  0.0212  0.1311
  471loPI   C1B 7533  14.449  16.377   9.822  0.2669  0.1188  0.2219
  471loPI   C2B 7534  14.626  16.486   9.361  0.0118 -0.3847  0.3719
  471loPI   C3B 7535  15.036  16.469   9.140 -0.0406 -0.4077  0.1390
  471loPI   C4B 7536  15.263  16.328   8.712 -0.2660  0.1708  0.1309
  472loPI    C1 7537   8.752   0.161  10.506  0.0713  0.1486  0.1513
  472loPI    C2 7538   8.995   0.433  10.343 -0.0469  0.0958 -0.1185
  472loPI    C3 7539   8.611   0.523  10.412 -0.0407  0.0582 -0.0341
  472loPI   PO4 7540   8.768  -0.139  10.367  0.0958 -0.1135 -0.1068
  472loPI   GL1 7541   8.563  -0.293   9.956  0.0993 -0.1950  0.0940
  472loPI   GL2 7542   8.467  -0.598   9.814  0.2193 -0.1178 -0.1331
  472loPI   C1A 7543   8.664  -0.140   9.577  0.1693 -0.1808  0.3458
  472loPI   C2A 7544   8.651  -0.095   9.146 -0.1596  0.1428 -0.1035
  472loPI   C3A 7545   8.775  -0.217   8.681  0.1497 -0.0300  0.0172
  472loPI   C4A 7546   8.980  -0.382   8.314 -0.2704 -0.1623  0.0703
  472loPI   C5A 7547   9.392  -0.484   8.107 -0.0574  0.1354 -0.0793
  472loPI   C6A 7548   9.538  -0.428   7.647  0.2298  0.0527 -0.2652
  472loPI   C1B 7549   8.466  -0.617   9.382 -0.1744 -0.1379  0.1346
  472loPI   C2B 7550   8.780  -0.607   9.116  0.1138 -0.1610 -0.2372
  472loPI   C3B 7551   9.146  -0.694   8.879  0.2342 -0.3299 -0.0478
  472loPI   C4B 7552   9.258  -0.889   8.404  0.2338  0.0641  0.1350
  473loPI    C1 7553  16.157   1.947  10.173  0.1452 -0.0729 -0.1440
  473loPI    C2 7554  16.408   1.688  10.346  0.0682  0.0181  0.1090
  473loPI    C3 7555  16.017   1.670  10.425  0.0165 -0.0063 -0.1420
  473loPI   PO4 7556  16.167   1.951   9.954  0.4394 -0.1970  0.0382
  473loPI   GL1 7557  16.141   2.313   9.692 -0.1425  0.3913  0.1910
  473loPI   GL2 7558  16.368   2.091   9.538  0.3547  0.1117  0.0206
  473loPI   C1A 7559  15.953   2.562   9.327 -0.1309 -0.2320 -0.0370
  473loPI   C2A 7560  15.807   2.782   8.891 -0.1340  0.0778  0.2048
  473loPI   C3A 7561  15.636   2.746   8.508 -0.1434 -0.0757 -0.0124
  473loPI   C4A 7562  15.380   2.757   8.197  0.4172  0.0500 -0.1666
  473loPI   C5A 7563  15.269   2.615   7.905  0.2506 -0.2366  0.2770
  473loPI   C6A 7564  15.543   2.728   7.515 -0.0099  0.1170  0.2450
  473loPI   C1B 7565  16.439   1.978   9.097  0.0008  0.0313  0.2054
  473loPI   C2B 7566  16.514   2.154   8.610  0.0329  0.1905 -0.1945
  473loPI   C3B 7567  16.312   1.948   8.255  0.0031  0.3188  0.1108
  473loPI   C4B 7568  16.037   2.133   7.953 -0.0747 -0.1303 -0.2459
  474loPI    C1 7569   4.742   9.036  10.464  0.2970  0.0751  0.2420
  474loPI    C2 7570   4.646   8.923  10.835 -0.0936 -0.0487  0.1081
  474loPI    C3 7571   4.504   9.267  10.688 -0.1019 -0.0963  0.0045
  474loPI   PO4 7572   4.873   8.708  10.338 -0.1885 -0.0671  0.0659
  474loPI   GL1 7573   4.859   8.588   9.880 -0.1725  0.3307 -0.3292
  474loPI   GL2 7574   4.787   8.709   9.540  0.1028  0.1223  0.0530
  474loPI   C1A 7575   5.221   8.566   9.437  0.1549 -0.1126  0.0794
  474loPI   C2A 7576   5.495   8.449   9.101  0.1735 -0.2030 -0.2918
  474loPI   C3A 7577   5.654   8.535   8.712 -0.0829 -0.1447 -0.1987
  474loPI   C4A 7578   5.723   8.549   8.342  0.1735 -0.0202  0.2700
  474loPI   C5A 7579   5.688   8.678   7.945 -0.3341 -0.1234 -0.5120
  474loPI   C6A 7580   5.792   8.417   7.596  0.1489 -0.0941 -0.0584
  474loPI   C1B 7581   4.652   8.729   9.235 -0.0028 -0.3349  0.0011
  474loPI   C2B 7582   4.645   8.643   8.736 -0.0974 -0.2712  0.1799
  474loPI   C3B 7583   4.884   8.558   8.265  0.3527  0.1646  0.2540
  474loPI   C4B 7584   5.188   8.377   7.933  0.1602  0.3953  0.1157
  475loPI    C1 7585  11.728  15.810  10.613 -0.3121 -0.1374 -0.0664
  475loPI    C2 7586  11.464  15.741  10.906  0.0623 -0.0717  0.2955
  475loPI    C3 7587  11.609  16.109  10.851  0.0651 -0.1032  0.0864
  475loPI   PO4 7588  11.613  15.753  10.390 -0.2765 -0.0372  0.0692
  475loPI   GL1 7589  11.621  15.975   9.959 -0.2318 -0.3931 -0.1153
  475loPI   GL2 7590  11.846  15.741   9.788 -0.0064  0.0024 -0.2170
  475loPI   C1A 7591  11.502  15.727   9.439  0.1750 -0.1899  0.0218
  475loPI   C2A 7592  11.316  15.736   8.997  0.0079  0.0996  0.0208
  475loPI   C3A 7593  11.280  15.689   8.514  0.1351 -0.1029 -0.0322
  475loPI   C4A 7594  10.984  15.504   8.136  0.2207 -0.0073  0.1439
  475loPI   C5A 7595  10.602  15.364   8.110 -0.1768 -0.0324 -0.1110
  475loPI   C6A 7596  10.463  15.148   8.483  0.3784  0.0760  0.1557
  475loPI   C1B 7597  11.907  15.461   9.461 -0.0929  0.0213  0.4746
  475loPI   C2B 7598  12.107  15.263   9.177  0.0383 -0.0654  0.0668
  475loPI   C3B 7599  12.119  15.311   8.709 -0.1572 -0.1040 -0.3983
  475loPI   C4B 7600  12.427  15.454   8.305 -0.0369  0.1355  0.1052
  476loPI    C1 7601  17.147   9.560  10.153  0.0521  0.0319  0.1363
  476loPI    C2 7602  17.355   9.553  10.495  0.0782  0.0819  0.1217
  476loPI    C3 7603  17.141   9.233  10.384  0.3127 -0.0468  0.0343
  476loPI   PO4 7604  17.190   9.707   9.940 -0.0089  0.2323  0.4930
  476loPI   GL1 7605  17.438   9.637   9.575 -0.1915 -0.0545 -0.0846
  476loPI   GL2 7606  17.672   9.872   9.636  0.2679  0.0624  0.2510
  476loPI   C1A 7607  17.484   9.403   9.186 -0.0989  0.1648 -0.0551
  476loPI   C2A 7608  17.523   9.391   8.820  0.3423 -0.0696 -0.2252
  476loPI   C3A 7609  17.824   9.292   8.512  0.1373 -0.1322 -0.0298
  476loPI   C4A 7610  17.680   9.235   8.005 -0.1477  0.0842 -0.2053
  476loPI   C5A 7611  17.818   9.395   7.501 -0.2350  0.3389 -0.2472
  476loPI   C6A 7612  17.354   9.422   7.341 -0.3970  0.0686  0.1531
  476loPI   C1B 7613  17.563   9.898   9.122 -0.0299 -0.3633  0.1630
  476loPI   C2B 7614  17.364   9.915   8.713 -0.0675  0.2552  0.0935
  476loPI   C3B 7615  17.243  10.014   8.235 -0.0056  0.2253 -0.2692
  476loPI   C4B 7616  16.834   9.998   7.876 -0.2575 -0.3998  0.0837
  477loPI    C1 7617   4.528  11.348   9.797 -0.0990 -0.1393  0.1289
  477loPI    C2 7618   4.750  11.206  10.097  0.2241  0.0065 -0.0361
  477loPI    C3 7619   4.765  11.595  10.005  0.0614 -0.0221 -0.1866
  477loPI   PO4 7620   4.505  11.128   9.586 -0.1238  0.1585  0.0410
  477loPI   GL1 7621   4.629  10.937   9.272  0.4072 -0.2546 -0.0194
  477loPI   GL2 7622   4.634  11.297   9.128  0.0390 -0.1330 -0.3559
  477loPI   C1A 7623   4.235  10.685   9.127 -0.0792 -0.0789  0.1505
  477loPI   C2A 7624   4.049  10.614   8.644  0.1493 -0.1721  0.2927
  477loPI   C3A 7625   3.993  10.698   8.244 -0.3459 -0.0792  0.0170
  477loPI   C4A 7626   3.970  10.587   7.832  0.1719 -0.0147  0.1472
  477loPI   C5A 7627   3.762  10.455   7.551  0.4146 -0.2208  0.2589
  477loPI   C6A 7628   3.313  10.649   7.487  0.2443  0.1052 -0.1758
  477loPI   C1B 7629   4.470  10.983   8.783 -0.1685  0.1590 -0.0899
  477loPI   C2B 7630   4.427  10.883   8.315  0.0940  0.0297 -0.3081
  477loPI   C3B 7631   4.528  10.970   7.970 -0.1353  0.1817 -0.3754
  477loPI   C4B 7632   4.532  10.904   7.503 -0.2517 -0.0674 -0.0042
  478loPI    C1 7633  11.397  10.554  10.391  0.2204  0.0567  0.0217
  478loPI    C2 7634  11.302  10.182  10.503 -0.3377  0.1495 -0.1170
  478loPI    C3 7635  11.649  10.343  10.620 -0.1758 -0.3406  0.1049
  478loPI   PO4 7636  11.346  10.542  10.071 -0.0280  0.1403  0.2398
  478loPI   GL1 7637  11.437  10.312   9.633  0.1390  0.1042  0.3769
  478loPI   GL2 7638  11.211  10.479   9.388  0.1765  0.0834  0.0950
  478loPI   C1A 7639  11.108  10.008   9.514  0.2497 -0.0565  0.0885
  478loPI   C2A 7640  10.863   9.957   9.105  0.1193  0.3233 -0.2844
  478loPI   C3A 7641  10.836   9.914   8.681  0.1309  0.0435 -0.2328
  478loPI   C4A 7642  10.681   9.957   8.235  0.3723  0.4484  0.1058
  478loPI   C5A 7643  10.592  10.091   7.857  0.1293  0.0092 -0.0205
  478loPI   C6A 7644  10.377  10.227   7.481 -0.1459 -0.4877  0.0930
  478loPI   C1B 7645  11.212  10.320   8.896  0.0716  0.2364 -0.0320
  478loPI   C2B 7646  11.138  10.317   8.490 -0.0942  0.2816 -0.1153
  478loPI   C3B 7647  11.037  10.318   8.101 -0.0705  0.1879  0.1730
  478loPI   C4B 7648  10.928  10.574   7.759  0.0187 -0.2400  0.2039
  479loPI    C1 7649   5.384  13.412   9.731  0.0174  0.1687 -0.0914
  479loPI    C2 7650   5.380  13.264  10.103 -0.1564  0.2208 -0.0719
  479loPI    C3 7651   5.461  13.651  10.043 -0.0342  0.1918 -0.0962
  479loPI   PO4 7652   5.118  13.325   9.666 -0.0225  0.1744 -0.2025
  479loPI   GL1 7653   4.959  13.175   9.362  0.0886  0.0205  0.0355
  479loPI   GL2 7654   5.006  13.472   9.131 -0.0432  0.3201 -0.1183
  479loPI   C1A 7655   4.781  12.957   8.975 -0.1510  0.0822  0.0316
  479loPI   C2A 7656   4.742  12.778   8.561 -0.0939 -0.0525  0.2498
  479loPI   C3A 7657   4.742  12.803   8.107 -0.1993  0.0426  0.0628
  479loPI   C4A 7658   4.596  12.909   7.729 -0.0732  0.1484  0.0299
  479loPI   C5A 7659   4.571  12.975   7.377  0.3334  0.0563  0.0915
  479loPI   C6A 7660   4.224  12.823   6.988  0.0927 -0.3127 -0.2248
  479loPI   C1B 7661   5.007  13.305   8.725 -0.0284  0.2075 -0.4274
  479loPI   C2B 7662   5.034  13.182   8.379  0.3392 -0.3967 -0.0710
  479loPI   C3B 7663   4.884  13.259   8.012  0.0767  0.0692  0.2084
  479loPI   C4B 7664   4.771  13.338   7.638  0.0731 -0.0464 -0.2839
  480loPI    C1 7665   5.006  17.702  10.372  0.0412  0.1790 -0.0334
  480loPI    C2 7666   4.935  17.559  10.739 -0.1818 -0.0523 -0.1640
  480loPI    C3 7667   5.271  17.763  10.666 -0.0913 -0.0861  0.1450
  480loPI   PO4 7668   4.697  17.794  10.258  0.2355 -0.3922  0.3869
  480loPI   GL1 7669   4.769  17.784   9.795 -0.0360 -0.4105 -0.1374
  480loPI   GL2 7670   5.037  17.559   9.710 -0.3426  0.1743 -0.0638
  480loPI   C1A 7671   4.717  17.695   9.390  0.2633 -0.0560  0.1197
  480loPI   C2A 7672   4.668  17.607   8.904 -0.1787  0.1413 -0.1319
  480loPI   C3A 7673   4.813  17.816   8.582 -0.0902 -0.1997 -0.1604
  480loPI   C4A 7674   4.973  17.888   8.161 -0.2334  0.0016 -0.0132
  480loPI   C5A 7675   4.969  17.632   7.830  0.1884 -0.1018 -0.0356
  480loPI   C6A 7676   4.711  17.698   7.667  0.1254 -0.0893 -0.0584
  480loPI   C1B 7677   5.173  17.632   9.272  0.1535  0.1180  0.1243
  480loPI   C2B 7678   5.208  17.664   8.842 -0.3626 -0.1142 -0.0979
  480loPI   C3B 7679   5.294  17.711   8.534  0.2721  0.1199 -0.0752
  480loPI   C4B 7680   5.490  18.011   8.235 -0.2833  0.6225  0.0476
  481loPI    C1 7681  17.224   3.527   9.377  0.1675  0.1123 -0.0305
  481loPI    C2 7682  17.348   3.390   9.022 -0.2482 -0.1282 -0.0888
  481loPI    C3 7683  17.524   3.263   9.358 -0.0666 -0.1481 -0.1907
  481loPI   PO4 7684  17.190   3.828   9.279 -0.4366 -0.1332 -0.0499
  481loPI   GL1 7685  17.141   3.864   8.880  0.0522  0.2305 -0.1520
  481loPI   GL2 7686  16.929   4.105   8.872 -0.0141  0.0872  0.0739
  481loPI   C1A 7687  17.327   3.858   8.491  0.2541  0.1596  0.0019
  481loPI   C2A 7688  17.469   3.899   8.148  0.0477 -0.3015  0.1794
  481loPI   C3A 7689  17.345   3.848   7.592 -0.0204 -0.1680 -0.1144
  481loPI   C4A 7690  17.197   3.745   7.206  0.0719  0.0956 -0.1209
  481loPI   C5A 7691  16.868   3.674   6.889  0.1299 -0.0293  0.3317
  481loPI   C6A 7692  16.834   3.662   6.430 -0.2349  0.3081 -0.2271
  481loPI   C1B 7693  17.040   4.233   8.425  0.0858  0.3751 -0.1357
  481loPI   C2B 7694  16.996   4.412   8.005  0.1845  0.1302  0.2161
  481loPI   C3B 7695  16.885   4.600   7.540 -0.0559  0.2442  0.0065
  481loPI   C4B 7696  16.958   4.954   7.296  0.1206  0.2091  0.0414
  482loPI    C1 7697  13.417  13.207  10.600  0.0803 -0.0078  0.0907
  482loPI    C2 7698  13.510  12.848  10.451  0.1862  0.0301  0.0647
  482loPI    C3 7699  13.532  12.912  10.845 -0.0142 -0.0458  0.0897
  482loPI   PO4 7700  13.597  13.403  10.429  0.0402  0.2204  0.1628
  482loPI   GL1 7701  13.778  13.557  10.063  0.1662 -0.0391  0.0978
  482loPI   GL2 7702  13.942  13.804   9.829  0.0215 -0.0330 -0.1609
  482loPI   C1A 7703  13.935  13.325   9.640  0.4018  0.3852  0.0482
  482loPI   C2A 7704  13.984  13.019   9.299  0.2166  0.0351  0.0394
  482loPI   C3A 7705  14.257  12.917   8.974  0.2853 -0.0390  0.0138
  482loPI   C4A 7706  14.221  12.934   8.518 -0.2479  0.0967 -0.0287
  482loPI   C5A 7707  14.147  13.028   8.145 -0.1756  0.1420 -0.1014
  482loPI   C6A 7708  13.758  12.908   7.967 -0.0919 -0.2812  0.0922
  482loPI   C1B 7709  13.818  13.764   9.298 -0.0095  0.1655 -0.1786
  482loPI   C2B 7710  13.634  13.315   9.088 -0.0537 -0.0225 -0.3290
  482loPI   C3B 7711  13.785  12.958   8.797  0.2285 -0.4764  0.0133
  482loPI   C4B 7712  13.596  12.920   8.440 -0.0922 -0.0688  0.0631
  483loPI    C1 7713   5.537   0.352   9.857  0.0843  0.0181 -0.0883
  483loPI    C2 7714   5.464   0.090  10.150 -0.0894 -0.1925 -0.3154
  483loPI    C3 7715   5.226   0.408  10.102 -0.1543 -0.2422 -0.3237
  483loPI   PO4 7716   5.816   0.333   9.850  0.1240  0.1463 -0.4085
  483loPI   GL1 7717   5.910   0.038   9.575 -0.1632  0.3451  0.0633
  483loPI   GL2 7718   6.269  -0.034   9.528 -0.2569 -0.0771 -0.1203
  483loPI   C1A 7719   5.819   0.144   9.131 -0.0526  0.3634 -0.1887
  483loPI   C2A 7720   5.888  -0.043   8.738  0.2110 -0.3205 -0.1272
  483loPI   C3A 7721   6.217  -0.243   8.475 -0.1038  0.0526 -0.2550
  483loPI   C4A 7722   6.358  -0.470   8.110  0.0592  0.0317  0.1070
  483loPI   C5A 7723   6.513  -0.780   8.020 -0.1813 -0.0756  0.0195
  483loPI   C6A 7724   6.590  -1.131   8.026 -0.0406 -0.1032  0.1856
  483loPI   C1B 7725   6.202  -0.217   9.136  0.0855  0.0205 -0.0202
  483loPI   C2B 7726   6.058  -0.503   8.839  0.2636  0.1618 -0.2537
  483loPI   C3B 7727   5.731  -0.443   8.468 -0.0196  0.1986  0.1286
  483loPI   C4B 7728   5.769  -0.281   8.047  0.1229  0.2507  0.0256
  484loPI    C1 7729  10.065   4.222   9.956 -0.1917  0.1338 -0.0164
  484loPI    C2 7730   9.746   4.339  10.167 -0.1780  0.1068  0.0195
  484loPI    C3 7731   9.991   4.611  10.007 -0.0661  0.1280  0.2237
  484loPI   PO4 7732   9.953   4.087   9.788 -0.2151  0.3136  0.0329
  484loPI   GL1 7733   9.890   4.056   9.384 -0.0785 -0.0964  0.3046
  484loPI   GL2 7734   9.642   4.042   9.307 -0.2832  0.1537  0.0152
  484loPI   C1A 7735  10.149   3.799   9.044 -0.2262  0.3352  0.0461
  484loPI   C2A 7736  10.368   3.499   8.770  0.1537 -0.0946 -0.0134
  484loPI   C3A 7737  10.357   3.229   8.442 -0.0926 -0.0840 -0.0828
  484loPI   C4A 7738  10.306   2.965   8.067 -0.1551  0.1168 -0.3991
  484loPI   C5A 7739  10.021   2.874   7.894 -0.3437 -0.2353 -0.0859
  484loPI   C6A 7740   9.720   2.599   7.632  0.6147  0.1626  0.1263
  484loPI   C1B 7741   9.552   4.093   8.827 -0.3345  0.0129  0.1183
  484loPI   C2B 7742   9.692   4.063   8.403  0.2181 -0.0905  0.1301
  484loPI   C3B 7743   9.902   4.106   8.123 -0.1493 -0.1015 -0.2222
  484loPI   C4B 7744  10.070   3.829   7.738  0.0949  0.0591  0.0519
  485loPI    C1 7745  13.289  11.132   9.795 -0.1249 -0.0286 -0.2637
  485loPI    C2 7746  13.517  11.176   9.470  0.1629 -0.1840 -0.0865
  485loPI    C3 7747  13.685  11.174   9.833 -0.1370 -0.1758  0.0547
  485loPI   PO4 7748  13.155  10.968   9.770  0.1483  0.0509  0.0066
  485loPI   GL1 7749  13.161  10.781   9.436  0.0496  0.0265 -0.2067
  485loPI   GL2 7750  12.933  10.550   9.533 -0.0686  0.1214 -0.2911
  485loPI   C1A 7751  13.217  10.657   9.085 -0.0031  0.0968 -0.1410
  485loPI   C2A 7752  13.252  10.508   8.703  0.1049  0.1909 -0.3409
  485loPI   C3A 7753  13.047  10.350   8.278  0.0259  0.3659  0.1175
  485loPI   C4A 7754  12.773  10.322   8.031 -0.1291 -0.0533  0.2183
  485loPI   C5A 7755  12.474  10.295   7.730 -0.1360  0.2686  0.1366
  485loPI   C6A 7756  12.571  10.353   7.354  0.3852  0.0337  0.2215
  485loPI   C1B 7757  12.685  10.512   9.183 -0.2898  0.2341 -0.0429
  485loPI   C2B 7758  12.710  10.566   8.706  0.0362  0.1061 -0.1352
  485loPI   C3B 7759  12.559  10.602   8.334  0.0657  0.1250  0.0787
  485loPI   C4B 7760  12.585  10.754   8.001 -0.0596 -0.3057  0.0583
  486loPI    C1 7761  17.703  10.632  10.251 -0.0094  0.0601  0.0150
  486loPI    C2 7762  17.384  10.526  10.468 -0.0246  0.3122  0.1180
  486loPI    C3 7763  17.745  10.380  10.559 -0.0788  0.1823  0.1254
  486loPI   PO4 7764  17.734  10.617   9.944  0.0743 -0.0964  0.0365
  486loPI   GL1 7765  17.706  10.417   9.606  0.3250 -0.3148 -0.3089
  486loPI   GL2 7766  17.416  10.359   9.428  0.1914 -0.2092 -0.0225
  486loPI   C1A 7767  17.949  10.161   9.328  0.2440  0.1615  0.2238
  486loPI   C2A 7768  18.044  10.148   8.925  0.1352 -0.1320 -0.0688
  486loPI   C3A 7769  17.927  10.369   8.541  0.2485 -0.1769  0.3785
  486loPI   C4A 7770  17.649  10.342   8.122  0.1971 -0.0798  0.1150
  486loPI   C5A 7771  17.353  10.266   7.812 -0.0109  0.1065 -0.0237
  486loPI   C6A 7772  17.034  10.352   7.496 -0.1145 -0.1993 -0.0734
  486loPI   C1B 7773  17.464  10.364   8.956  0.3830 -0.0210 -0.0436
  486loPI   C2B 7774  17.419  10.397   8.578  0.1410  0.0474  0.2743
  486loPI   C3B 7775  17.331  10.707   8.204 -0.1286 -0.1066  0.4733
  486loPI   C4B 7776  17.238  10.782   7.788  0.0416 -0.0846  0.1674
  487loPI    C1 7777   4.622   2.917  10.269  0.2904 -0.1730  0.0716
  487loPI    C2 7778   4.472   2.701  10.570 -0.0250 -0.0650 -0.0048
  487loPI    C3 7779   4.253   2.991  10.403  0.2470  0.0523 -0.1645
  487loPI   PO4 7780   4.995   2.908  10.289  0.3479 -0.0935 -0.2039
  487loPI   GL1 7781   5.258   2.987   9.767 -0.1203  0.0317  0.2685
  487loPI   GL2 7782   4.916   3.140   9.621 -0.0155  0.3072 -0.0224
  487loPI   C1A 7783   5.170   2.824   9.348 -0.2208 -0.1544  0.2362
  487loPI   C2A 7784   5.207   2.883   8.932  0.0000  0.2282 -0.2290
  487loPI   C3A 7785   5.002   2.959   8.599 -0.1348  0.2058  0.1303
  487loPI   C4A 7786   4.793   3.002   8.157  0.4174  0.0199 -0.0407
  487loPI   C5A 7787   4.704   2.840   7.795 -0.1660  0.0413 -0.1438
  487loPI   C6A 7788   4.463   2.959   7.564  0.0078  0.0938  0.0274
  487loPI   C1B 7789   4.831   3.122   9.158  0.1694  0.2935  0.0697
  487loPI   C2B 7790   4.474   3.109   8.924 -0.3050 -0.0138 -0.0566
  487loPI   C3B 7791   4.386   3.144   8.489  0.0484 -0.3617 -0.2082
  487loPI   C4B 7792   4.327   3.083   8.053  0.0434  0.0864  0.0514
  488loPI    C1 7793  12.595  13.419  10.439 -0.2350  0.1134  0.1024
  488loPI    C2 7794  12.943  13.443  10.635 -0.3306 -0.1072  0.3031
  488loPI    C3 7795  12.653  13.708  10.709 -0.1780  0.1284  0.0745
  488loPI   PO4 7796  12.671  13.339  10.224 -0.2365  0.3702  0.1158
  488loPI   GL1 7797  12.952  13.476   9.801 -0.1068  0.0034 -0.0547
  488loPI   GL2 7798  12.985  13.093   9.628  0.0208 -0.0470  0.0336
  488loPI   C1A 7799  12.921  13.512   9.382 -0.2097 -0.0866  0.2252
  488loPI   C2A 7800  12.830  13.375   8.979  0.0696  0.0999 -0.5843
  488loPI   C3A 7801  12.908  13.425   8.490 -0.0431 -0.1192  0.1331
  488loPI   C4A 7802  12.979  13.846   8.412 -0.1850  0.1893 -0.2993
  488loPI   C5A 7803  13.163  14.210   8.303 -0.0380 -0.3285  0.1962
  488loPI   C6A 7804  13.537  14.314   8.276 -0.1832  0.3080  0.3685
  488loPI   C1B 7805  13.207  13.167   9.237  0.0278 -0.2998 -0.2264
  488loPI   C2B 7806  13.218  13.136   8.757  0.1227  0.3335 -0.2988
  488loPI   C3B 7807  13.115  12.966   8.405  0.1269 -0.1690 -0.3865
  488loPI   C4B 7808  13.358  13.159   8.078 -0.0558 -0.1535 -0.0615
  489loPI    C1 7809   6.794  17.415  10.138 -0.2340  0.0471  0.0959
  489loPI    C2 7810   6.921  17.175  10.432 -0.1488  0.0770  0.0837
  489loPI    C3 7811   7.119  17.513  10.349 -0.1504  0.0497 -0.0327
  489loPI   PO4 7812   6.682  17.221  10.010 -0.3989 -0.0616 -0.3769
  489loPI   GL1 7813   6.551  17.198   9.599 -0.2544  0.0649  0.0910
  489loPI   GL2 7814   6.501  17.558   9.698 -0.1783 -0.2469 -0.1464
  489loPI   C1A 7815   6.646  17.220   9.203  0.2178  0.0578 -0.2679
  489loPI   C2A 7816   6.807  17.154   8.856 -0.1839 -0.1494  0.0353
  489loPI   C3A 7817   7.152  17.001   8.549 -0.0263 -0.0850 -0.1637
  489loPI   C4A 7818   7.197  16.830   8.275 -0.0083  0.0144  0.1761
  489loPI   C5A 7819   7.274  16.814   7.884 -0.1724 -0.1056  0.1883
  489loPI   C6A 7820   7.452  16.969   7.565  0.1339 -0.0471  0.2118
  489loPI   C1B 7821   6.587  17.767   9.314 -0.1332 -0.3110 -0.0137
  489loPI   C2B 7822   6.730  17.724   8.924  0.0844  0.3340  0.1925
  489loPI   C3B 7823   7.032  17.901   8.609  0.1249  0.1523  0.0061
  489loPI   C4B 7824   7.006  17.980   8.191  0.1413 -0.1862 -0.3369
  490loPI    C1 7825   8.733   6.905  10.074  0.0093 -0.0924 -0.3175
  490loPI    C2 7826   8.882   7.143  10.358 -0.1307 -0.2057 -0.1465
  490loPI    C3 7827   9.023   6.772  10.314  0.0148 -0.1290 -0.3443
  490loPI   PO4 7828   8.662   7.149   9.875  0.0980  0.0772 -0.0702
  490loPI   GL1 7829   8.938   7.255   9.541 -0.0480 -0.4201 -0.0710
  490loPI   GL2 7830   8.787   7.465   9.480  0.0169 -0.0405 -0.2746
  490loPI   C1A 7831   9.201   7.366   9.252 -0.3062 -0.0880  0.0812
  490loPI   C2A 7832   9.237   7.510   8.804  0.3090 -0.0757 -0.2163
  490loPI   C3A 7833   9.232   7.336   8.346 -0.1187 -0.0757  0.0407
  490loPI   C4A 7834   9.173   7.330   7.910 -0.0032  0.0480  0.0145
  490loPI   C5A 7835   9.510   7.346   7.609 -0.0435 -0.1930 -0.1364
  490loPI   C6A 7836   9.829   7.366   7.754  0.1067 -0.1528 -0.1578
  490loPI   C1B 7837   8.512   7.764   9.257  0.1413 -0.0056  0.2152
  490loPI   C2B 7838   8.351   7.840   8.798 -0.0880  0.1002  0.2213
  490loPI   C3B 7839   8.338   7.622   8.361 -0.1626  0.0234 -0.1075
  490loPI   C4B 7840   8.009   7.294   8.254 -0.1817 -0.2083 -0.0295
  491loPI    C1 7841   8.174   9.664  10.149  0.0398  0.0400  0.1474
  491loPI    C2 7842   8.410   9.511  10.433  0.0400  0.0678  0.1624
  491loPI    C3 7843   8.036   9.619  10.522  0.0535  0.1156  0.1620
  491loPI   PO4 7844   8.379   9.780   9.985 -0.0282  0.0138  0.3688
  491loPI   GL1 7845   8.465   9.898   9.595  0.1688  0.0955  0.0313
  491loPI   GL2 7846   8.436   9.509   9.601  0.1900 -0.1512 -0.2863
  491loPI   C1A 7847   8.437   9.838   9.187  0.3008  0.1873 -0.0253
  491loPI   C2A 7848   8.393   9.502   8.885  0.3148  0.0809 -0.1904
  491loPI   C3A 7849   8.273   9.224   8.685 -0.0351 -0.0361 -0.1558
  491loPI   C4A 7850   7.988   9.065   8.366 -0.1087 -0.1370 -0.4114
  491loPI   C5A 7851   8.009   8.636   8.020  0.0317  0.0336 -0.1350
  491loPI   C6A 7852   8.015   8.244   7.823 -0.1223 -0.0622  0.0227
  491loPI   C1B 7853   8.207   9.171   9.505  0.1222 -0.0197  0.0195
  491loPI   C2B 7854   8.084   8.993   9.070 -0.1971 -0.1416  0.2286
  491loPI   C3B 7855   7.745   8.977   8.764 -0.1422 -0.2303 -0.0735
  491loPI   C4B 7856   7.575   8.894   8.258 -0.2829  0.0743 -0.1778
  492loPI    C1 7857   3.033   4.436  10.190 -0.0860 -0.1811  0.2407
  492loPI    C2 7858   3.429   4.444  10.136 -0.1078  0.0638  0.1028
  492loPI    C3 7859   3.276   4.499  10.502 -0.0189  0.0914  0.1361
  492loPI   PO4 7860   2.951   4.468   9.903 -0.2170  0.1041  0.2997
  492loPI   GL1 7861   3.113   4.328   9.554  0.1778  0.0792  0.0338
  492loPI   GL2 7862   3.420   4.377   9.624  0.2147  0.0349 -0.0853
  492loPI   C1A 7863   3.175   4.445   9.133 -0.0950  0.0397 -0.0673
  492loPI   C2A 7864   3.120   4.485   8.735  0.1351  0.0707  0.5821
  492loPI   C3A 7865   3.164   4.330   8.334  0.2527 -0.0377 -0.1057
  492loPI   C4A 7866   3.049   4.340   7.835 -0.2531  0.1121 -0.0091
  492loPI   C5A 7867   3.197   4.568   7.530 -0.0317 -0.1493 -0.1072
  492loPI   C6A 7868   3.495   4.472   7.320 -0.0234  0.2036  0.0062
  492loPI   C1B 7869   3.630   4.274   9.319 -0.0089 -0.2461 -0.1411
  492loPI   C2B 7870   3.566   4.219   8.849  0.3364 -0.1051 -0.2127
  492loPI   C3B 7871   3.669   4.252   8.374 -0.1071  0.5159 -0.0685
  492loPI   C4B 7872   3.525   4.318   7.992 -0.3109 -0.0049  0.1731
  493loPI    C1 7873  17.559   8.329  10.570  0.0878 -0.1153  0.2295
  493loPI    C2 7874  17.890   8.183  10.740  0.1858  0.0669  0.1983
  493loPI    C3 7875  17.665   8.448  10.937  0.2778  0.2480  0.0619
  493loPI   PO4 7876  17.613   8.421  10.366 -0.1928  0.0904  0.1003
  493loPI   GL1 7877  17.702   8.575   9.936 -0.2832 -0.2068 -0.0032
  493loPI   GL2 7878  18.080   8.640   9.794 -0.1106 -0.4716  0.0236
  493loPI   C1A 7879  17.476   8.760   9.634 -0.2379  0.2011 -0.4669
  493loPI   C2A 7880  17.298   8.871   9.268  0.0487 -0.1080 -0.1044
  493loPI   C3A 7881  17.273   8.940   8.834  0.2151  0.1779 -0.2867
  493loPI   C4A 7882  17.445   9.031   8.451  0.1572 -0.0155 -0.1176
  493loPI   C5A 7883  17.418   9.493   8.325  0.2006  0.1171  0.3308
  493loPI   C6A 7884  17.462   9.750   7.855  0.2349 -0.2457 -0.1679
  493loPI   C1B 7885  17.902   8.609   9.408 -0.1091  0.2737 -0.3701
  493loPI   C2B 7886  17.841   8.421   9.047  0.1113  0.4029  0.0435
  493loPI   C3B 7887  17.997   8.242   8.765  0.0401 -0.4032 -0.1915
  493loPI   C4B 7888  18.059   7.924   8.399  0.2188  0.1299  0.1921
  494loPI    C1 7889   0.837   1.907   9.956 -0.2862  0.0741 -0.1411
  494loPI    C2 7890   0.693   1.552  10.071  0.1459 -0.0009  0.1952
  494loPI    C3 7891   0.703   1.857  10.330  0.0752  0.1652  0.0049
  494loPI   PO4 7892   0.730   1.983   9.778 -0.2062 -0.0333  0.0469
  494loPI   GL1 7893   0.507   1.900   9.402 -0.1930 -0.1279 -0.0487
  494loPI   GL2 7894   0.224   1.816   9.684 -0.2332  0.1548  0.1090
  494loPI   C1A 7895   0.675   2.006   9.042 -0.1150 -0.1940 -0.0450
  494loPI   C2A 7896   0.752   2.281   8.769  0.0921 -0.2103  0.3438
  494loPI   C3A 7897   0.929   2.507   8.361 -0.0647 -0.0711  0.0566
  494loPI   C4A 7898   0.917   2.779   8.122  0.0122 -0.1321 -0.3333
  494loPI   C5A 7899   0.583   2.909   7.832  0.1750 -0.1117  0.0035
  494loPI   C6A 7900   0.504   2.733   7.524 -0.1249 -0.1887  0.1041
  494loPI   C1B 7901   0.229   1.515   9.369  0.2686 -0.1433  0.1810
  494loPI   C2B 7902   0.447   1.578   8.905 -0.0298 -0.1356  0.1537
  494loPI   C3B 7903   0.357   1.606   8.471  0.1766 -0.0310  0.2751
  494loPI   C4B 7904   0.066   1.307   8.178 -0.1189  0.1428  0.1313
  495loPI    C1 7905   6.628   0.675  10.349  0.0572  0.3056  0.0962
  495loPI    C2 7906   6.228   0.677  10.355  0.0412 -0.2621 -0.1506
  495loPI    C3 7907   6.433   0.871  10.638 -0.4087 -0.2239  0.1603
  495loPI   PO4 7908   6.612   0.623  10.028 -0.1082 -0.2875 -0.1760
  495loPI   GL1 7909   6.788   0.565   9.598 -0.0674  0.1273 -0.4167
  495loPI   GL2 7910   6.946   0.744   9.510  0.0037 -0.1013 -0.0950
  495loPI   C1A 7911   6.811   0.266   9.330 -0.0151 -0.0470 -0.1416
  495loPI   C2A 7912   7.257  -0.012   9.211 -0.2048 -0.0274 -0.1187
  495loPI   C3A 7913   7.604  -0.181   8.901 -0.0976 -0.0691 -0.4489
  495loPI   C4A 7914   7.865  -0.442   8.672  0.1091 -0.3534 -0.3193
  495loPI   C5A 7915   7.964  -0.592   8.342  0.0344  0.0844 -0.0605
  495loPI   C6A 7916   8.228  -0.930   8.140 -0.0172  0.3419 -0.0243
  495loPI   C1B 7917   7.119   0.947   9.046  0.1995  0.3287  0.0875
  495loPI   C2B 7918   7.148   0.891   8.651  0.0247  0.1606 -0.0477
  495loPI   C3B 7919   7.245   0.848   8.207  0.2279  0.0845 -0.1741
  495loPI   C4B 7920   7.540   0.753   7.825 -0.3234 -0.0495  0.1950
  496loPI    C1 7921  16.128   0.146  10.524 -0.2009 -0.0400 -0.0661
  496loPI    C2 7922  16.258   0.368  10.830  0.1114  0.0225 -0.2387
  496loPI    C3 7923  15.924   0.151  10.868  0.0633  0.1472  0.0922
  496loPI   PO4 7924  16.051   0.251  10.339  0.1719  0.1446 -0.0666
  496loPI   GL1 7925  16.239   0.321  10.009  0.0560  0.3035 -0.2207
  496loPI   GL2 7926  16.561   0.166   9.972  0.1366  0.3062  0.1837
  496loPI   C1A 7927  16.072   0.397   9.528 -0.1030  0.0826 -0.2794
  496loPI   C2A 7928  16.143   0.125   9.092 -0.0350  0.4710 -0.2311
  496loPI   C3A 7929  16.108  -0.004   8.597  0.1118 -0.0531 -0.3281
  496loPI   C4A 7930  16.026  -0.077   8.151  0.1633  0.1840 -0.2206
  496loPI   C5A 7931  16.055  -0.018   7.721 -0.1450 -0.0374 -0.0372
  496loPI   C6A 7932  15.926  -0.153   7.335  0.0288 -0.1108  0.1382
  496loPI   C1B 7933  16.559   0.260   9.482  0.0993  0.0337  0.0225
  496loPI   C2B 7934  16.702   0.505   9.110  0.1110  0.1385  0.0512
  496loPI   C3B 7935  16.672   0.555   8.720  0.1749 -0.0458 -0.0390
  496loPI   C4B 7936  16.456   0.759   8.451  0.1528 -0.0145  0.1087
  497loPI    C1 7937  10.049  13.868  10.517  0.3814 -0.1472 -0.0276
  497loPI    C2 7938   9.905  13.772  10.878  0.3776 -0.4035 -0.0955
  497loPI    C3 7939  10.049  14.139  10.811 -0.2434 -0.1349 -0.0263
  497loPI   PO4 7940   9.880  13.837  10.385 -0.0036 -0.0675 -0.1786
  497loPI   GL1 7941   9.906  13.817   9.917 -0.2198  0.1676  0.0983
  497loPI   GL2 7942  10.062  13.643   9.660 -0.2035 -0.2150 -0.0126
  497loPI   C1A 7943   9.650  13.708   9.470  0.2181 -0.1733 -0.3323
  497loPI   C2A 7944   9.693  13.876   9.013  0.4398  0.0171  0.3498
  497loPI   C3A 7945   9.406  13.994   8.643 -0.2516  0.0941  0.1975
  497loPI   C4A 7946   9.302  14.176   8.280 -0.1893 -0.1556 -0.1266
  497loPI   C5A 7947   9.389  14.449   7.971  0.1930  0.1561  0.0936
  497loPI   C6A 7948   9.207  14.448   7.595 -0.0301 -0.2619 -0.2312
  497loPI   C1B 7949   9.974  13.339   9.466  0.2088  0.1654  0.1377
  497loPI   C2B 7950   9.990  13.333   8.943  0.1216 -0.1668 -0.1866
  497loPI   C3B 7951   9.773  13.291   8.596 -0.1112  0.1090  0.1467
  497loPI   C4B 7952   9.688  13.447   8.172 -0.0616 -0.3214 -0.1941
  498loPI    C1 7953  17.758  18.554  10.226 -0.1425  0.1312 -0.0637
  498loPI    C2 7954  17.979  18.721  10.516 -0.2084  0.2308 -0.0706
  498loPI    C3 7955  17.783  18.379  10.585 -0.1317  0.1942 -0.0337
  498loPI   PO4 7956  17.855  18.726  10.044 -0.0676 -0.1322 -0.0853
  498loPI   GL1 7957  17.720  18.533   9.636  0.3409 -0.1028 -0.1775
  498loPI   GL2 7958  17.789  18.290   9.362 -0.0687 -0.3299 -0.0162
  498loPI   C1A 7959  17.886  18.749   9.193 -0.1486  0.1063 -0.1171
  498loPI   C2A 7960  17.835  18.640   8.747  0.2503  0.2554 -0.1262
  498loPI   C3A 7961  17.897  18.417   8.354  0.2328  0.3867 -0.0599
  498loPI   C4A 7962  18.193  18.309   8.017 -0.3447  0.0237  0.0880
  498loPI   C5A 7963  18.573  18.333   7.739  0.1185  0.1205 -0.0793
  498loPI   C6A 7964  18.910  18.178   7.656 -0.4097 -0.0827  0.0252
  498loPI   C1B 7965  17.677  18.162   8.965 -0.0972 -0.0198 -0.0135
  498loPI   C2B 7966  17.539  18.202   8.598 -0.0944  0.0832 -0.4052
  498loPI   C3B 7967  17.368  18.372   8.278  0.0084 -0.1643  0.0507
  498loPI   C4B 7968  17.283  18.616   7.975  0.3501 -0.0927  0.0424
  499loPI    C1 7969   8.823   9.087  10.442 -0.3348  0.0026  0.1301
  499loPI    C2 7970   9.106   8.806  10.468 -0.0609  0.2774  0.1811
  499loPI    C3 7971   8.940   8.954  10.801 -0.2683  0.1178  0.1514
  499loPI   PO4 7972   8.723   8.952  10.135 -0.1345 -0.0559 -0.0469
  499loPI   GL1 7973   8.723   8.974   9.638 -0.1165 -0.0381 -0.0725
  499loPI   GL2 7974   8.958   8.679   9.576 -0.1788 -0.1171 -0.1227
  499loPI   C1A 7975   8.646   8.811   9.167 -0.1353  0.0574  0.3373
  499loPI   C2A 7976   8.557   8.757   8.753  0.0625  0.0790  0.1678
  499loPI   C3A 7977   8.525   8.754   8.377 -0.0175  0.1708  0.1987
  499loPI   C4A 7978   8.490   8.684   7.933 -0.3790 -0.0287  0.0466
  499loPI   C5A 7979   8.742   8.548   7.566 -0.1907  0.0742 -0.0380
  499loPI   C6A 7980   9.003   8.567   7.228 -0.0847 -0.0620  0.1969
  499loPI   C1B 7981   9.216   8.512   9.266  0.0295 -0.0864  0.3957
  499loPI   C2B 7982   9.441   8.477   8.858 -0.1455  0.3622  0.0200
  499loPI   C3B 7983   9.487   8.363   8.417  0.0414  0.0854  0.1063
  499loPI   C4B 7984   9.583   8.333   7.942  0.3903  0.1011  0.2616
  500loPI    C1 7985  13.596   6.807  10.449 -0.0756 -0.0261  0.1533
  500loPI    C2 7986  13.325   6.859  10.738 -0.0536 -0.1124  0.1900
  500loPI    C3 7987  13.392   6.494  10.591 -0.1780 -0.0466 -0.0353
  500loPI   PO4 7988  13.538   6.975  10.211 -0.1237 -0.1284  0.3376
  500loPI   GL1 7989  13.331   7.311   9.960 -0.1728 -0.1328  0.0981
  500loPI   GL2 7990  13.618   7.440   9.744 -0.2461  0.2300  0.2327
  500loPI   C1A 7991  13.266   7.165   9.490 -0.2684 -0.1779  0.2898
  500loPI   C2A 7992  13.030   7.206   9.153 -0.0119 -0.2276 -0.1140
  500loPI   C3A 7993  13.032   7.258   8.723  0.1023  0.1184  0.3354
  500loPI   C4A 7994  12.823   7.117   8.397 -0.0458  0.1544 -0.1591
  500loPI   C5A 7995  12.722   7.001   7.993  0.0675 -0.2671  0.2584
  500loPI   C6A 7996  12.856   6.892   7.576 -0.1627  0.0101 -0.0962
  500loPI   C1B 7997  13.650   7.375   9.278 -0.0661 -0.0042 -0.3014
  500loPI   C2B 7998  13.508   7.181   8.953 -0.0265  0.2693  0.2254
  500loPI   C3B 7999  13.425   6.965   8.576  0.0077 -0.0734 -0.1580
  500loPI   C4B 8000  13.190   6.774   8.278 -0.1456 -0.3213 -0.1533
  501loPI    C1 8001   3.859   6.837  10.318  0.0948  0.0490  0.0565
  501loPI    C2 8002   3.519   6.907  10.516 -0.0668 -0.1274 -0.1524
  501loPI    C3 8003   3.831   6.744  10.706 -0.2336 -0.3345 -0.0525
  501loPI   PO4 8004   3.904   7.041  10.154  0.2025  0.0292 -0.1175
  501loPI   GL1 8005   3.860   6.975   9.742  0.2301  0.0564 -0.2408
  501loPI   GL2 8006   4.025   6.756   9.633  0.4924  0.0513 -0.3316
  501loPI   C1A 8007   3.836   7.163   9.337  0.0424 -0.0969  0.1152
  501loPI   C2A 8008   3.912   7.251   8.889 -0.2500  0.0103  0.1940
  501loPI   C3A 8009   4.073   7.311   8.401  0.0486  0.1189 -0.0021
  501loPI   C4A 8010   4.127   7.302   8.012  0.3069 -0.1306  0.3266
  501loPI   C5A 8011   4.206   7.202   7.666 -0.0988 -0.1879 -0.0226
  501loPI   C6A 8012   4.351   7.359   7.384  0.1435 -0.0596 -0.0720
  501loPI   C1B 8013   4.200   6.780   9.105  0.1834  0.1201  0.0927
  501loPI   C2B 8014   4.118   6.859   8.598 -0.5605  0.1684 -0.5148
  501loPI   C3B 8015   4.211   6.832   8.182 -0.0620  0.0508  0.1936
  501loPI   C4B 8016   4.168   6.720   7.762  0.3921 -0.1055  0.0128
  502loPI    C1 8017  14.040   9.196   9.992  0.0106  0.0328 -0.0287
  502loPI    C2 8018  14.216   8.900  10.197 -0.1471 -0.1647 -0.1738
  502loPI    C3 8019  13.828   8.980  10.255  0.0156  0.3731  0.2624
  502loPI   PO4 8020  14.107   9.125   9.723  0.0522  0.0629  0.1276
  502loPI   GL1 8021  13.917   8.812   9.365 -0.1063 -0.0271  0.0660
  502loPI   GL2 8022  14.333   9.004   9.314 -0.1046  0.1400 -0.1001
  502loPI   C1A 8023  13.785   8.663   9.004  0.1639 -0.3248  0.0532
  502loPI   C2A 8024  13.771   8.465   8.661  0.0804  0.1353 -0.1459
  502loPI   C3A 8025  13.632   8.620   8.329  0.1924 -0.2372  0.2410
  502loPI   C4A 8026  13.412   8.861   7.940 -0.1919  0.1456  0.0595
  502loPI   C5A 8027  13.485   8.673   7.479 -0.1479 -0.0207 -0.0650
  502loPI   C6A 8028  13.460   8.262   7.393  0.1427 -0.0981 -0.0812
  502loPI   C1B 8029  14.212   8.901   8.898 -0.3390  0.2173  0.0026
  502loPI   C2B 8030  13.978   8.915   8.567 -0.1144 -0.1881 -0.1761
  502loPI   C3B 8031  14.132   8.869   8.154  0.0579 -0.0395 -0.3444
  502loPI   C4B 8032  14.214   8.816   7.821 -0.0201  0.0522  0.1529
  503loPI    C1 8033   1.744  15.722  10.211 -0.2599  0.2837 -0.0905
  503loPI    C2 8034   1.842  16.025  10.452  0.0819  0.1282 -0.0276
  503loPI    C3 8035   1.802  15.656  10.601 -0.2389  0.1231 -0.1198
  503loPI   PO4 8036   1.923  15.659   9.995  0.2737 -0.1843 -0.0677
  503loPI   GL1 8037   2.111  15.452   9.683 -0.3077 -0.1065  0.0318
  503loPI   GL2 8038   2.418  15.536   9.513  0.0854  0.1445  0.1309
  503loPI   C1A 8039   2.015  15.289   9.251  0.0942  0.0198  0.0265
  503loPI   C2A 8040   1.895  15.097   8.950  0.1091 -0.3422  0.0810
  503loPI   C3A 8041   1.707  14.803   8.581  0.2684 -0.1432  0.0704
  503loPI   C4A 8042   1.637  14.687   8.161  0.0942  0.2624  0.1350
  503loPI   C5A 8043   1.887  14.603   7.691 -0.0395  0.0700  0.0904
  503loPI   C6A 8044   1.798  14.324   7.498 -0.0616 -0.0221  0.0403
  503loPI   C1B 8045   2.489  15.431   9.161 -0.0961 -0.1711  0.0267
  503loPI   C2B 8046   2.272  15.350   8.791  0.0021  0.0296 -0.2106
  503loPI   C3B 8047   2.277  15.099   8.407 -0.1261  0.0036  0.2192
  503loPI   C4B 8048   2.093  14.850   8.087  0.0919  0.0340 -0.1424
  504loPI    C1 8049  17.224   4.454   9.834  0.0236  0.0401  0.0431
  504loPI    C2 8050  17.618   4.431   9.898  0.0080  0.0613  0.1484
  504loPI    C3 8051  17.389   4.107   9.946  0.0325  0.0114 -0.0574
  504loPI   PO4 8052  17.254   4.621   9.616 -0.0598 -0.1408 -0.0079
  504loPI   GL1 8053  17.044   4.756   9.364  0.0449 -0.0319 -0.2362
  504loPI   GL2 8054  16.723   4.629   9.383  0.2627  0.0858  0.3255
  504loPI   C1A 8055  17.097   4.842   8.940  0.3657  0.3224  0.0335
  504loPI   C2A 8056  17.184   4.706   8.577 -0.0748  0.2844 -0.0690
  504loPI   C3A 8057  17.151   4.829   8.255 -0.3723 -0.3013  0.0366
  504loPI   C4A 8058  17.367   4.755   7.875 -0.2077 -0.2428 -0.2037
  504loPI   C5A 8059  17.443   4.664   7.521 -0.1691 -0.0524  0.1468
  504loPI   C6A 8060  17.436   4.878   7.136  0.0881 -0.1164 -0.0683
  504loPI   C1B 8061  16.730   4.541   8.958 -0.4387  0.0977  0.0188
  504loPI   C2B 8062  16.699   4.581   8.414  0.1469  0.1653 -0.1455
  504loPI   C3B 8063  16.547   4.743   7.980 -0.1866 -0.1883  0.1835
  504loPI   C4B 8064  16.423   4.777   7.535 -0.0078  0.0613 -0.1854
  505loPI    C1 8065  14.638   4.054   9.934 -0.3319  0.1577 -0.3099
  505loPI    C2 8066  14.803   4.114  10.293 -0.1698  0.3870 -0.4193
  505loPI    C3 8067  14.416   4.014  10.264 -0.0364 -0.2577 -0.1538
  505loPI   PO4 8068  14.729   4.221   9.775  0.2581 -0.0196 -0.2932
  505loPI   GL1 8069  14.809   4.212   9.412  0.1763  0.3627  0.1989
  505loPI   GL2 8070  15.183   4.246   9.467 -0.3302  0.1911  0.0653
  505loPI   C1A 8071  14.473   4.305   9.091 -0.1828 -0.0748 -0.1073
  505loPI   C2A 8072  14.216   4.175   8.711 -0.2122  0.0138  0.2813
  505loPI   C3A 8073  14.007   3.908   8.352  0.0610 -0.3622 -0.0383
  505loPI   C4A 8074  14.200   3.692   8.005 -0.0090  0.3764  0.3345
  505loPI   C5A 8075  14.485   3.868   7.646 -0.0081 -0.1294 -0.0619
  505loPI   C6A 8076  14.523   4.128   7.312  0.3043 -0.0382 -0.1012
  505loPI   C1B 8077  15.529   4.278   9.170 -0.0894 -0.1069 -0.2155
  505loPI   C2B 8078  15.733   4.309   8.716 -0.1069 -0.1124 -0.0245
  505loPI   C3B 8079  15.815   4.234   8.294  0.0991 -0.0432  0.1062
  505loPI   C4B 8080  16.077   4.067   7.997 -0.0864 -0.2260  0.2637
  506loPI    C1 8081   1.905   6.708   9.211 -0.1448 -0.0457  0.1780
  506loPI    C2 8082   2.012   6.638   9.590 -0.0862  0.0526  0.1799
  506loPI    C3 8083   2.233   6.492   9.290 -0.1307 -0.0224  0.1833
  506loPI   PO4 8084   1.869   7.000   9.215 -0.0474 -0.1575  0.1451
  506loPI   GL1 8085   1.843   7.407   9.064 -0.0427 -0.2324 -0.0715
  506loPI   GL2 8086   1.545   7.343   9.058  0.0939 -0.1837  0.1466
  506loPI   C1A 8087   1.858   7.781   8.784 -0.1710  0.1407  0.2273
  506loPI   C2A 8088   2.007   7.953   8.343  0.1346 -0.1769  0.2829
  506loPI   C3A 8089   2.012   8.031   7.889 -0.1754 -0.1821 -0.2235
  506loPI   C4A 8090   2.220   8.166   7.488 -0.0762  0.0825 -0.0042
  506loPI   C5A 8091   2.248   8.562   7.308  0.1163 -0.0892 -0.1832
  506loPI   C6A 8092   2.264   8.955   7.176 -0.2238  0.0325  0.1251
  506loPI   C1B 8093   1.643   7.283   8.553  0.1602 -0.0006 -0.2183
  506loPI   C2B 8094   1.696   7.186   8.143  0.0525 -0.1587 -0.1407
  506loPI   C3B 8095   1.946   7.388   7.912 -0.4426 -0.0922 -0.1099
  506loPI   C4B 8096   2.069   7.357   7.494  0.4387 -0.0872  0.0661
  507loPI    C1 8097  16.904  10.874  10.051 -0.0188  0.0338 -0.1717
  507loPI    C2 8098  16.729  10.975  10.397  0.1435  0.1774 -0.1303
  507loPI    C3 8099  16.509  10.831  10.096  0.0276 -0.1351  0.0994
  507loPI   PO4 8100  17.101  10.711  10.110 -0.2626  0.2824 -0.0291
  507loPI   GL1 8101  17.280  10.692   9.759 -0.0264  0.2044  0.1925
  507loPI   GL2 8102  17.063  10.665   9.537 -0.0564 -0.3585 -0.0386
  507loPI   C1A 8103  17.517  10.830   9.387  0.3670  0.0938 -0.0286
  507loPI   C2A 8104  17.305  10.846   9.063 -0.1217 -0.0870 -0.2049
  507loPI   C3A 8105  17.045  10.779   8.710  0.0218 -0.1206  0.1069
  507loPI   C4A 8106  16.835  10.813   8.360 -0.0389 -0.2486 -0.1620
  507loPI   C5A 8107  16.720  11.106   8.042  0.1209  0.2318  0.0061
  507loPI   C6A 8108  16.533  11.290   7.657 -0.0014 -0.0025  0.2953
  507loPI   C1B 8109  16.866  10.531   9.100 -0.0905  0.1270  0.1911
  507loPI   C2B 8110  16.565  10.835   8.838 -0.1491 -0.0342 -0.1023
  507loPI   C3B 8111  16.422  11.003   8.438 -0.1109 -0.0299 -0.0767
  507loPI   C4B 8112  16.134  11.024   8.075 -0.1045 -0.0031 -0.0934
  508loPI    C1 8113  18.111   4.318   9.971 -0.0798 -0.0225  0.0657
  508loPI    C2 8114  17.926   3.998   9.818  0.0161 -0.0861  0.0812
  508loPI    C3 8115  17.910   4.070  10.212 -0.0621 -0.0337  0.0689
  508loPI   PO4 8116  18.070   4.530   9.745 -0.1001  0.5015 -0.0670
  508loPI   GL1 8117  18.200   4.429   9.316 -0.0092  0.0206  0.0140
  508loPI   GL2 8118  18.043   4.208   9.351 -0.3934  0.2608  0.1288
  508loPI   C1A 8119  18.038   4.739   8.963 -0.2482  0.2633 -0.1298
  508loPI   C2A 8120  18.032   4.825   8.524 -0.1922  0.0396 -0.0813
  508loPI   C3A 8121  17.990   4.897   8.160 -0.3839 -0.1546  0.0490
  508loPI   C4A 8122  17.965   5.176   7.841 -0.2302 -0.1387  0.1826
  508loPI   C5A 8123  18.017   5.253   7.452  0.2112 -0.0867 -0.1269
  508loPI   C6A 8124  17.741   5.262   7.134 -0.0316 -0.2438 -0.0532
  508loPI   C1B 8125  18.127   3.829   8.975  0.1811  0.0115  0.1925
  508loPI   C2B 8126  18.368   3.804   8.547 -0.0229 -0.1773  0.1901
  508loPI   C3B 8127  18.511   3.620   8.143  0.0720 -0.0228  0.1312
  508loPI   C4B 8128  18.553   3.436   7.830 -0.2781 -0.0517 -0.0674
  509loPI    C1 8129   1.575  17.366  10.277 -0.1466 -0.1888  0.0887
  509loPI    C2 8130   1.704  17.016  10.421 -0.0925 -0.2014  0.0110
  509loPI    C3 8131   1.628  17.319  10.671  0.2475 -0.1407  0.0445
  509loPI   PO4 8132   1.351  17.376  10.179  0.0412 -0.0455  0.2023
  509loPI   GL1 8133   1.213  17.351   9.757  0.6146  0.3192  0.0275
  509loPI   GL2 8134   0.820  17.426   9.776  0.2977 -0.1629  0.2420
  509loPI   C1A 8135   1.117  17.692   9.509 -0.2582  0.1468  0.1194
  509loPI   C2A 8136   0.908  17.968   9.269 -0.2296  0.0527  0.2401
  509loPI   C3A 8137   0.959  17.955   8.925 -0.1112  0.2663 -0.0592
  509loPI   C4A 8138   0.799  17.971   8.551  0.2295  0.0228  0.0981
  509loPI   C5A 8139   0.622  18.106   8.205 -0.0930  0.0862 -0.4106
  509loPI   C6A 8140   0.224  18.292   8.176  0.1968  0.1954  0.0125
  509loPI   C1B 8141   0.841  17.266   9.419 -0.0525 -0.3027 -0.1586
  509loPI   C2B 8142   1.060  17.083   9.060  0.0406 -0.2528 -0.0008
  509loPI   C3B 8143   1.176  17.235   8.729 -0.0264  0.0105 -0.3422
  509loPI   C4B 8144   1.125  17.636   8.526 -0.1587 -0.1097  0.2397
  510loPI    C1 8145   2.919  16.867   9.827  0.0311 -0.0279 -0.1323
  510loPI    C2 8146   3.245  16.813  10.053 -0.0608 -0.0449 -0.0026
  510loPI    C3 8147   3.040  17.156  10.076 -0.0907 -0.0608 -0.0339
  510loPI   PO4 8148   2.893  16.823   9.639  0.0054 -0.2498 -0.1758
  510loPI   GL1 8149   2.703  16.863   9.291 -0.3251 -0.0174  0.0698
  510loPI   GL2 8150   2.608  17.136   9.202 -0.2400 -0.0694  0.1176
  510loPI   C1A 8151   2.838  16.562   8.921 -0.1787 -0.1256 -0.0446
  510loPI   C2A 8152   2.742  16.287   8.600 -0.2487 -0.0993 -0.1859
  510loPI   C3A 8153   2.439  16.254   8.268  0.3870  0.2810  0.3563
  510loPI   C4A 8154   2.010  16.272   8.048  0.2414 -0.1978 -0.2501
  510loPI   C5A 8155   1.742  16.581   7.925  0.1063 -0.1965 -0.2437
  510loPI   C6A 8156   1.228  16.640   7.879  0.0271  0.2072 -0.2018
  510loPI   C1B 8157   2.593  17.097   8.739 -0.2033 -0.2471 -0.2142
  510loPI   C2B 8158   2.627  16.773   8.412  0.0699  0.3127 -0.1200
  510loPI   C3B 8159   2.841  16.457   8.127 -0.0151  0.0757  0.0481
  510loPI   C4B 8160   2.676  16.222   7.747  0.2167 -0.1187  0.2210
  511loPI    C1 8161  15.154  12.696  10.654 -0.0008  0.1900 -0.0654
  511loPI    C2 8162  15.127  12.333  10.489  0.0106  0.1189  0.0878
  511loPI    C3 8163  15.002  12.392  10.865 -0.2188  0.3289 -0.0188
  511loPI   PO4 8164  15.192  12.857  10.359 -0.0367  0.1054 -0.2417
  511loPI   GL1 8165  15.537  13.083  10.120 -0.3562 -0.1842  0.0476
  511loPI   GL2 8166  15.330  13.050   9.950 -0.0478  0.1909 -0.0005
  511loPI   C1A 8167  15.693  13.047   9.676 -0.1515  0.0687 -0.3210
  511loPI   C2A 8168  15.667  13.222   9.339  0.0249  0.0496 -0.0179
  511loPI   C3A 8169  15.605  13.296   8.971  0.0370  0.0334 -0.1875
  511loPI   C4A 8170  15.617  13.416   8.510 -0.1379  0.4038  0.0576
  511loPI   C5A 8171  15.970  13.507   8.255  0.3289  0.2570 -0.0796
  511loPI   C6A 8172  16.078  13.379   7.831  0.0895  0.1638 -0.0117
  511loPI   C1B 8173  15.135  13.197   9.578 -0.4597 -0.2264 -0.1435
  511loPI   C2B 8174  15.155  13.266   9.171 -0.1811  0.1006 -0.2050
  511loPI   C3B 8175  15.161  13.349   8.766 -0.2110  0.2036 -0.0820
  511loPI   C4B 8176  15.165  13.424   8.308  0.0703 -0.1124  0.0089
  512loPI    C1 8177   3.839   0.392   9.940  0.0029 -0.1747 -0.0228
  512loPI    C2 8178   4.047   0.350  10.279  0.1906  0.1043 -0.0996
  512loPI    C3 8179   3.684   0.518  10.286  0.0822 -0.1299 -0.0032
  512loPI   PO4 8180   4.035   0.445   9.795 -0.1153  0.2166 -0.3228
  512loPI   GL1 8181   4.158   0.413   9.472 -0.4617 -0.0712  0.0654
  512loPI   GL2 8182   4.388   0.129   9.560 -0.0536 -0.1764  0.1272
  512loPI   C1A 8183   4.274   0.491   9.055  0.0633 -0.3429 -0.1609
  512loPI   C2A 8184   4.251   0.687   8.651  0.1354 -0.1892 -0.2073
  512loPI   C3A 8185   4.204   0.898   8.322  0.0862 -0.0301 -0.2652
  512loPI   C4A 8186   4.303   1.229   8.065  0.1795 -0.0586  0.1818
  512loPI   C5A 8187   4.565   1.166   7.788 -0.0040 -0.2071 -0.3932
  512loPI   C6A 8188   4.858   0.846   7.688 -0.1618 -0.0870 -0.0199
  512loPI   C1B 8189   4.418   0.077   9.129  0.0154 -0.1284 -0.0198
  512loPI   C2B 8190   4.495   0.189   8.687  0.0135  0.1875  0.3774
  512loPI   C3B 8191   4.675   0.502   8.366 -0.0412 -0.0705 -0.3475
  512loPI   C4B 8192   4.682   0.875   8.175 -0.2261  0.0186  0.1378
  513loPI    C1 8193   0.895   7.133   9.627  0.1875  0.2327  0.0402
  513loPI    C2 8194   1.154   6.921   9.846 -0.0642 -0.3113 -0.1696
  513loPI    C3 8195   0.800   7.025  10.000  0.1585  0.1997  0.0233
  513loPI   PO4 8196   0.774   7.017   9.430 -0.0695 -0.1596 -0.0006
  513loPI   GL1 8197   0.824   7.082   9.086 -0.0639 -0.0878 -0.3825
  513loPI   GL2 8198   1.031   7.298   9.099 -0.0737  0.1403  0.0110
  513loPI   C1A 8199   0.634   7.194   8.646  0.0635 -0.0244 -0.0456
  513loPI   C2A 8200   0.551   7.086   8.183  0.0682 -0.0558 -0.3687
  513loPI   C3A 8201   0.423   6.679   7.911 -0.0528  0.2395 -0.1438
  513loPI   C4A 8202   0.556   6.710   7.441 -0.0168  0.1450 -0.0837
  513loPI   C5A 8203   0.903   6.680   7.143  0.1285 -0.0964  0.2892
  513loPI   C6A 8204   1.123   6.824   6.782 -0.1172  0.3396 -0.0696
  513loPI   C1B 8205   1.174   7.243   8.707 -0.1446 -0.1512  0.2591
  513loPI   C2B 8206   1.187   7.233   8.234  0.2852 -0.1232 -0.2219
  513loPI   C3B 8207   0.935   7.233   7.838 -0.1114 -0.0522  0.2045
  513loPI   C4B 8208   0.519   7.216   7.615 -0.0387  0.2567 -0.1447
  514loPI    C1 8209   2.621   9.992   9.896  0.0320  0.0753  0.2109
  514loPI    C2 8210   2.654   9.626  10.053 -0.0499  0.0297  0.1228
  514loPI    C3 8211   2.983   9.841   9.978  0.0257 -0.2085 -0.2523
  514loPI   PO4 8212   2.477   9.971   9.636 -0.4840 -0.3622 -0.1994
  514loPI   GL1 8213   2.526   9.856   9.232 -0.0007  0.2548  0.0316
  514loPI   GL2 8214   2.877  10.001   9.314  0.1488 -0.0290  0.1520
  514loPI   C1A 8215   2.361   9.760   8.820 -0.1318  0.0409  0.0847
  514loPI   C2A 8216   2.450   9.843   8.478 -0.2246  0.0865 -0.1474
  514loPI   C3A 8217   2.558   9.819   8.035 -0.2804 -0.0452 -0.0537
  514loPI   C4A 8218   2.800   9.498   7.821  0.2998 -0.1299  0.2353
  514loPI   C5A 8219   3.086   9.167   7.789  0.1790  0.1440 -0.2409
  514loPI   C6A 8220   2.942   8.768   7.819  0.2434  0.1132  0.0795
  514loPI   C1B 8221   2.884   9.832   8.871  0.2203 -0.2841 -0.0400
  514loPI   C2B 8222   2.971   9.795   8.473 -0.0780 -0.0455 -0.1934
  514loPI   C3B 8223   2.791   9.421   8.343 -0.0537 -0.2383 -0.3175
  514loPI   C4B 8224   2.979   9.068   8.272 -0.0188  0.0376  0.0488
  515loPI    C1 8225   3.184  17.721   9.827  0.1034 -0.2834  0.0056
  515loPI    C2 8226   3.511  17.944   9.883 -0.1058  0.0165  0.0572
  515loPI    C3 8227   3.336  17.764  10.194 -0.1706  0.1160  0.0788
  515loPI   PO4 8228   3.299  17.742   9.483  0.3564  0.1709 -0.0794
  515loPI   GL1 8229   3.347  17.434   9.218 -0.1016  0.0785 -0.0753
  515loPI   GL2 8230   3.031  17.634   9.102 -0.2159  0.0141  0.0993
  515loPI   C1A 8231   3.540  17.185   8.826  0.1165 -0.3905 -0.1439
  515loPI   C2A 8232   3.569  17.143   8.463  0.2003 -0.0109 -0.0053
  515loPI   C3A 8233   3.461  17.430   8.167 -0.0355 -0.0243 -0.1203
  515loPI   C4A 8234   3.290  17.457   7.814 -0.1254  0.1091 -0.1044
  515loPI   C5A 8235   3.097  17.110   7.599 -0.1738  0.2475 -0.2588
  515loPI   C6A 8236   2.868  16.657   7.561 -0.1157 -0.0570 -0.2268
  515loPI   C1B 8237   2.940  17.420   8.758  0.2226 -0.1081 -0.3709
  515loPI   C2B 8238   2.891  17.453   8.315  0.2015 -0.2088 -0.1711
  515loPI   C3B 8239   2.682  17.468   7.913  0.2607  0.1836 -0.0544
  515loPI   C4B 8240   2.290  17.570   7.820  0.1367  0.1783  0.0172
  516loPI    C1 8241  14.445   6.568   9.828 -0.2398  0.2498 -0.0571
  516loPI    C2 8242  14.411   6.442   9.450 -0.1095 -0.0227  0.0194
  516loPI    C3 8243  14.563   6.199   9.728 -0.2551  0.1570  0.2593
  516loPI   PO4 8244  14.207   6.711   9.838  0.0132  0.0856  0.0842
  516loPI   GL1 8245  13.943   6.766   9.556 -0.1965 -0.1311 -0.1257
  516loPI   GL2 8246  13.607   6.817   9.754  0.0074 -0.2077 -0.0231
  516loPI   C1A 8247  14.116   6.712   9.191 -0.1740  0.0746  0.2662
  516loPI   C2A 8248  14.483   6.481   8.815 -0.0186 -0.0458 -0.0797
  516loPI   C3A 8249  14.415   6.292   8.401 -0.2243 -0.2177  0.1808
  516loPI   C4A 8250  14.262   5.934   7.997  0.1079  0.2377 -0.2424
  516loPI   C5A 8251  14.072   5.691   7.789  0.0686 -0.1333 -0.0984
  516loPI   C6A 8252  13.659   5.527   7.681  0.2408 -0.0396 -0.1767
  516loPI   C1B 8253  13.490   6.771   9.284 -0.1219  0.1674 -0.1352
  516loPI   C2B 8254  13.648   6.639   8.926  0.3041  0.3429 -0.1479
  516loPI   C3B 8255  13.887   6.880   8.701 -0.0231  0.1352  0.0376
  516loPI   C4B 8256  14.181   6.787   8.484  0.2380  0.1402  0.1785
  517loPI    C1 8257  16.424   8.871  10.144 -0.0318 -0.0694 -0.0630
  517loPI    C2 8258  16.419   9.072   9.798  0.1425  0.1233  0.0443
  517loPI    C3 8259  16.097   9.076  10.035  0.0258 -0.0020 -0.1100
  517loPI   PO4 8260  16.489   8.602  10.026  0.3008 -0.4071 -0.0662
  517loPI   GL1 8261  16.467   8.553   9.600  0.0406 -0.0161 -0.2039
  517loPI   GL2 8262  16.307   8.479   9.354 -0.2137 -0.0883  0.1993
  517loPI   C1A 8263  16.750   8.875   9.410  0.2934 -0.1509  0.1523
  517loPI   C2A 8264  16.718   9.150   9.053 -0.3704 -0.1650  0.1438
  517loPI   C3A 8265  17.037   9.384   8.895 -0.4033 -0.0516  0.0234
  517loPI   C4A 8266  16.955   9.665   8.495 -0.1460 -0.1183  0.2241
  517loPI   C5A 8267  16.989   9.609   8.066  0.1884  0.2038 -0.0742
  517loPI   C6A 8268  16.912   9.517   7.636 -0.2827 -0.0829 -0.3246
  517loPI   C1B 8269  16.333   8.484   8.926 -0.1539 -0.2750 -0.0504
  517loPI   C2B 8270  16.400   8.405   8.493 -0.1894 -0.0465  0.1392
  517loPI   C3B 8271  16.475   8.354   8.163 -0.3452 -0.0462 -0.1065
  517loPI   C4B 8272  16.753   8.271   7.815 -0.0966  0.1266 -0.2922
  518loPI    C1 8273  18.834  11.999  10.299 -0.0163 -0.1407  0.1075
  518loPI    C2 8274  18.745  11.994  10.689  0.0449  0.0538  0.1248
  518loPI    C3 8275  19.127  12.019  10.572  0.0407 -0.2046  0.0514
  518loPI   PO4 8276  18.711  11.766  10.091  0.1005 -0.0334  0.2219
  518loPI   GL1 8277  18.551  11.762   9.610  0.2327 -0.0960  0.2564
  518loPI   GL2 8278  18.742  11.686   9.324 -0.0669  0.0273 -0.0739
  518loPI   C1A 8279  18.259  11.847   9.234 -0.2751  0.1297  0.2152
  518loPI   C2A 8280  18.079  11.729   8.831 -0.1108 -0.1913  0.0255
  518loPI   C3A 8281  18.000  11.723   8.422 -0.0515 -0.0633 -0.1077
  518loPI   C4A 8282  17.784  11.531   7.980  0.1312  0.1212  0.2410
  518loPI   C5A 8283  17.863  11.771   7.552 -0.2604 -0.1098  0.0481
  518loPI   C6A 8284  17.809  11.668   7.147 -0.1116 -0.1636 -0.4006
  518loPI   C1B 8285  18.580  11.651   8.890  0.2773  0.0459 -0.0378
  518loPI   C2B 8286  18.552  11.312   8.638  0.0758 -0.0598  0.2724
  518loPI   C3B 8287  18.881  11.138   8.439  0.1629  0.2863 -0.0205
  518loPI   C4B 8288  18.965  10.685   8.601  0.2141  0.2138 -0.0796
  519loPI    C1 8289  18.569  18.125  10.021  0.1840 -0.0141 -0.1499
  519loPI    C2 8290  18.650  17.743   9.931 -0.1854 -0.1423  0.0367
  519loPI    C3 8291  18.711  17.878  10.303 -0.0383 -0.0114 -0.0333
  519loPI   PO4 8292  18.758  18.244   9.843  0.0490 -0.1046  0.1028
  519loPI   GL1 8293  18.702  18.603   9.454  0.2566 -0.0564  0.0579
  519loPI   GL2 8294  18.946  18.836   9.431  0.2795  0.0851 -0.2053
  519loPI   C1A 8295  18.747  18.508   9.033 -0.1425 -0.1442  0.3972
  519loPI   C2A 8296  18.760  18.485   8.536 -0.1424 -0.2084  0.3242
  519loPI   C3A 8297  18.652  18.643   8.156  0.0353  0.2949  0.0863
  519loPI   C4A 8298  18.803  18.877   7.789 -0.0159  0.0260  0.0526
  519loPI   C5A 8299  18.963  18.700   7.495 -0.2781 -0.0113 -0.1291
  519loPI   C6A 8300  18.802  18.417   7.214 -0.0714  0.1896 -0.1525
  519loPI   C1B 8301  19.013  18.922   8.976 -0.1828 -0.1391  0.2300
  519loPI   C2B 8302  18.734  19.061   8.655 -0.0477 -0.0072  0.0768
  519loPI   C3B 8303  18.804  19.032   8.273  0.1112 -0.1369 -0.0654
  519loPI   C4B 8304  18.518  19.301   7.976  0.0226 -0.0556 -0.2018
  520loPI    C1 8305   3.038  16.163   9.893 -0.0415 -0.1186  0.0402
  520loPI    C2 8306   2.948  16.441  10.167 -0.1862 -0.1693  0.0445
  520loPI    C3 8307   3.012  16.062  10.279  0.0114 -0.1386  0.0387
  520loPI   PO4 8308   3.185  16.248   9.758 -0.0383 -0.0025 -0.1727
  520loPI   GL1 8309   3.160  16.472   9.365  0.1294 -0.2853  0.1952
  520loPI   GL2 8310   3.087  16.233   9.183  0.0003 -0.2078 -0.0125
  520loPI   C1A 8311   3.325  16.467   8.840  0.0838 -0.0764  0.2131
  520loPI   C2A 8312   3.289  16.527   8.473  0.0644 -0.0423  0.0149
  520loPI   C3A 8313   3.495  16.684   8.208  0.4000 -0.0010  0.1222
  520loPI   C4A 8314   3.620  16.839   7.766  0.1206  0.3243 -0.0752
  520loPI   C5A 8315   3.572  17.181   7.515 -0.0240 -0.3943 -0.0500
  520loPI   C6A 8316   3.787  17.547   7.370 -0.0785 -0.0932 -0.0239
  520loPI   C1B 8317   3.210  15.992   8.797  0.0699 -0.2425  0.1243
  520loPI   C2B 8318   3.350  16.043   8.344  0.2723 -0.2497 -0.2190
  520loPI   C3B 8319   3.485  16.210   7.976  0.1537 -0.1526 -0.2312
  520loPI   C4B 8320   3.340  16.400   7.705  0.0582 -0.1316 -0.3559
  521loPI    C1 8321   5.122   3.832   9.805 -0.2070 -0.0767 -0.1624
  521loPI    C2 8322   5.019   3.854  10.191 -0.4384 -0.1161 -0.2202
  521loPI    C3 8323   5.184   4.170  10.010 -0.1164 -0.1718 -0.0315
  521loPI   PO4 8324   4.983   3.682   9.619  0.0124 -0.0715  0.1568
  521loPI   GL1 8325   4.673   3.631   9.161 -0.3574 -0.0918 -0.4563
  521loPI   GL2 8326   4.388   3.684   9.173  0.2157 -0.1357  0.3507
  521loPI   C1A 8327   4.672   4.012   8.873  0.0716 -0.1576 -0.1595
  521loPI   C2A 8328   4.599   3.943   8.463  0.2154  0.1034  0.2794
  521loPI   C3A 8329   4.558   4.052   8.078  0.4095  0.0483 -0.2071
  521loPI   C4A 8330   4.520   3.977   7.703  0.2618 -0.3865  0.3840
  521loPI   C5A 8331   4.250   3.868   7.530 -0.0885  0.1151  0.0279
  521loPI   C6A 8332   3.859   4.167   7.535  0.1644 -0.0577 -0.3002
  521loPI   C1B 8333   4.370   3.602   8.782  0.2799  0.2356  0.1212
  521loPI   C2B 8334   4.204   3.621   8.404 -0.1030 -0.0571  0.1536
  521loPI   C3B 8335   4.151   3.573   7.970  0.3614 -0.1857  0.2147
  521loPI   C4B 8336   4.204   3.377   7.631  0.1629 -0.2095 -0.2249
  522loPI    C1 8337   3.497   9.915  10.025  0.2644  0.0539 -0.0644
  522loPI    C2 8338   3.623   9.693  10.334  0.1928  0.1413  0.0283
  522loPI    C3 8339   3.338   9.968  10.388  0.0830  0.0634 -0.1445
  522loPI   PO4 8340   3.737   9.937   9.910 -0.0500  0.1500 -0.1931
  522loPI   GL1 8341   4.053   9.785   9.607  0.3962 -0.0365 -0.2046
  522loPI   GL2 8342   4.321   9.598   9.620 -0.0861 -0.1138  0.2227
  522loPI   C1A 8343   4.057   9.578   9.160 -0.1867 -0.1734  0.2527
  522loPI   C2A 8344   4.066   9.533   8.822  0.0004 -0.2113 -0.1273
  522loPI   C3A 8345   4.195   9.669   8.407  0.1712  0.0362  0.2374
  522loPI   C4A 8346   4.412   9.952   8.104  0.2238  0.1334 -0.0028
  522loPI   C5A 8347   4.379  10.064   7.668  0.1382 -0.1269 -0.1795
  522loPI   C6A 8348   4.254  10.054   7.277 -0.0004  0.0823 -0.1826
  522loPI   C1B 8349   4.519   9.720   9.204  0.1455  0.1418  0.0836
  522loPI   C2B 8350   4.653   9.659   8.788  0.0448  0.1939  0.0589
  522loPI   C3B 8351   4.687   9.622   8.345 -0.4022 -0.0040  0.4544
  522loPI   C4B 8352   4.540   9.457   7.975 -0.1832  0.0048  0.1328
  523loPI    C1 8353   7.558  14.342  10.318  0.0063  0.0058 -0.0466
  523loPI    C2 8354   7.177  14.368  10.436  0.0369  0.0061  0.0526
  523loPI    C3 8355   7.469  14.509  10.670  0.0821  0.1976 -0.1170
  523loPI   PO4 8356   7.475  14.346   9.966  0.1926  0.0515 -0.1086
  523loPI   GL1 8357   7.606  14.613   9.688 -0.3158  0.1128 -0.1909
  523loPI   GL2 8358   7.887  14.639   9.527 -0.0735  0.3189 -0.0267
  523loPI   C1A 8359   7.178  14.678   9.435 -0.0871  0.1485  0.2049
  523loPI   C2A 8360   6.772  14.467   9.337 -0.3117 -0.3354  0.2071
  523loPI   C3A 8361   6.622  14.336   8.955  0.2386 -0.1208  0.1575
  523loPI   C4A 8362   6.234  14.281   8.582 -0.1589 -0.2156 -0.1134
  523loPI   C5A 8363   6.142  14.224   8.162  0.1471 -0.2539 -0.1328
  523loPI   C6A 8364   6.168  14.453   7.841 -0.1783  0.0387 -0.2039
  523loPI   C1B 8365   8.134  14.983   9.266 -0.2087 -0.1927  0.1152
  523loPI   C2B 8366   8.528  15.210   9.112  0.1249 -0.0303  0.1327
  523loPI   C3B 8367   8.670  15.397   8.707 -0.1824  0.2273  0.0309
  523loPI   C4B 8368   8.492  15.792   8.763  0.2010  0.3179 -0.3154
  524loPI    C1 8369   3.525   1.915  10.180  0.1412 -0.1458  0.1921
  524loPI    C2 8370   3.456   2.262  10.365 -0.1365 -0.0714 -0.0432
  524loPI    C3 8371   3.283   1.927  10.498 -0.3644 -0.0121 -0.1850
  524loPI   PO4 8372   3.561   1.954   9.922 -0.0587 -0.2345  0.2082
  524loPI   GL1 8373   3.441   1.778   9.600  0.0508  0.0021  0.0896
  524loPI   GL2 8374   3.415   2.169   9.457  0.0356 -0.0256  0.1810
  524loPI   C1A 8375   3.110   1.828   9.172 -0.2256 -0.0263  0.1484
  524loPI   C2A 8376   2.902   1.877   8.789  0.1668  0.2954  0.0346
  524loPI   C3A 8377   3.046   1.947   8.417 -0.0131 -0.4319 -0.0322
  524loPI   C4A 8378   2.974   1.950   7.888 -0.0426  0.3376 -0.2267
  524loPI   C5A 8379   3.007   1.650   7.584  0.2522  0.0239 -0.0892
  524loPI   C6A 8380   3.207   1.584   7.179  0.2281  0.2825  0.1233
  524loPI   C1B 8381   3.297   2.446   9.092  0.1386 -0.0615 -0.2038
  524loPI   C2B 8382   3.111   2.422   8.662  0.0412 -0.4464  0.0641
  524loPI   C3B 8383   3.027   2.427   8.198  0.2583  0.3192  0.1686
  524loPI   C4B 8384   2.879   2.520   7.891 -0.1107  0.1769  0.4832
  525loPI    C1 8385   0.645  17.882  10.237  0.0804  0.1119  0.1139
  525loPI    C2 8386   0.772  18.252  10.324 -0.0153  0.1812 -0.0371
  525loPI    C3 8387   1.007  17.937  10.397  0.0454  0.2669  0.1422
  525loPI   PO4 8388   0.277  18.032  10.111 -0.0486 -0.1036  0.0993
  525loPI   GL1 8389   0.332  17.946   9.686 -0.0702 -0.1373  0.4637
  525loPI   GL2 8390   0.079  18.072   9.458  0.0268 -0.3231 -0.2134
  525loPI   C1A 8391   0.466  17.751   9.338 -0.1601 -0.1116  0.2192
  525loPI   C2A 8392   0.448  17.928   8.949 -0.0342 -0.1483 -0.4659
  525loPI   C3A 8393   0.359  17.761   8.476 -0.0038  0.0680  0.1050
  525loPI   C4A 8394   0.193  17.801   8.064 -0.1223  0.0297 -0.1829
  525loPI   C5A 8395   0.134  17.668   7.765  0.3863 -0.0819  0.0742
  525loPI   C6A 8396   0.297  17.634   7.428 -0.4424 -0.2032 -0.2347
  525loPI   C1B 8397   0.320  18.392   9.240 -0.1685 -0.1348 -0.0994
  525loPI   C2B 8398   0.662  18.337   9.097 -0.1401  0.0022  0.3443
  525loPI   C3B 8399   0.733  18.635   8.844  0.1948  0.0668  0.2713
  525loPI   C4B 8400   0.905  18.450   8.533 -0.0251 -0.0824 -0.0153
  526loPI    C1 8401   5.685  16.923   9.913 -0.1106  0.3595  0.1375
  526loPI    C2 8402   5.640  16.887  10.309  0.0086 -0.2385  0.1055
  526loPI    C3 8403   5.350  16.763  10.063  0.0094 -0.0327 -0.0011
  526loPI   PO4 8404   5.942  16.746   9.868 -0.0046 -0.0960 -0.2664
  526loPI   GL1 8405   6.073  16.843   9.532 -0.0102 -0.1986 -0.0209
  526loPI   GL2 8406   5.724  16.787   9.433  0.3551 -0.2336 -0.0436
  526loPI   C1A 8407   6.153  17.032   9.140 -0.0741 -0.0931 -0.0960
  526loPI   C2A 8408   6.042  17.124   8.600 -0.2987  0.0292  0.0614
  526loPI   C3A 8409   5.881  17.002   8.214 -0.1564  0.0952  0.3072
  526loPI   C4A 8410   5.720  16.498   8.075  0.0114 -0.0650 -0.1894
  526loPI   C5A 8411   5.522  16.232   8.237  0.0476  0.4579  0.1498
  526loPI   C6A 8412   5.204  16.332   8.430 -0.0899  0.2080 -0.1060
  526loPI   C1B 8413   5.869  16.677   8.921  0.3084 -0.2045  0.0028
  526loPI   C2B 8414   6.037  16.635   8.501 -0.2332  0.1087 -0.2809
  526loPI   C3B 8415   6.270  16.476   8.161 -0.1738  0.1123  0.0854
  526loPI   C4B 8416   6.541  16.426   7.805 -0.0002 -0.1102  0.0428
  527loPI    C1 8417   6.415  13.350  10.077  0.3093 -0.0959 -0.2169
  527loPI    C2 8418   6.636  13.101  10.299  0.1643  0.2022  0.2782
  527loPI    C3 8419   6.275  13.215  10.426  0.0612  0.3553 -0.1354
  527loPI   PO4 8420   6.493  13.239   9.817  0.0922  0.1659  0.0939
  527loPI   GL1 8421   6.272  13.331   9.354 -0.0519  0.1465  0.0455
  527loPI   GL2 8422   6.562  13.486   9.349 -0.0306  0.0425  0.2869
  527loPI   C1A 8423   6.343  13.289   8.904 -0.0261 -0.3948 -0.1460
  527loPI   C2A 8424   6.359  13.437   8.505 -0.1390 -0.0846  0.1056
  527loPI   C3A 8425   6.133  13.709   8.201 -0.1560  0.0779 -0.3013
  527loPI   C4A 8426   6.124  13.941   7.769  0.1199 -0.0171  0.0786
  527loPI   C5A 8427   5.809  14.142   7.632  0.0222  0.0077  0.0415
  527loPI   C6A 8428   5.328  14.002   7.680  0.2001 -0.1835  0.0980
  527loPI   C1B 8429   6.834  13.509   8.995 -0.2973 -0.0778 -0.2480
  527loPI   C2B 8430   6.838  13.469   8.593  0.1892  0.2674 -0.1562
  527loPI   C3B 8431   6.836  13.615   8.132  0.4366  0.1095 -0.1211
  527loPI   C4B 8432   6.645  13.564   7.779 -0.2516 -0.0547 -0.2412
  528loPI    C1 8433   8.625  12.686  10.180 -0.0389 -0.0002 -0.1437
  528loPI    C2 8434   8.404  12.435  10.400 -0.1519  0.2463  0.0280
  528loPI    C3 8435   8.387  12.829  10.468  0.2042  0.2834 -0.0796
  528loPI   PO4 8436   8.945  12.580  10.143 -0.1311 -0.1841 -0.0502
  528loPI   GL1 8437   9.265  12.444   9.926  0.0849  0.1110  0.0458
  528loPI   GL2 8438   9.293  12.189   9.777 -0.2372 -0.1909 -0.0765
  528loPI   C1A 8439   9.561  12.573   9.606 -0.0476 -0.0525  0.2216
  528loPI   C2A 8440   9.695  12.793   9.323  0.0410 -0.0654 -0.1802
  528loPI   C3A 8441   9.773  12.908   8.949  0.2161 -0.0971 -0.1627
  528loPI   C4A 8442   9.648  12.833   8.593  0.0276 -0.0240 -0.0057
  528loPI   C5A 8443   9.351  13.077   8.329 -0.4298 -0.2062  0.1992
  528loPI   C6A 8444   9.387  13.193   7.809  0.5417  0.2250  0.0941
  528loPI   C1B 8445   8.940  12.228   9.488  0.1474  0.1283  0.0202
  528loPI   C2B 8446   8.783  12.039   9.085 -0.1718  0.0066 -0.0952
  528loPI   C3B 8447   8.487  12.262   8.722  0.0132 -0.2051  0.1411
  528loPI   C4B 8448   8.533  12.568   8.331 -0.0020 -0.1809  0.1822
  529loPI    C1 8449  11.955   1.338  10.649 -0.2390  0.0931  0.4300
  529loPI    C2 8450  12.012   0.949  10.724 -0.2124  0.0304  0.1006
  529loPI    C3 8451  12.220   1.224  10.926 -0.0857 -0.1333  0.1957
  529loPI   PO4 8452  11.882   1.308  10.334 -0.0654  0.2290 -0.2588
  529loPI   GL1 8453  11.957   1.183   9.967  0.0021 -0.0227 -0.0302
  529loPI   GL2 8454  12.243   1.345   9.827  0.0926 -0.0065  0.1917
  529loPI   C1A 8455  11.885   0.831   9.629 -0.1037 -0.0065  0.2575
  529loPI   C2A 8456  11.834   0.717   9.147  0.4721 -0.3571 -0.1884
  529loPI   C3A 8457  11.842   0.771   8.668  0.0864 -0.0135  0.2912
  529loPI   C4A 8458  12.013   0.521   8.325  0.0264  0.2908  0.2595
  529loPI   C5A 8459  12.032   0.626   7.758 -0.0023 -0.0768  0.1543
  529loPI   C6A 8460  12.330   0.763   7.566 -0.1188  0.1166 -0.0704
  529loPI   C1B 8461  12.103   1.184   9.401 -0.0698  0.2434 -0.0320
  529loPI   C2B 8462  12.255   0.996   9.015  0.1233 -0.3526  0.0896
  529loPI   C3B 8463  12.281   1.022   8.570 -0.0232  0.2151 -0.0663
  529loPI   C4B 8464  12.235   0.938   8.210 -0.1926 -0.1104  0.0379
  530loPI    C1 8465   7.094  15.937  10.168 -0.0147  0.2696 -0.0174
  530loPI    C2 8466   7.028  15.872  10.557 -0.0847 -0.0872 -0.0852
  530loPI    C3 8467   7.398  15.837  10.408 -0.0798 -0.0798 -0.0747
  530loPI   PO4 8468   6.834  15.932  10.046 -0.0764  0.2374  0.0697
  530loPI   GL1 8469   6.676  15.904   9.701  0.0611  0.1146 -0.0051
  530loPI   GL2 8470   6.377  15.855   9.663  0.0018  0.0113  0.3585
  530loPI   C1A 8471   6.869  15.787   9.359  0.0605  0.0866 -0.2668
  530loPI   C2A 8472   7.063  15.608   9.005 -0.3579 -0.3370  0.1187
  530loPI   C3A 8473   7.134  15.321   8.634 -0.1426  0.0572  0.1780
  530loPI   C4A 8474   7.372  15.234   8.264 -0.1080 -0.1124 -0.1058
  530loPI   C5A 8475   7.760  15.236   8.001  0.0825 -0.2967  0.2439
  530loPI   C6A 8476   8.164  15.357   7.968 -0.1137  0.1301  0.0508
  530loPI   C1B 8477   6.436  15.930   9.232  0.2338  0.2677 -0.0114
  530loPI   C2B 8478   6.681  15.890   8.873  0.1950 -0.2315 -0.1511
  530loPI   C3B 8479   6.805  15.710   8.492  0.0187 -0.1584 -0.1686
  530loPI   C4B 8480   6.955  15.411   8.080  0.3431  0.2245 -0.0082
  531loPI    C1 8481  10.757   3.151  10.310  0.4210  0.0653  0.0803
  531loPI    C2 8482  10.646   2.854  10.553  0.1149 -0.0072 -0.1412
  531loPI    C3 8483  10.661   3.230  10.690 -0.0572 -0.0467 -0.0104
  531loPI   PO4 8484  10.772   3.015  10.108  0.0410 -0.0152 -0.1288
  531loPI   GL1 8485  10.507   2.801   9.788  0.1866  0.0128 -0.2518
  531loPI   GL2 8486  10.823   2.793   9.688 -0.1877 -0.0917 -0.0213
  531loPI   C1A 8487  10.408   2.582   9.438 -0.4850  0.2038 -0.0057
  531loPI   C2A 8488  10.210   2.362   9.171  0.2912 -0.0725  0.1115
  531loPI   C3A 8489  10.167   2.306   8.741 -0.1539  0.3442  0.1812
  531loPI   C4A 8490   9.903   2.139   8.454 -0.2089  0.1222 -0.0186
  531loPI   C5A 8491   9.759   1.787   8.255  0.1044  0.0693 -0.0230
  531loPI   C6A 8492   9.580   1.558   7.915  0.2347  0.0451 -0.0604
  531loPI   C1B 8493  10.718   3.029   9.370 -0.1288  0.1279  0.0238
  531loPI   C2B 8494  10.750   3.090   8.885  0.2583 -0.0471  0.2684
  531loPI   C3B 8495  10.829   3.288   8.512 -0.0052  0.2022 -0.1346
  531loPI   C4B 8496  10.616   3.695   8.354  0.0624  0.1944 -0.0011
  532loPI    C1 8497  12.682  18.555  10.894 -0.2623  0.0030 -0.1046
  532loPI    C2 8498  12.330  18.706  11.009 -0.2080  0.0936 -0.0561
  532loPI    C3 8499  12.634  18.686  11.269 -0.2568 -0.2322 -0.0204
  532loPI   PO4 8500  12.677  18.530  10.603 -0.1424 -0.4387  0.0867
  532loPI   GL1 8501  12.742  18.535  10.242 -0.6163 -0.0213  0.0941
  532loPI   GL2 8502  12.726  18.841  10.074 -0.0414  0.4346  0.0018
  532loPI   C1A 8503  13.080  18.425   9.905  0.0020 -0.1995  0.0884
  532loPI   C2A 8504  13.237  18.259   9.545  0.1794 -0.1020 -0.2198
  532loPI   C3A 8505  13.457  18.083   9.265 -0.0201  0.0225  0.2643
  532loPI   C4A 8506  13.676  17.931   8.823 -0.3141  0.4231 -0.3597
  532loPI   C5A 8507  13.836  17.565   8.556  0.1166  0.1638  0.2018
  532loPI   C6A 8508  14.111  17.268   8.355 -0.2308  0.3763  0.1514
  532loPI   C1B 8509  12.517  18.549   9.769 -0.2571  0.2035 -0.0033
  532loPI   C2B 8510  12.408  18.385   9.410 -0.1928 -0.1459  0.1202
  532loPI   C3B 8511  12.109  18.349   9.099 -0.2198  0.0903  0.0464
  532loPI   C4B 8512  11.999  18.517   8.732 -0.0518  0.0558 -0.3009
  533loPI    C1 8513  15.531  18.346  10.615 -0.1345  0.1530  0.1193
  533loPI    C2 8514  15.881  18.198  10.743  0.0709  0.3159 -0.2393
  533loPI    C3 8515  15.778  18.575  10.831 -0.1575  0.1737  0.1235
  533loPI   PO4 8516  15.442  18.119  10.495  0.2029 -0.1553 -0.2043
  533loPI   GL1 8517  15.515  18.098   9.932 -0.0465  0.3677 -0.5600
  533loPI   GL2 8518  15.325  18.318  10.062 -0.0595  0.1259 -0.0173
  533loPI   C1A 8519  15.187  18.010   9.660  0.1285 -0.0460 -0.0125
  533loPI   C2A 8520  14.890  17.727   9.390  0.0031 -0.1354 -0.0946
  533loPI   C3A 8521  14.926  17.548   8.933 -0.3214 -0.4898 -0.2150
  533loPI   C4A 8522  14.911  17.748   8.564  0.3824 -0.1987 -0.4748
  533loPI   C5A 8523  14.712  17.744   8.197  0.3408 -0.4115  0.1344
  533loPI   C6A 8524  14.360  17.994   8.165  0.1044 -0.1288 -0.2141
  533loPI   C1B 8525  15.343  18.525   9.667 -0.1049 -0.0863  0.1695
  533loPI   C2B 8526  15.394  18.387   9.179  0.2430  0.0309  0.1571
  533loPI   C3B 8527  15.565  18.326   8.717 -0.0001 -0.0264 -0.1714
  533loPI   C4B 8528  15.819  18.382   8.287  0.1216  0.6114  0.2241
  534loPI    C1 8529  10.942   9.819  10.559 -0.0215  0.1786 -0.0517
  534loPI    C2 8530  10.836  10.158  10.743  0.1551  0.1619  0.0832
  534loPI    C3 8531  10.907   9.828  10.957  0.0016  0.0436 -0.0463
  534loPI   PO4 8532  10.765   9.815  10.385  0.2619  0.2189  0.4265
  534loPI   GL1 8533  10.638   9.987  10.009  0.0575 -0.4230  0.1876
  534loPI   GL2 8534  10.748  10.286   9.831  0.0236  0.2301  0.1872
  534loPI   C1A 8535  10.644   9.747   9.583  0.0111 -0.1831 -0.2201
  534loPI   C2A 8536  11.029   9.534   9.380  0.0691 -0.0012  0.3140
  534loPI   C3A 8537  11.160   9.420   9.029  0.0666  0.0650  0.1058
  534loPI   C4A 8538  11.040   9.350   8.555 -0.0400 -0.1743  0.0148
  534loPI   C5A 8539  10.901   9.318   8.187 -0.0907  0.1202  0.0241
  534loPI   C6A 8540  10.764   9.216   7.736  0.1541  0.1904  0.1021
  534loPI   C1B 8541  10.705  10.411   9.378 -0.1896 -0.1837  0.1256
  534loPI   C2B 8542  10.628  10.370   8.912  0.1435  0.1243 -0.3464
  534loPI   C3B 8543  10.478  10.322   8.521 -0.1432  0.0712 -0.0222
  534loPI   C4B 8544  10.493  10.586   8.113 -0.1260 -0.1089  0.1797
  535loPI    C1 8545  16.236  13.762  10.376  0.0358 -0.0054  0.2736
  535loPI    C2 8546  16.284  13.527  10.696  0.0830 -0.1811  0.1386
  535loPI    C3 8547  16.177  13.909  10.744 -0.1474 -0.2697  0.3529
  535loPI   PO4 8548  16.491  13.778  10.283  0.0634 -0.0649 -0.0332
  535loPI   GL1 8549  16.432  13.722   9.836  0.0591 -0.2035  0.3420
  535loPI   GL2 8550  16.500  13.399   9.773 -0.0180  0.2369  0.0744
  535loPI   C1A 8551  16.545  13.752   9.396  0.0468 -0.1145 -0.1122
  535loPI   C2A 8552  16.475  13.561   8.953 -0.0904  0.0408  0.0030
  535loPI   C3A 8553  16.468  13.587   8.539 -0.0661  0.0840 -0.1661
  535loPI   C4A 8554  16.411  13.571   8.103 -0.1731  0.0646 -0.3998
  535loPI   C5A 8555  16.129  13.855   7.872 -0.3957  0.3754 -0.1352
  535loPI   C6A 8556  15.709  14.104   7.738  0.0279  0.0042  0.1556
  535loPI   C1B 8557  16.646  13.269   9.375 -0.4815  0.1487  0.0656
  535loPI   C2B 8558  16.904  13.437   9.181 -0.0590 -0.1728  0.0082
  535loPI   C3B 8559  16.969  13.802   9.157  0.0982  0.1446 -0.2135
  535loPI   C4B 8560  17.178  14.209   9.042 -0.0731 -0.0480 -0.1803
  536loPI    C1 8561  18.077  16.523  10.046 -0.1872 -0.1125  0.0880
  536loPI    C2 8562  17.791  16.662  10.289 -0.3650 -0.0525 -0.1520
  536loPI    C3 8563  18.158  16.821  10.300 -0.3622 -0.0731  0.0986
  536loPI   PO4 8564  17.988  16.490   9.801 -0.1659  0.1239 -0.1731
  536loPI   GL1 8565  18.131  16.543   9.321  0.0495 -0.5010 -0.0948
  536loPI   GL2 8566  18.331  16.781   9.339  0.1675 -0.1341  0.5413
  536loPI   C1A 8567  17.986  16.559   8.917  0.0107 -0.2484 -0.2552
  536loPI   C2A 8568  18.081  16.510   8.614  0.0343  0.1755 -0.0318
  536loPI   C3A 8569  18.061  16.410   8.150 -0.1401 -0.2261  0.2417
  536loPI   C4A 8570  18.013  16.228   7.723 -0.0139  0.0060 -0.4448
  536loPI   C5A 8571  18.044  15.974   7.424  0.0040  0.3208  0.0711
  536loPI   C6A 8572  18.228  15.584   7.403  0.2944 -0.3160  0.0196
  536loPI   C1B 8573  18.392  16.842   8.802 -0.0866 -0.2308  0.1522
  536loPI   C2B 8574  18.068  17.005   8.404 -0.3171 -0.1262  0.0466
  536loPI   C3B 8575  17.819  17.264   8.044 -0.2475 -0.2925  0.0369
  536loPI   C4B 8576  17.932  17.747   7.775 -0.0827 -0.2994 -0.2668
  537loPI    C1 8577   9.691   0.329  10.267  0.1489 -0.0288 -0.2066
  537loPI    C2 8578   9.790   0.460  10.632 -0.0511  0.2373 -0.2447
  537loPI    C3 8579   9.802   0.068  10.550 -0.1307  0.1628  0.0860
  537loPI   PO4 8580   9.490   0.452  10.212 -0.1712  0.1214 -0.2545
  537loPI   GL1 8581   9.409   0.801  10.013 -0.0447 -0.1019 -0.1351
  537loPI   GL2 8582   9.055   0.656   9.885 -0.1079  0.3262  0.0132
  537loPI   C1A 8583   9.452   0.978   9.647 -0.3794 -0.0223  0.2697
  537loPI   C2A 8584   9.468   0.997   9.251  0.0241  0.1545 -0.0130
  537loPI   C3A 8585   9.410   1.078   8.830 -0.4205  0.2025  0.0315
  537loPI   C4A 8586   9.207   0.909   8.537 -0.4956 -0.3775 -0.0425
  537loPI   C5A 8587   8.941   0.918   8.217  0.2543  0.0838 -0.3543
  537loPI   C6A 8588   8.831   0.735   7.806 -0.0583 -0.1445  0.0406
  537loPI   C1B 8589   8.971   0.778   9.368  0.0839 -0.0873 -0.0672
  537loPI   C2B 8590   9.234   0.638   9.013 -0.1291 -0.2293 -0.0785
  537loPI   C3B 8591   9.371   0.408   8.576 -0.4272 -0.1465 -0.0098
  537loPI   C4B 8592   9.251   0.536   8.153 -0.2810  0.2626  0.0190
  538loPI    C1 8593   3.483   5.225  10.089 -0.1665  0.2198 -0.0277
  538loPI    C2 8594   3.138   5.023  10.100 -0.1659  0.2165 -0.0683
  538loPI    C3 8595   3.432   4.930  10.354 -0.2555  0.3296  0.0790
  538loPI   PO4 8596   3.576   5.139   9.810 -0.2480 -0.0698  0.0504
  538loPI   GL1 8597   3.650   4.800   9.496 -0.0032 -0.1072 -0.0785
  538loPI   GL2 8598   3.968   4.600   9.596 -0.2042  0.1508 -0.0111
  538loPI   C1A 8599   3.562   4.772   9.070 -0.0340 -0.1774  0.0859
  538loPI   C2A 8600   3.600   4.677   8.666 -0.0716  0.1155 -0.1847
  538loPI   C3A 8601   3.637   4.731   8.173  0.2006 -0.1819  0.1056
  538loPI   C4A 8602   3.523   4.935   7.700  0.0254 -0.1568 -0.1450
  538loPI   C5A 8603   3.619   5.083   7.319  0.0608  0.1886  0.0809
  538loPI   C6A 8604   3.372   4.894   6.956 -0.1701 -0.0752 -0.0823
  538loPI   C1B 8605   4.050   4.615   9.164  0.0888 -0.0882  0.1745
  538loPI   C2B 8606   4.030   4.703   8.748 -0.0106 -0.3868 -0.1963
  538loPI   C3B 8607   4.138   4.578   8.318  0.0853 -0.0449 -0.0908
  538loPI   C4B 8608   4.309   4.478   7.919 -0.0724 -0.1534 -0.0169
  539loPI    C1 8609   2.069  18.586  10.417  0.2049 -0.1498 -0.0843
  539loPI    C2 8610   2.374  18.726  10.635  0.0405  0.1480 -0.0400
  539loPI    C3 8611   2.034  18.936  10.609 -0.2159 -0.2484  0.0287
  539loPI   PO4 8612   2.164  18.524  10.191 -0.1157 -0.1301 -0.0560
  539loPI   GL1 8613   2.308  18.707   9.664 -0.0123  0.0590 -0.1561
  539loPI   GL2 8614   2.615  18.874   9.390  0.0138 -0.2082  0.0373
  539loPI   C1A 8615   2.299  18.507   9.215 -0.1803 -0.0254 -0.2753
  539loPI   C2A 8616   2.227  18.481   8.709 -0.1279  0.4625  0.0123
  539loPI   C3A 8617   2.182  18.500   8.236 -0.1267 -0.0492  0.3044
  539loPI   C4A 8618   1.960  18.352   7.849 -0.0856 -0.0729 -0.0295
  539loPI   C5A 8619   1.710  18.332   7.427 -0.1720 -0.1591 -0.2999
  539loPI   C6A 8620   1.322  18.224   7.302 -0.2109  0.1014 -0.0658
  539loPI   C1B 8621   2.640  18.880   9.005 -0.0894  0.2460 -0.1975
  539loPI   C2B 8622   2.571  18.830   8.606  0.0559  0.0086  0.3881
  539loPI   C3B 8623   2.329  18.991   8.235  0.0593 -0.0972 -0.2314
  539loPI   C4B 8624   2.174  19.234   7.896 -0.3385 -0.4685  0.1296
  540loPI    C1 8625  13.737   3.712   9.901  0.0909  0.0608  0.1072
  540loPI    C2 8626  13.556   3.579  10.233  0.0383 -0.0224  0.0456
  540loPI    C3 8627  13.882   3.809  10.261 -0.0067  0.0285  0.1558
  540loPI   PO4 8628  13.842   3.475   9.797 -0.0316 -0.1940  0.2211
  540loPI   GL1 8629  13.757   3.203   9.464  0.2337  0.0669  0.1720
  540loPI   GL2 8630  13.454   2.961   9.494 -0.0479 -0.1654 -0.1134
  540loPI   C1A 8631  13.631   3.585   9.208  0.0330 -0.0246  0.0120
  540loPI   C2A 8632  13.333   3.802   8.908 -0.0783 -0.0235 -0.0020
  540loPI   C3A 8633  13.204   4.090   8.608 -0.6017  0.2177 -0.2595
  540loPI   C4A 8634  13.055   4.063   8.298 -0.2208  0.2406 -0.0123
  540loPI   C5A 8635  12.844   4.009   8.018  0.0217 -0.1616  0.0637
  540loPI   C6A 8636  12.816   4.007   7.595 -0.0540  0.0551 -0.1135
  540loPI   C1B 8637  13.335   2.756   9.023 -0.0196  0.0662 -0.1344
  540loPI   C2B 8638  13.365   2.923   8.509 -0.3335 -0.1690  0.1012
  540loPI   C3B 8639  13.453   3.127   8.177 -0.2126 -0.2833 -0.1195
  540loPI   C4B 8640  13.794   3.425   8.122 -0.1066 -0.1409 -0.0154
  541loPI    C1 8641  16.082  17.222  10.424  0.0613  0.0058  0.3126
  541loPI    C2 8642  16.071  17.486  10.724 -0.1122  0.0731  0.2484
  541loPI    C3 8643  15.909  17.123  10.771 -0.1057  0.0703  0.2486
  541loPI   PO4 8644  16.007  17.370  10.247  0.0787  0.2010 -0.0677
  541loPI   GL1 8645  15.794  17.456   9.927  0.2300  0.0886 -0.0680
  541loPI   GL2 8646  15.638  17.634   9.784  0.1834  0.0902 -0.1250
  541loPI   C1A 8647  15.744  17.118   9.593  0.1012  0.0216 -0.0760
  541loPI   C2A 8648  15.853  17.005   9.288 -0.1519  0.1324 -0.0900
  541loPI   C3A 8649  15.836  17.050   8.880 -0.1419  0.2168 -0.0765
  541loPI   C4A 8650  15.792  17.288   8.459  0.1848 -0.2405 -0.0145
  541loPI   C5A 8651  15.875  17.386   8.049 -0.1752  0.1592 -0.0675
  541loPI   C6A 8652  15.910  17.245   7.635  0.2981  0.1774  0.1333
  541loPI   C1B 8653  15.592  17.721   9.438 -0.0578 -0.0398  0.1777
  541loPI   C2B 8654  15.464  17.889   9.090  0.1324  0.0294 -0.2086
  541loPI   C3B 8655  15.529  17.792   8.683 -0.2416  0.3569  0.1489
  541loPI   C4B 8656  15.664  17.798   8.264  0.0891 -0.1302  0.2379
  542loPI    C1 8657  16.104   4.760  10.160  0.2090 -0.1644 -0.0601
  542loPI    C2 8658  16.158   4.609  10.527  0.0916 -0.1583 -0.0401
  542loPI    C3 8659  16.461   4.790  10.339  0.1338 -0.1020  0.0809
  542loPI   PO4 8660  16.039   4.542   9.948 -0.1908 -0.1388  0.1924
  542loPI   GL1 8661  15.931   4.392   9.482 -0.2263 -0.4324 -0.0320
  542loPI   GL2 8662  16.003   4.090   9.266 -0.0182  0.3166  0.1688
  542loPI   C1A 8663  15.873   4.610   9.061  0.3005  0.0458  0.5240
  542loPI   C2A 8664  15.827   4.775   8.666 -0.0566  0.1859  0.0456
  542loPI   C3A 8665  15.772   4.721   8.194 -0.0075  0.1687  0.2020
  542loPI   C4A 8666  15.597   4.588   7.759 -0.0365 -0.2939 -0.1411
  542loPI   C5A 8667  15.451   4.394   7.419  0.0592 -0.1124 -0.1468
  542loPI   C6A 8668  15.069   4.358   7.203  0.0232 -0.0061  0.1612
  542loPI   C1B 8669  15.980   3.893   8.827 -0.2701  0.0127  0.1124
  542loPI   C2B 8670  15.934   3.752   8.426 -0.3247  0.1416 -0.2574
  542loPI   C3B 8671  15.932   3.619   7.947 -0.0918  0.1765 -0.1047
  542loPI   C4B 8672  16.052   3.358   7.544 -0.0066 -0.0619  0.4130
  543loPI    C1 8673   1.410  13.162  10.258  0.0604 -0.1962  0.1903
  543loPI    C2 8674   1.046  13.018  10.343 -0.0456 -0.1726 -0.2033
  543loPI    C3 8675   1.112  13.413  10.352 -0.0505 -0.1715 -0.2088
  543loPI   PO4 8676   1.411  13.122   9.968  0.0241  0.2161  0.0812
  543loPI   GL1 8677   1.367  13.121   9.583  0.0394  0.1773  0.0547
  543loPI   GL2 8678   1.108  13.239   9.540 -0.1465 -0.3620  0.2352
  543loPI   C1A 8679   1.701  13.235   9.251 -0.3540  0.0664  0.1236
  543loPI   C2A 8680   1.891  13.471   8.844  0.2408  0.1926 -0.0821
  543loPI   C3A 8681   1.931  13.680   8.541 -0.0151  0.4023 -0.1834
  543loPI   C4A 8682   1.741  13.662   8.150  0.2214 -0.0429  0.1326
  543loPI   C5A 8683   1.880  13.438   7.859 -0.1824  0.2173 -0.0487
  543loPI   C6A 8684   2.129  13.606   7.482 -0.0587  0.0273 -0.0483
  543loPI   C1B 8685   1.262  13.510   9.178  0.0527  0.2264 -0.1273
  543loPI   C2B 8686   1.051  13.864   8.965  0.4254  0.1681 -0.3495
  543loPI   C3B 8687   0.795  14.016   8.618 -0.0054  0.3130  0.0699
  543loPI   C4B 8688   0.406  14.186   8.369 -0.0418  0.2321 -0.2271
  544loPI    C1 8689   8.425   3.304  10.190 -0.0728  0.0125 -0.1267
  544loPI    C2 8690   8.241   3.508  10.481  0.0522  0.1731 -0.1583
  544loPI    C3 8691   8.638   3.528  10.443  0.0681 -0.0905 -0.1531
  544loPI   PO4 8692   8.255   3.208  10.051 -0.2429 -0.2329 -0.0319
  544loPI   GL1 8693   8.208   3.003   9.556 -0.1060  0.3909 -0.1430
  544loPI   GL2 8694   8.539   2.955   9.685  0.1803  0.0898 -0.1886
  544loPI   C1A 8695   7.940   2.857   9.230  0.2168 -0.0243  0.1745
  544loPI   C2A 8696   7.829   2.856   8.850  0.0107 -0.0529 -0.0747
  544loPI   C3A 8697   8.027   2.668   8.519  0.0371  0.0082  0.2431
  544loPI   C4A 8698   8.230   2.550   8.054 -0.0260  0.0059  0.0115
  544loPI   C5A 8699   8.652   2.630   7.946 -0.1316 -0.0142 -0.1266
  544loPI   C6A 8700   9.045   2.262   7.932  0.1350  0.2060  0.0451
  544loPI   C1B 8701   8.887   3.192   9.383  0.0294 -0.2822 -0.1556
  544loPI   C2B 8702   9.134   3.281   8.976  0.2690  0.1070 -0.4495
  544loPI   C3B 8703   9.442   3.535   8.848 -0.0387 -0.1363 -0.2530
  544loPI   C4B 8704   9.831   3.617   8.599 -0.0010 -0.1504 -0.0094
  545loPI    C1 8705   6.255  16.367  10.073 -0.1715 -0.0824  0.1223
  545loPI    C2 8706   6.346  16.333  10.461  0.0753  0.0671  0.0799
  545loPI    C3 8707   6.186  16.672  10.323  0.0417  0.0353  0.0405
  545loPI   PO4 8708   6.497  16.271   9.964  0.0784 -0.1446  0.1509
  545loPI   GL1 8709   6.681  16.407   9.503 -0.2267  0.3945  0.2575
  545loPI   GL2 8710   6.505  16.733   9.363  0.2581 -0.2711 -0.1056
  545loPI   C1A 8711   6.896  16.222   9.188 -0.1051 -0.0650 -0.1717
  545loPI   C2A 8712   7.091  16.176   8.816  0.0533  0.2992  0.5493
  545loPI   C3A 8713   6.977  16.337   8.476 -0.2553 -0.1200  0.1404
  545loPI   C4A 8714   6.962  16.425   8.060  0.1347 -0.1521  0.3089
  545loPI   C5A 8715   7.244  16.424   7.600  0.2748  0.2026 -0.0509
  545loPI   C6A 8716   7.684  16.546   7.509 -0.0656 -0.1209 -0.0412
  545loPI   C1B 8717   6.351  16.463   9.013  0.2695  0.1440  0.1122
  545loPI   C2B 8718   6.471  16.305   8.586  0.1473 -0.0189  0.1269
  545loPI   C3B 8719   6.603  16.089   8.213 -0.3357  0.1985  0.1387
  545loPI   C4B 8720   6.669  15.912   7.766  0.0823  0.0460 -0.1115
  546loPI    C1 8721   0.229   0.315  10.107  0.0734 -0.0771  0.0478
  546loPI    C2 8722   0.162   0.476  10.467 -0.0361  0.0507 -0.0288
  546loPI    C3 8723   0.508   0.544  10.279 -0.0993  0.2342 -0.0799
  546loPI   PO4 8724   0.022   0.395   9.847  0.4531  0.2287  0.0279
  546loPI   GL1 8725  -0.007   0.464   9.424 -0.0161  0.2047  0.1388
  546loPI   GL2 8726   0.323   0.441   9.368  0.0945  0.1326  0.3785
  546loPI   C1A 8727  -0.135   0.586   8.961  0.1998  0.0917  0.3092
  546loPI   C2A 8728  -0.379   0.694   8.595  0.3229  0.1728  0.2829
  546loPI   C3A 8729  -0.363   1.090   8.431  0.0583 -0.0161  0.2483
  546loPI   C4A 8730  -0.463   1.254   8.026  0.0630  0.0455 -0.1871
  546loPI   C5A 8731  -0.713   1.174   7.700 -0.3244 -0.2156 -0.0861
  546loPI   C6A 8732  -0.868   0.909   7.335  0.1266 -0.1099 -0.0760
  546loPI   C1B 8733   0.378   0.649   9.002 -0.0319 -0.1524  0.3636
  546loPI   C2B 8734   0.223   0.831   8.584 -0.1666  0.2785  0.1633
  546loPI   C3B 8735  -0.045   0.715   8.234  0.2681 -0.0861  0.3055
  546loPI   C4B 8736  -0.154   0.871   7.936  0.1504  0.1505 -0.2422
  547loPI    C1 8737   9.489   3.367  10.168 -0.0069 -0.0854 -0.2295
  547loPI    C2 8738   9.849   3.273  10.315 -0.0367  0.2988  0.1095
  547loPI    C3 8739   9.518   3.162  10.511 -0.1027  0.0931 -0.1128
  547loPI   PO4 8740   9.494   3.407   9.965  0.0151 -0.0215  0.2926
  547loPI   GL1 8741   9.239   3.450   9.563 -0.3782  0.0409 -0.1939
  547loPI   GL2 8742   8.977   3.666   9.443 -0.1370 -0.0704 -0.2766
  547loPI   C1A 8743   9.358   2.984   9.453 -0.1479 -0.0614 -0.0424
  547loPI   C2A 8744   9.381   2.888   9.063  0.0595  0.0475 -0.1595
  547loPI   C3A 8745   9.429   2.986   8.664 -0.1323  0.0003 -0.1611
  547loPI   C4A 8746   9.409   3.327   8.381  0.1824 -0.1577  0.1488
  547loPI   C5A 8747   9.143   3.559   7.986 -0.2539 -0.0365  0.0624
  547loPI   C6A 8748   8.651   3.614   7.652 -0.2191  0.0301  0.0359
  547loPI   C1B 8749   8.714   3.617   9.126 -0.0831 -0.2938  0.1189
  547loPI   C2B 8750   8.495   3.860   8.765 -0.2475  0.2227  0.2355
  547loPI   C3B 8751   8.415   3.835   8.329  0.0935  0.1937  0.0359
  547loPI   C4B 8752   8.795   3.933   7.996  0.2114 -0.2143 -0.0120
  548loPI    C1 8753   5.089  15.125   9.995 -0.1671  0.0050 -0.0065
  548loPI    C2 8754   4.856  15.378  10.199  0.0127  0.2774 -0.1337
  548loPI    C3 8755   5.241  15.334  10.301 -0.0655 -0.0998  0.0156
  548loPI   PO4 8756   5.111  15.165   9.808  0.1406  0.1778  0.1209
  548loPI   GL1 8757   5.348  15.109   9.472 -0.0225  0.0058  0.2591
  548loPI   GL2 8758   5.689  14.982   9.493 -0.2878 -0.0200 -0.1171
  548loPI   C1A 8759   5.504  15.183   9.096  0.0904 -0.0663 -0.1176
  548loPI   C2A 8760   5.709  15.094   8.729  0.1173  0.1654 -0.0064
  548loPI   C3A 8761   5.579  14.964   8.371 -0.1439 -0.2450  0.1043
  548loPI   C4A 8762   5.510  14.863   7.901  0.1042  0.3828 -0.0386
  548loPI   C5A 8763   5.372  14.594   7.565  0.3046 -0.1136  0.1187
  548loPI   C6A 8764   5.095  14.627   7.216  0.1094 -0.0953  0.0837
  548loPI   C1B 8765   5.718  14.703   9.205  0.3873  0.3351  0.0619
  548loPI   C2B 8766   5.738  14.491   8.896  0.0818 -0.0035  0.2607
  548loPI   C3B 8767   5.704  14.475   8.453  0.0024  0.1449 -0.0923
  548loPI   C4B 8768   5.525  14.352   7.996 -0.1530  0.0441 -0.2235
  549loPI    C1 8769   2.362   9.422   9.648  0.0343  0.0825  0.0283
  549loPI    C2 8770   1.975   9.393   9.743  0.0183  0.0868 -0.0351
  549loPI    C3 8771   2.251   9.215   9.972 -0.0206  0.0881  0.0131
  549loPI   PO4 8772   2.341   9.315   9.325 -0.4975  0.1350  0.2097
  549loPI   GL1 8773   2.636   9.093   8.986  0.2027 -0.1364 -0.3046
  549loPI   GL2 8774   2.734   9.369   9.047  0.0879 -0.1808  0.2859
  549loPI   C1A 8775   2.760   8.772   8.692 -0.2913  0.1991 -0.0749
  549loPI   C2A 8776   2.775   8.571   8.309  0.2639 -0.0522  0.0149
  549loPI   C3A 8777   2.734   8.282   8.054  0.2825 -0.2847  0.2254
  549loPI   C4A 8778   2.549   8.007   7.944 -0.0354  0.2354 -0.3642
  549loPI   C5A 8779   2.458   7.701   7.525  0.0612  0.0797  0.0171
  549loPI   C6A 8780   2.839   7.384   7.480 -0.2321 -0.1338 -0.0823
  549loPI   C1B 8781   3.099   9.318   8.709  0.1377 -0.1314  0.0717
  549loPI   C2B 8782   3.353   9.374   8.325 -0.1830  0.1731 -0.0358
  549loPI   C3B 8783   3.753   9.377   8.233 -0.0113  0.0370  0.0495
  549loPI   C4B 8784   4.005   9.551   7.900  0.0992  0.0439  0.1551
  550loPI    C1 8785   0.078  12.580   9.801  0.1200  0.2803  0.1437
  550loPI    C2 8786  -0.012  12.477  10.177  0.1590 -0.1858  0.0314
  550loPI    C3 8787   0.354  12.406  10.033  0.0209 -0.3982 -0.2228
  550loPI   PO4 8788  -0.034  12.532   9.640 -0.1897 -0.1145 -0.0504
  550loPI   GL1 8789  -0.089  12.321   9.264  0.3814 -0.2333  0.2411
  550loPI   GL2 8790  -0.237  12.613   9.174 -0.1269  0.1877  0.0850
  550loPI   C1A 8791  -0.240  12.107   9.040 -0.3499 -0.4880 -0.0624
  550loPI   C2A 8792  -0.521  12.133   8.703 -0.2082 -0.2990 -0.1151
  550loPI   C3A 8793  -0.630  12.188   8.378 -0.0078  0.0579 -0.1100
  550loPI   C4A 8794  -0.635  11.939   7.922 -0.3430  0.0934 -0.1297
  550loPI   C5A 8795  -0.481  11.679   7.656  0.0904 -0.0640 -0.0168
  550loPI   C6A 8796  -0.124  11.549   7.654  0.4541  0.3221  0.1926
  550loPI   C1B 8797   0.032  12.778   8.928 -0.0574 -0.0931  0.3167
  550loPI   C2B 8798   0.143  12.720   8.509 -0.2319 -0.1375 -0.1144
  550loPI   C3B 8799   0.047  12.419   8.218  0.0551 -0.2022 -0.0917
  550loPI   C4B 8800  -0.109  12.012   8.011 -0.0068 -0.1702 -0.1692
  551loPI    C1 8801  14.835  13.870  10.596  0.3437 -0.1729  0.0297
  551loPI    C2 8802  14.651  13.590  10.378 -0.0376  0.0274  0.0859
  551loPI    C3 8803  14.846  13.488  10.712 -0.0915 -0.1826  0.0547
  551loPI   PO4 8804  15.067  13.945  10.462  0.1096 -0.2756 -0.0964
  551loPI   GL1 8805  15.158  14.076  10.011  0.0256  0.0125  0.0377
  551loPI   GL2 8806  15.574  14.117   9.905  0.1090  0.0673 -0.0997
  551loPI   C1A 8807  15.245  14.199   9.564  0.0343  0.1695  0.0160
  551loPI   C2A 8808  15.336  14.325   9.090  0.1464  0.1329  0.1179
  551loPI   C3A 8809  15.116  14.262   8.748  0.2712 -0.0334 -0.2363
  551loPI   C4A 8810  15.168  14.373   8.260  0.1761  0.2117 -0.0683
  551loPI   C5A 8811  15.046  14.566   8.027 -0.1695 -0.0883 -0.0565
  551loPI   C6A 8812  14.752  15.030   8.127  0.4108 -0.2834  0.3229
  551loPI   C1B 8813  15.709  14.256   9.485 -0.0050  0.0445 -0.1083
  551loPI   C2B 8814  15.833  14.173   9.108  0.1408 -0.1701  0.1058
  551loPI   C3B 8815  15.852  14.343   8.795 -0.0793  0.1760 -0.0980
  551loPI   C4B 8816  15.578  14.436   8.512 -0.1719  0.0611  0.4096
  552loPI    C1 8817   5.476  17.801  10.204  0.1073 -0.0289 -0.1015
  552loPI    C2 8818   5.446  18.164  10.369 -0.0587 -0.0433 -0.0978
  552loPI    C3 8819   5.736  17.914  10.486 -0.1286 -0.0252  0.1174
  552loPI   PO4 8820   5.456  17.890   9.900  0.0434 -0.4482  0.1744
  552loPI   GL1 8821   5.316  18.093   9.540 -0.2322 -0.0066 -0.0718
  552loPI   GL2 8822   5.021  18.136   9.362 -0.3108  0.2241  0.0627
  552loPI   C1A 8823   5.706  17.814   9.309 -0.0421  0.0469  0.0279
  552loPI   C2A 8824   5.815  17.549   8.883 -0.0236 -0.1323  0.1753
  552loPI   C3A 8825   5.755  17.492   8.448 -0.1204 -0.5593 -0.0598
  552loPI   C4A 8826   5.558  17.551   8.042  0.4692  0.0078  0.0070
  552loPI   C5A 8827   5.549  17.853   7.804 -0.0473 -0.2753  0.3566
  552loPI   C6A 8828   5.614  18.163   7.591 -0.2148  0.2458  0.0232
  552loPI   C1B 8829   5.127  18.107   8.985  0.1903 -0.1265 -0.0948
  552loPI   C2B 8830   5.197  18.217   8.597  0.1227 -0.1635  0.0059
  552loPI   C3B 8831   4.997  18.372   8.262 -0.0912 -0.0195 -0.5035
  552loPI   C4B 8832   5.324  18.429   7.948 -0.0175 -0.2404  0.0275
  553loPI    C1 8833  16.984   5.941   9.666 -0.0269 -0.0477 -0.1762
  553loPI    C2 8834  16.869   6.067  10.028  0.0947  0.2074 -0.2239
  553loPI    C3 8835  17.100   6.300   9.800  0.1655 -0.0263 -0.3946
  553loPI   PO4 8836  17.016   5.724   9.631  0.4170  0.0969 -0.3059
  553loPI   GL1 8837  17.218   5.462   9.297 -0.1633  0.0447  0.3159
  553loPI   GL2 8838  17.434   5.653   9.317  0.2846  0.1316  0.2505
  553loPI   C1A 8839  16.987   5.334   8.950 -0.0019 -0.3419  0.3448
  553loPI   C2A 8840  16.827   5.077   8.601  0.1058 -0.1932 -0.3018
  553loPI   C3A 8841  16.744   5.186   8.158 -0.3322  0.2427 -0.0542
  553loPI   C4A 8842  16.877   5.165   7.735  0.0243 -0.0508  0.1676
  553loPI   C5A 8843  16.833   5.516   7.444  0.5531  0.0011  0.0157
  553loPI   C6A 8844  16.666   5.967   7.345  0.2334  0.1230 -0.3034
  553loPI   C1B 8845  17.495   5.503   8.881 -0.1158  0.4118  0.0123
  553loPI   C2B 8846  17.273   5.382   8.469 -0.0620 -0.1651 -0.0862
  553loPI   C3B 8847  17.111   5.492   8.085  0.0807 -0.1837 -0.3522
  553loPI   C4B 8848  17.256   5.723   7.752 -0.0689 -0.2345  0.1275
  554loPI    C1 8849   8.078  12.009  10.251  0.0972  0.0444  0.0692
  554loPI    C2 8850   7.758  11.780  10.177  0.1810 -0.0241 -0.0837
  554loPI    C3 8851   7.819  11.925  10.545  0.0959 -0.1990  0.0006
  554loPI   PO4 8852   8.132  12.077   9.958  0.3136  0.0142  0.0874
  554loPI   GL1 8853   8.035  12.344   9.646  0.3177 -0.0452 -0.1053
  554loPI   GL2 8854   8.362  12.412   9.547  0.2684 -0.0270 -0.1908
  554loPI   C1A 8855   8.084  12.026   9.238  0.1960 -0.0300 -0.0847
  554loPI   C2A 8856   8.005  11.988   8.819 -0.1030  0.1874 -0.1608
  554loPI   C3A 8857   7.829  12.021   8.379 -0.0587 -0.0380 -0.2629
  554loPI   C4A 8858   7.799  11.742   8.011  0.2994 -0.2680 -0.2631
  554loPI   C5A 8859   7.499  11.771   7.613  0.1558 -0.0049  0.0117
  554loPI   C6A 8860   7.457  12.221   7.362  0.0971 -0.1953 -0.1540
  554loPI   C1B 8861   8.385  12.458   9.148  0.0070 -0.3200 -0.1168
  554loPI   C2B 8862   8.387  12.765   8.798  0.0007  0.0568 -0.1388
  554loPI   C3B 8863   8.393  13.192   8.605  0.2061  0.2533  0.2554
  554loPI   C4B 8864   8.141  13.530   8.621 -0.2910  0.0435 -0.0536
  555loPI    C1 8865  11.907   6.987  10.757  0.1019  0.1211  0.0908
  555loPI    C2 8866  12.177   6.982  11.053 -0.0922  0.2598  0.2726
  555loPI    C3 8867  11.794   6.892  11.129 -0.0246 -0.3700 -0.0651
  555loPI   PO4 8868  12.003   6.878  10.526  0.0233 -0.2286  0.2026
  555loPI   GL1 8869  11.928   6.759  10.076 -0.2464 -0.3510  0.1733
  555loPI   GL2 8870  12.284   6.884   9.863 -0.0563 -0.1672 -0.2349
  555loPI   C1A 8871  11.791   6.692   9.633 -0.0268  0.1596  0.0878
  555loPI   C2A 8872  11.713   6.446   9.179  0.2973  0.1574 -0.0761
  555loPI   C3A 8873  11.601   6.099   8.912 -0.2456 -0.0555 -0.3774
  555loPI   C4A 8874  11.573   6.220   8.617  0.0299 -0.1064 -0.0569
  555loPI   C5A 8875  11.524   5.942   8.268 -0.4452  0.0543  0.0884
  555loPI   C6A 8876  11.378   5.880   7.852  0.1286 -0.0098 -0.0474
  555loPI   C1B 8877  12.267   6.637   9.463 -0.0440 -0.2710  0.2700
  555loPI   C2B 8878  12.099   6.673   9.059 -0.0202 -0.1532  0.1639
  555loPI   C3B 8879  11.903   6.652   8.613  0.0568  0.1517  0.0496
  555loPI   C4B 8880  11.913   6.412   8.258 -0.0828  0.2257 -0.0763
  556loPI    C1 8881  15.344   2.117  10.174 -0.0353  0.1698  0.1535
  556loPI    C2 8882  15.715   2.194  10.045 -0.0102 -0.0397  0.0979
  556loPI    C3 8883  15.631   2.211  10.436  0.0329  0.1082  0.1011
  556loPI   PO4 8884  15.234   1.988  10.078 -0.0006 -0.0979  0.0289
  556loPI   GL1 8885  15.384   1.857   9.713 -0.0695  0.4147 -0.2351
  556loPI   GL2 8886  15.051   1.972   9.629 -0.0124 -0.2878 -0.0121
  556loPI   C1A 8887  15.474   1.825   9.239 -0.0745 -0.1519  0.0311
  556loPI   C2A 8888  15.469   1.870   8.865  0.0664 -0.0235 -0.1065
  556loPI   C3A 8889  15.361   1.748   8.456 -0.0049 -0.0140  0.0959
  556loPI   C4A 8890  15.595   1.697   8.021  0.2518  0.0134 -0.1456
  556loPI   C5A 8891  15.549   1.388   7.584 -0.0563  0.0074 -0.1993
  556loPI   C6A 8892  15.451   1.341   7.145  0.1513 -0.0613  0.1098
  556loPI   C1B 8893  14.838   2.193   9.395 -0.1101 -0.1463 -0.1406
  556loPI   C2B 8894  14.781   2.506   9.048  0.3534 -0.0865  0.0392
  556loPI   C3B 8895  14.841   2.778   8.779 -0.0692  0.1501  0.1929
  556loPI   C4B 8896  14.900   2.770   8.326 -0.0227  0.0574  0.1107
  557loPI    C1 8897   4.287   8.136   9.929 -0.0082  0.3479  0.3050
  557loPI    C2 8898   4.675   8.127   9.831 -0.0200 -0.2714  0.2740
  557loPI    C3 8899   4.559   8.298  10.174  0.2225  0.3013  0.0840
  557loPI   PO4 8900   4.193   7.946   9.800 -0.0132 -0.5145 -0.0395
  557loPI   GL1 8901   4.272   7.947   9.398 -0.0434  0.1293 -0.0687
  557loPI   GL2 8902   3.991   8.072   9.395  0.1167 -0.0088 -0.0914
  557loPI   C1A 8903   4.493   7.674   9.057  0.1445 -0.0102 -0.1001
  557loPI   C2A 8904   4.486   7.570   8.561 -0.0076 -0.0343  0.1663
  557loPI   C3A 8905   4.527   7.471   8.179  0.0299  0.0569  0.2605
  557loPI   C4A 8906   4.711   7.424   7.750 -0.0052 -0.0321  0.0472
  557loPI   C5A 8907   4.926   7.693   7.497 -0.0296 -0.1987  0.1223
  557loPI   C6A 8908   4.943   8.122   7.514  0.2113 -0.0051 -0.0814
  557loPI   C1B 8909   4.040   8.126   9.013  0.0280  0.0924 -0.1083
  557loPI   C2B 8910   4.368   8.053   8.647  0.0469  0.1880 -0.1765
  557loPI   C3B 8911   4.516   8.176   8.445 -0.0653 -0.2620  0.1735
  557loPI   C4B 8912   4.638   8.054   8.012  0.0355  0.0475 -0.2280
  558loPI    C1 8913  15.150   8.748  10.088  0.0845 -0.2147 -0.0231
  558loPI    C2 8914  15.019   8.898  10.435 -0.0284 -0.0942 -0.1161
  558loPI    C3 8915  15.411   8.848  10.373  0.0287  0.3681 -0.1624
  558loPI   PO4 8916  15.034   8.894   9.889 -0.0902  0.1734  0.0613
  558loPI   GL1 8917  15.080   8.961   9.522  0.1151  0.0551 -0.1855
  558loPI   GL2 8918  15.394   8.980   9.464 -0.2244  0.0948  0.3481
  558loPI   C1A 8919  15.105   9.265   9.041 -0.1427  0.0797 -0.1885
  558loPI   C2A 8920  15.280   9.239   8.685  0.0987  0.0387  0.2218
  558loPI   C3A 8921  15.081   9.212   8.283 -0.4511  0.4531  0.0863
  558loPI   C4A 8922  15.185   9.442   7.946 -0.0823 -0.0449  0.0066
  558loPI   C5A 8923  15.329   9.534   7.526 -0.4177 -0.1809 -0.0002
  558loPI   C6A 8924  15.403   9.512   7.089 -0.1856  0.0210 -0.1714
  558loPI   C1B 8925  15.651   9.050   9.095  0.1483 -0.0882  0.2175
  558loPI   C2B 8926  15.820   9.203   8.691  0.0791  0.0627  0.2284
  558loPI   C3B 8927  16.022   9.133   8.407 -0.2898  0.2893  0.1527
  558loPI   C4B 8928  16.095   9.245   7.983  0.1740 -0.0957  0.0875
  559loPI    C1 8929  14.856   8.312   9.968 -0.3453  0.0530 -0.1001
  559loPI    C2 8930  14.678   8.614  10.162  0.1044  0.2617  0.0023
  559loPI    C3 8931  14.689   8.249  10.326 -0.2111  0.2476 -0.0013
  559loPI   PO4 8932  14.928   8.392   9.704 -0.1765  0.0869  0.1297
  559loPI   GL1 8933  14.717   8.337   9.404 -0.0522  0.0731  0.0275
  559loPI   GL2 8934  14.744   7.967   9.370 -0.0867 -0.2176 -0.1818
  559loPI   C1A 8935  14.759   8.287   8.985  0.0571  0.1216  0.1690
  559loPI   C2A 8936  14.707   8.134   8.614 -0.2657 -0.0866  0.0085
  559loPI   C3A 8937  14.764   8.165   8.084  0.2203  0.0963 -0.1074
  559loPI   C4A 8938  14.803   7.809   7.667  0.1018  0.1541  0.0464
  559loPI   C5A 8939  14.655   7.411   7.650  0.0610  0.1240 -0.0457
  559loPI   C6A 8940  14.707   6.827   7.659  0.5516 -0.3610 -0.2431
  559loPI   C1B 8941  14.521   7.776   8.977  0.3793  0.0716  0.1514
  559loPI   C2B 8942  14.296   7.787   8.508 -0.0108 -0.0689  0.4289
  559loPI   C3B 8943  14.146   7.803   8.143 -0.0601  0.4251 -0.3348
  559loPI   C4B 8944  14.084   7.606   7.734  0.0596  0.0635 -0.2750
  560loPI    C1 8945   2.961  12.952  10.055  0.0168 -0.3990  0.0831
  560loPI    C2 8946   2.834  12.641  10.273 -0.2213 -0.2056  0.2258
  560loPI    C3 8947   2.851  13.006  10.436 -0.0459 -0.1231  0.0281
  560loPI   PO4 8948   2.881  12.820   9.775  0.1914 -0.2494  0.1461
  560loPI   GL1 8949   2.950  12.782   9.283  0.0291  0.0402 -0.0974
  560loPI   GL2 8950   3.255  12.758   9.244  0.1876 -0.2105 -0.1479
  560loPI   C1A 8951   2.993  12.660   8.880 -0.0352  0.3331 -0.2729
  560loPI   C2A 8952   3.030  12.772   8.498  0.3467 -0.0956  0.1037
  560loPI   C3A 8953   3.005  12.631   8.020  0.4064 -0.3425 -0.0213
  560loPI   C4A 8954   3.207  12.899   7.761  0.1342 -0.2223 -0.1121
  560loPI   C5A 8955   3.290  13.263   7.553  0.1061  0.2655 -0.1432
  560loPI   C6A 8956   3.497  13.610   7.699 -0.3561 -0.0709 -0.1782
  560loPI   C1B 8957   3.495  13.001   8.972  0.1377 -0.0655 -0.3782
  560loPI   C2B 8958   3.523  13.116   8.532  0.1246  0.0038 -0.3126
  560loPI   C3B 8959   3.438  13.117   8.159 -0.0633 -0.2441  0.1403
  560loPI   C4B 8960   3.718  13.127   7.748 -0.1226  0.1809 -0.1796
  561loPI    C1 8961   6.152   2.134  10.233  0.0359  0.1568 -0.1062
  561loPI    C2 8962   5.877   2.408  10.329  0.0369  0.0777  0.1268
  561loPI    C3 8963   6.259   2.463  10.433  0.0838  0.1141 -0.0613
  561loPI   PO4 8964   6.083   2.058   9.911 -0.1481 -0.0633 -0.1177
  561loPI   GL1 8965   6.163   1.717   9.608 -0.2364 -0.3737 -0.1114
  561loPI   GL2 8966   5.974   1.569   9.407  0.3170 -0.1807  0.0595
  561loPI   C1A 8967   6.287   1.882   9.110 -0.2987  0.1582 -0.2173
  561loPI   C2A 8968   6.456   1.870   8.699  0.0749  0.0565  0.2601
  561loPI   C3A 8969   6.343   1.805   8.246 -0.0488  0.0842 -0.1516
  561loPI   C4A 8970   6.231   1.643   7.861  0.2011 -0.1401 -0.0430
  561loPI   C5A 8971   5.880   1.774   7.678  0.0142 -0.0168  0.1541
  561loPI   C6A 8972   5.815   2.037   7.384  0.2331 -0.0920 -0.2226
  561loPI   C1B 8973   5.781   1.823   9.029  0.0284 -0.0558 -0.0860
  561loPI   C2B 8974   5.956   1.891   8.606 -0.1852 -0.1582 -0.0693
  561loPI   C3B 8975   5.847   1.907   8.172  0.2344 -0.0560  0.0264
  561loPI   C4B 8976   5.955   2.238   7.855 -0.3453 -0.1125 -0.0352
  562loPI    C1 8977  15.291  15.932  10.556  0.0389  0.0772  0.2201
  562loPI    C2 8978  15.085  16.245  10.696 -0.0948  0.1640 -0.1600
  562loPI    C3 8979  15.484  16.239  10.724 -0.1149  0.2053  0.1655
  562loPI   PO4 8980  15.150  15.900  10.304  0.1310  0.3037  0.0066
  562loPI   GL1 8981  15.154  15.922   9.912 -0.0864 -0.5672 -0.0160
  562loPI   GL2 8982  15.534  15.786  10.005  0.1048  0.0731  0.5152
  562loPI   C1A 8983  14.948  15.565   9.636 -0.0327 -0.3007 -0.2753
  562loPI   C2A 8984  15.055  15.570   9.214  0.3173 -0.2363 -0.0239
  562loPI   C3A 8985  14.987  15.733   8.802  0.0533  0.1389 -0.0167
  562loPI   C4A 8986  15.217  15.937   8.415  0.0829 -0.1443  0.0933
  562loPI   C5A 8987  15.536  15.795   8.073 -0.0658  0.0076  0.2246
  562loPI   C6A 8988  15.660  15.588   7.686  0.3153  0.1692 -0.0005
  562loPI   C1B 8989  15.533  15.649   9.611  0.2652 -0.2772  0.0576
  562loPI   C2B 8990  15.733  15.565   9.160 -0.0658  0.1249  0.1770
  562loPI   C3B 8991  15.882  15.412   8.771 -0.0241  0.1157 -0.0835
  562loPI   C4B 8992  16.226  15.135   8.565 -0.2155  0.1511  0.1994
  563loPI    C1 8993  16.350   3.326  10.135 -0.2326 -0.1978 -0.0971
  563loPI    C2 8994  16.534   3.473  10.459 -0.0814  0.0781 -0.3038
  563loPI    C3 8995  16.364   3.111  10.472 -0.0848  0.0900  0.0846
  563loPI   PO4 8996  16.102   3.455   9.945  0.1939  0.1676  0.2168
  563loPI   GL1 8997  15.881   3.294   9.560 -0.2769  0.4521  0.1354
  563loPI   GL2 8998  16.084   3.137   9.374 -0.0453 -0.1516  0.1388
  563loPI   C1A 8999  15.575   3.215   9.150 -0.0631  0.0426 -0.4683
  563loPI   C2A 9000  15.566   3.351   8.657 -0.1796 -0.0382 -0.1601
  563loPI   C3A 9001  15.661   3.173   8.285 -0.0564 -0.2669 -0.2134
  563loPI   C4A 9002  15.710   3.093   7.826 -0.4156 -0.2846  0.0727
  563loPI   C5A 9003  15.514   3.298   7.422  0.0808  0.1779  0.2155
  563loPI   C6A 9004  15.463   3.119   7.012 -0.0816  0.0114 -0.1846
  563loPI   C1B 9005  16.034   3.269   8.942 -0.2680  0.0133 -0.2104
  563loPI   C2B 9006  16.073   3.292   8.592 -0.1367 -0.0850 -0.2342
  563loPI   C3B 9007  16.292   3.446   8.236  0.4234  0.1415 -0.1249
  563loPI   C4B 9008  16.490   3.766   7.961 -0.2953 -0.0025  0.1764
  564loPI    C1 9009  10.066   9.179  10.309  0.3046 -0.0294  0.0165
  564loPI    C2 9010  10.019   9.010  10.668  0.4055 -0.2009 -0.0497
  564loPI    C3 9011  10.187   9.371  10.638 -0.1887  0.1037  0.1285
  564loPI   PO4 9012  10.191   9.117  10.184 -0.0646 -0.0590 -0.1895
  564loPI   GL1 9013  10.241   9.176   9.795  0.0739  0.0689  0.3487
  564loPI   GL2 9014  10.611   9.346   9.822  0.2020 -0.0334 -0.0107
  564loPI   C1A 9015   9.989   8.926   9.462  0.0978  0.0011  0.0659
  564loPI   C2A 9016   9.909   8.643   9.300  0.0542  0.3334 -0.0858
  564loPI   C3A 9017   9.995   8.349   8.953 -0.0426  0.0495 -0.3726
  564loPI   C4A 9018   9.925   8.248   8.607  0.2700  0.3832  0.0314
  564loPI   C5A 9019   9.740   7.959   8.269 -0.1682 -0.1561  0.2635
  564loPI   C6A 9020   9.512   7.661   8.131  0.1289  0.1250 -0.2290
  564loPI   C1B 9021  10.472   9.218   9.356  0.0755 -0.2231  0.0198
  564loPI   C2B 9022  10.654   9.456   9.009  0.0684 -0.0450  0.2592
  564loPI   C3B 9023  10.575   9.476   8.602  0.2250  0.1534 -0.3762
  564loPI   C4B 9024  10.367   9.487   8.148  0.1812  0.0032  0.0002
  565loPI    C1 9025  16.038   7.293  10.014 -0.2180  0.2282  0.2651
  565loPI    C2 9026  16.078   6.987  10.269  0.0293  0.1279  0.1098
  565loPI    C3 9027  16.308   7.312  10.309  0.2064  0.0303 -0.0999
  565loPI   PO4 9028  15.982   7.106   9.732 -0.0617  0.2374  0.1864
  565loPI   GL1 9029  16.090   6.913   9.425 -0.1684 -0.0363  0.1107
  565loPI   GL2 9030  16.482   6.820   9.479 -0.0299  0.2253  0.1726
  565loPI   C1A 9031  16.026   6.800   9.080 -0.0356  0.2306  0.3215
  565loPI   C2A 9032  15.793   6.976   8.643 -0.1329 -0.0847 -0.3250
  565loPI   C3A 9033  15.824   7.140   8.265  0.0002  0.2677 -0.0613
  565loPI   C4A 9034  16.192   6.936   8.010  0.1580 -0.0308  0.2974
  565loPI   C5A 9035  16.400   6.795   7.666 -0.1343 -0.0137  0.0439
  565loPI   C6A 9036  16.519   6.931   7.283 -0.4145  0.1952  0.0649
  565loPI   C1B 9037  16.541   6.906   9.043 -0.3230 -0.1290  0.0799
  565loPI   C2B 9038  16.299   7.056   8.715  0.0157 -0.1443 -0.1314
  565loPI   C3B 9039  16.455   7.108   8.404 -0.0870  0.4450  0.0640
  565loPI   C4B 9040  16.616   7.296   8.112 -0.0927 -0.1801  0.2220
  566loPI    C1 9041   6.191   5.756  10.007 -0.1045 -0.0553 -0.1827
  566loPI    C2 9042   6.019   5.651  10.353 -0.0706 -0.2487 -0.2234
  566loPI    C3 9043   6.405   5.569  10.289 -0.0169 -0.0081 -0.2175
  566loPI   PO4 9044   5.882   5.622   9.778  0.1609  0.2560  0.0465
  566loPI   GL1 9045   5.837   5.307   9.505  0.1147 -0.3155  0.0721
  566loPI   GL2 9046   6.040   5.583   9.331 -0.0020 -0.0469 -0.0696
  566loPI   C1A 9047   5.564   5.294   9.094 -0.3776 -0.0865 -0.2930
  566loPI   C2A 9048   5.473   5.350   8.794 -0.2553  0.2398  0.3383
  566loPI   C3A 9049   5.336   5.419   8.378  0.0711  0.0550  0.0610
  566loPI   C4A 9050   5.350   5.544   7.986 -0.2100  0.2218  0.0192
  566loPI   C5A 9051   5.116   5.738   7.686 -0.1618  0.2857  0.0734
  566loPI   C6A 9052   5.001   5.924   7.308  0.0891 -0.1608 -0.1778
  566loPI   C1B 9053   6.078   5.307   8.995  0.0882  0.0474  0.2917
  566loPI   C2B 9054   6.084   5.416   8.496  0.1257  0.1383 -0.2318
  566loPI   C3B 9055   5.808   5.458   8.130 -0.0884  0.0139  0.0017
  566loPI   C4B 9056   5.707   5.407   7.613  0.2172  0.4284  0.0886
  567loPI    C1 9057  15.101  18.507  10.529 -0.1434 -0.3311  0.0891
  567loPI    C2 9058  14.879  18.612  10.845 -0.1760 -0.1630  0.0117
  567loPI    C3 9059  14.744  18.336  10.589 -0.1760 -0.2559  0.1108
  567loPI   PO4 9060  15.162  18.742  10.318  0.0124 -0.2150  0.1936
  567loPI   GL1 9061  15.086  18.833   9.974 -0.2273  0.0961 -0.0386
  567loPI   GL2 9062  14.930  19.087  10.036  0.2843 -0.0558  0.2569
  567loPI   C1A 9063  15.048  18.832   9.448 -0.0014  0.1850 -0.1513
  567loPI   C2A 9064  15.045  18.754   9.138  0.0156  0.3431 -0.1145
  567loPI   C3A 9065  14.979  18.647   8.756 -0.0855 -0.0698 -0.4030
  567loPI   C4A 9066  14.653  18.992   8.643 -0.1778  0.1848  0.0609
  567loPI   C5A 9067  14.396  19.280   8.541 -0.2265  0.2298  0.2052
  567loPI   C6A 9068  14.473  19.713   8.774  0.0145  0.0239  0.3638
  567loPI   C1B 9069  14.804  19.356   9.764  0.0787  0.0215 -0.0225
  567loPI   C2B 9070  14.575  19.586   9.526 -0.2186 -0.0514  0.0990
  567loPI   C3B 9071  14.450  19.904   9.244 -0.0779  0.0534  0.0467
  567loPI   C4B 9072  14.456  20.181   8.873  0.2949 -0.0890 -0.3311
  568loPI    C1 9073   9.848  13.361  10.620  0.0872  0.1096 -0.2825
  568loPI    C2 9074  10.042  13.281  10.961 -0.1084  0.1799 -0.1525
  568loPI    C3 9075   9.706  13.083  10.871  0.0411  0.0316 -0.3942
  568loPI   PO4 9076   9.974  13.309  10.416 -0.1952  0.1061 -0.4147
  568loPI   GL1 9077  10.035  13.339  10.025 -0.0218 -0.2425 -0.0209
  568loPI   GL2 9078  10.228  13.158   9.909 -0.1095 -0.2163 -0.0723
  568loPI   C1A 9079   9.617  13.284   9.822 -0.2847 -0.0721 -0.1686
  568loPI   C2A 9080   9.458  13.224   9.394 -0.2686 -0.1185 -0.3848
  568loPI   C3A 9081   9.460  13.411   9.031 -0.1423 -0.1131  0.1684
  568loPI   C4A 9082   9.320  13.466   8.632  0.0492 -0.1290 -0.2831
  568loPI   C5A 9083   9.199  13.595   8.236  0.3313 -0.0357  0.2539
  568loPI   C6A 9084   8.966  13.465   7.936 -0.0762  0.0229  0.1240
  568loPI   C1B 9085  10.308  12.974   9.448  0.1034 -0.0968  0.4167
  568loPI   C2B 9086  10.364  12.911   9.074 -0.2382 -0.1428  0.3845
  568loPI   C3B 9087  10.277  12.925   8.568 -0.1643 -0.2095 -0.2598
  568loPI   C4B 9088   9.919  12.893   8.184 -0.1200 -0.0480 -0.3146
  569loPI    C1 9089   3.421   8.873   9.958  0.0408 -0.2386 -0.2300
  569loPI    C2 9090   3.617   8.727  10.275 -0.4582 -0.2662  0.0770
  569loPI    C3 9091   3.578   9.122  10.229 -0.3806 -0.2621  0.0452
  569loPI   PO4 9092   3.509   8.620   9.787 -0.1860  0.2207 -0.2012
  569loPI   GL1 9093   3.624   8.502   9.291  0.0618 -0.1014 -0.0857
  569loPI   GL2 9094   3.319   8.619   9.287  0.1055 -0.1912  0.0560
  569loPI   C1A 9095   3.687   8.655   8.888  0.0397 -0.0830 -0.2821
  569loPI   C2A 9096   3.796   8.347   8.629 -0.1670  0.0087 -0.1761
  569loPI   C3A 9097   3.970   8.294   8.301 -0.3905 -0.0079  0.3364
  569loPI   C4A 9098   4.196   8.247   7.934 -0.2225  0.2507 -0.0084
  569loPI   C5A 9099   4.615   8.509   7.743  0.1035 -0.0388 -0.0529
  569loPI   C6A 9100   4.704   8.558   7.226 -0.0647 -0.0933 -0.1787
  569loPI   C1B 9101   3.284   8.877   9.013 -0.1149 -0.1503  0.0568
  569loPI   C2B 9102   3.337   8.814   8.529 -0.2798 -0.0978  0.1728
  569loPI   C3B 9103   3.417   8.841   8.078  0.2525  0.0413  0.2162
  569loPI   C4B 9104   3.652   9.155   7.824 -0.3108 -0.3068 -0.3271
  570loPI    C1 9105  16.046  14.976  10.537 -0.3043  0.3025  0.2180
  570loPI    C2 9106  16.439  14.955  10.610 -0.2632 -0.0486 -0.0733
  570loPI    C3 9107  16.247  15.304  10.645  0.0557  0.1089  0.1526
  570loPI   PO4 9108  16.061  14.738  10.294  0.0228 -0.3108  0.0140
  570loPI   GL1 9109  15.959  14.493  10.012  0.2306 -0.0013  0.3155
  570loPI   GL2 9110  16.108  14.172   9.851  0.0701 -0.0743  0.2160
  570loPI   C1A 9111  15.667  14.741   9.719 -0.2926 -0.3494  0.0171
  570loPI   C2A 9112  15.610  14.740   9.231 -0.0110 -0.0999  0.0312
  570loPI   C3A 9113  15.757  14.956   8.919  0.0759  0.0326  0.2018
  570loPI   C4A 9114  15.768  14.905   8.372 -0.0496  0.3600  0.0193
  570loPI   C5A 9115  15.695  14.585   7.993 -0.2073 -0.1514 -0.4000
  570loPI   C6A 9116  15.443  14.648   7.626  0.0302  0.1343 -0.0730
  570loPI   C1B 9117  16.239  14.193   9.490 -0.0025  0.0363 -0.0375
  570loPI   C2B 9118  16.286  14.062   9.062  0.1328  0.1180 -0.1487
  570loPI   C3B 9119  16.318  14.191   8.706 -0.0495  0.2002 -0.3205
  570loPI   C4B 9120  16.538  14.045   8.265  0.2832  0.0119 -0.1739
  571loPI    C1 9121  16.946  16.691  10.347 -0.1487 -0.0400  0.1493
  571loPI    C2 9122  17.327  16.569  10.368 -0.1943 -0.2101  0.0120
  571loPI    C3 9123  17.114  16.616  10.703 -0.0228 -0.0157  0.0959
  571loPI   PO4 9124  16.988  16.909  10.170  0.3406  0.0543  0.1984
  571loPI   GL1 9125  16.950  17.069   9.794 -0.0034  0.2197  0.1459
  571loPI   GL2 9126  17.128  17.323   9.761 -0.0635 -0.0403 -0.1319
  571loPI   C1A 9127  17.168  16.890   9.483  0.0916 -0.2747 -0.4208
  571loPI   C2A 9128  16.980  16.773   9.085  0.2614  0.2003  0.2388
  571loPI   C3A 9129  17.029  16.781   8.671  0.1962  0.3286 -0.1217
  571loPI   C4A 9130  17.098  16.820   8.262  0.0040 -0.0133  0.2137
  571loPI   C5A 9131  17.064  16.508   7.917  0.1967  0.0366 -0.0214
  571loPI   C6A 9132  16.732  16.247   8.073  0.2651 -0.0128  0.2271
  571loPI   C1B 9133  17.049  17.553   9.395  0.2386  0.1056 -0.3312
  571loPI   C2B 9134  16.707  17.706   9.274  0.2182 -0.0574 -0.2263
  571loPI   C3B 9135  16.326  17.722   9.058  0.0942  0.2633  0.1797
  571loPI   C4B 9136  15.897  17.562   9.140 -0.3148 -0.2316  0.3185
  572loPI    C1 9137   8.508  15.141  10.289  0.0929  0.0837  0.1494
  572loPI    C2 9138   8.846  14.954  10.393 -0.0660 -0.2202  0.1295
  572loPI    C3 9139   8.716  15.265  10.608  0.2965 -0.0118  0.0561
  572loPI   PO4 9140   8.429  15.168  10.009 -0.2905 -0.5238  0.0058
  572loPI   GL1 9141   8.528  15.268   9.583  0.2127  0.0091  0.0459
  572loPI   GL2 9142   8.618  15.599   9.783  0.0420 -0.2007  0.1337
  572loPI   C1A 9143   9.006  15.192   9.379 -0.2044  0.0020 -0.0816
  572loPI   C2A 9144   9.102  15.300   8.954  0.2786  0.0378 -0.6116
  572loPI   C3A 9145   9.387  15.184   8.655  0.2924 -0.2063  0.1879
  572loPI   C4A 9146   9.468  15.234   8.299  0.0855 -0.2197 -0.0816
  572loPI   C5A 9147   9.430  15.302   7.927  0.2866  0.0835  0.1326
  572loPI   C6A 9148   9.361  15.404   7.478 -0.1848 -0.1060 -0.3627
  572loPI   C1B 9149   8.542  16.032   9.581  0.0676  0.1642 -0.2089
  572loPI   C2B 9150   8.417  16.095   9.236 -0.0668  0.1689  0.3006
  572loPI   C3B 9151   8.364  16.336   8.813 -0.1197 -0.0601 -0.0722
  572loPI   C4B 9152   8.456  16.477   8.402  0.0244 -0.0299 -0.3257
  573POPI    C1 9153  14.163   5.349  10.116 -0.0427  0.0829  0.1433
  573POPI    C2 9154  13.837   5.121  10.073 -0.0179  0.0998 -0.1526
  573POPI    C3 9155  14.163   4.972  10.250 -0.1924  0.0914  0.1696
  573POPI   PO4 9156  13.923   5.553   9.892 -0.1042  0.1791 -0.1239
  573POPI   GL1 9157  13.700   5.855   9.817 -0.0312 -0.1078  0.2296
  573POPI   GL2 9158  13.926   5.834   9.486  0.1496 -0.1413 -0.3737
  573POPI   C1A 9159  13.361   5.781   9.431 -0.1083 -0.0780  0.1518
  573POPI   D2A 9160  13.304   5.895   9.094  0.2284  0.2174 -0.0096
  573POPI   C3A 9161  13.253   5.684   8.788 -0.0553  0.4825 -0.1852
  573POPI   C4A 9162  13.312   5.731   8.317 -0.3108 -0.4099  0.0916
  573POPI   C1B 9163  14.211   6.041   9.154 -0.0019  0.0294  0.0080
  573POPI   C2B 9164  14.553   5.954   8.775  0.0793 -0.1332 -0.1197
  573POPI   C3B 9165  14.638   5.790   8.333 -0.0047  0.1697  0.1135
  573POPI   C4B 9166  14.892   5.884   8.039 -0.0841  0.2215  0.0191
  574POPI    C1 9167  13.617  17.320  10.611  0.0070 -0.0645  0.3620
  574POPI    C2 9168  13.726  17.699  10.682  0.1414 -0.0398  0.0421
  574POPI    C3 9169  13.605  17.465  10.984  0.1573  0.2250  0.2574
  574POPI   PO4 9170  13.643  17.340  10.324 -0.0026 -0.2925  0.2936
  574POPI   GL1 9171  13.859  17.177   9.969  0.0754  0.3184 -0.0073
  574POPI   GL2 9172  13.752  16.897  10.218  0.2329 -0.1915 -0.1699
  574POPI   C1A 9173  13.987  17.182   9.491  0.0149 -0.0678  0.1317
  574POPI   D2A 9174  13.878  17.315   9.093 -0.1306 -0.1496  0.2752
  574POPI   C3A 9175  13.754  17.119   8.859  0.1655 -0.0307  0.0879
  574POPI   C4A 9176  13.685  17.003   8.365  0.0822 -0.2259  0.3592
  574POPI   C1B 9177  13.574  16.844   9.748 -0.0703  0.3573 -0.1235
  574POPI   C2B 9178  13.562  16.872   9.345 -0.1385 -0.0582  0.0256
  574POPI   C3B 9179  13.489  16.720   8.799  0.0563  0.3845 -0.3461
  574POPI   C4B 9180  13.414  16.535   8.383 -0.0035  0.2348 -0.1488
  575POPI    C1 9181  18.772   2.143  10.180  0.1692 -0.2213  0.0500
  575POPI    C2 9182  18.485   2.126  10.458 -0.0890 -0.0130 -0.1978
  575POPI    C3 9183  18.869   2.161  10.567 -0.1723 -0.0978  0.1326
  575POPI   PO4 9184  18.713   1.930  10.008 -0.1629  0.1151  0.0172
  575POPI   GL1 9185  18.593   1.865   9.613  0.2394 -0.1053  0.1143
  575POPI   GL2 9186  18.795   2.003   9.365  0.3102  0.1347  0.0693
  575POPI   C1A 9187  18.684   1.594   9.104  0.3220 -0.1057 -0.1658
  575POPI   D2A 9188  18.488   1.740   8.866 -0.2794 -0.2334 -0.0430
  575POPI   C3A 9189  18.330   2.047   8.508 -0.0835 -0.0187 -0.0213
  575POPI   C4A 9190  18.546   2.328   8.748  0.0494  0.1523  0.0327
  575POPI   C1B 9191  19.010   2.036   8.978  0.3720  0.2614 -0.1327
  575POPI   C2B 9192  18.918   1.938   8.612 -0.3151 -0.2376  0.0042
  575POPI   C3B 9193  18.767   2.182   8.271 -0.1506  0.1627  0.0228
  575POPI   C4B 9194  18.822   1.913   7.902 -0.2604 -0.0684 -0.1838
  576POPI    C1 9195  15.200  10.751   9.914 -0.2572  0.0372  0.0231
  576POPI    C2 9196  15.212  10.706  10.311 -0.1485  0.0189  0.0181
  576POPI    C3 9197  15.336  11.048  10.145  0.0420 -0.0662 -0.0165
  576POPI   PO4 9198  15.250  10.558   9.768 -0.0267  0.1022 -0.1006
  576POPI   GL1 9199  15.238  10.529   9.388  0.1941  0.3205  0.1314
  576POPI   GL2 9200  15.658  10.503   9.435  0.2095 -0.2120  0.0548
  576POPI   C1A 9201  15.135  10.424   9.075 -0.0389  0.2036 -0.1034
  576POPI   D2A 9202  14.981  10.322   8.677 -0.0116 -0.3319  0.2410
  576POPI   C3A 9203  15.114  10.696   8.412  0.0359  0.1546  0.0166
  576POPI   C4A 9204  15.029  10.765   7.961  0.2342  0.0959  0.2031
  576POPI   C1B 9205  15.772  10.521   9.040  0.0873 -0.0136 -0.1210
  576POPI   C2B 9206  16.003  10.583   8.763  0.1824 -0.1863 -0.2575
  576POPI   C3B 9207  15.888  10.680   8.357  0.1037  0.0321 -0.1778
  576POPI   C4B 9208  15.901  10.617   7.945 -0.1600  0.1831  0.0198
  577POPI    C1 9209   7.845   7.157  10.514 -0.1413 -0.0512  0.3820
  577POPI    C2 9210   7.771   7.468  10.273  0.1849 -0.0357  0.2975
  577POPI    C3 9211   7.597   7.448  10.633 -0.3856 -0.1078  0.0293
  577POPI   PO4 9212   7.776   6.958  10.379 -0.2489  0.0094 -0.0664
  577POPI   GL1 9213   7.694   7.014  10.039  0.0556  0.1996  0.1571
  577POPI   GL2 9214   7.361   7.026   9.833 -0.1515 -0.0706  0.0134
  577POPI   C1A 9215   7.860   6.877   9.539 -0.0802  0.1455  0.0652
  577POPI   D2A 9216   8.001   6.754   9.126  0.1254 -0.0074  0.0271
  577POPI   C3A 9217   8.126   6.966   8.856 -0.0798 -0.0829  0.1287
  577POPI   C4A 9218   8.376   7.178   8.593 -0.3096 -0.2613 -0.0570
  577POPI   C1B 9219   7.285   6.827   9.473 -0.2445 -0.1256  0.2551
  577POPI   C2B 9220   7.076   6.596   9.052  0.0485  0.0772 -0.0802
  577POPI   C3B 9221   7.104   6.378   8.706  0.2033  0.2776 -0.1058
  577POPI   C4B 9222   7.037   6.326   8.240  0.1827 -0.1040 -0.0897
  578POPI    C1 9223  10.700   0.861  10.383 -0.0147 -0.0795  0.0059
  578POPI    C2 9224  11.097   0.871  10.336 -0.0080  0.0694  0.0877
  578POPI    C3 9225  10.925   1.080  10.630 -0.1577  0.0937 -0.0156
  578POPI   PO4 9226  10.611   0.848  10.245 -0.2119  0.4160  0.3749
  578POPI   GL1 9227  10.446   0.745   9.905 -0.3325  0.2596 -0.0239
  578POPI   GL2 9228  10.502   0.393   9.884 -0.0440  0.1848  0.0703
  578POPI   C1A 9229  10.237   0.693   9.561 -0.1455  0.2482  0.1252
  578POPI   D2A 9230  10.268   0.494   9.217  0.2781  0.1177 -0.1871
  578POPI   C3A 9231  10.235   0.669   8.851 -0.2789 -0.2512  0.0807
  578POPI   C4A 9232  10.370   0.608   8.515 -0.1140  0.1081 -0.0688
  578POPI   C1B 9233  10.699   0.494   9.540  0.1907  0.0901  0.2902
  578POPI   C2B 9234  10.852   0.500   9.073  0.0155  0.0379 -0.0727
  578POPI   C3B 9235  10.894   0.415   8.668 -0.2678  0.0040  0.0899
  578POPI   C4B 9236  10.827   0.074   8.443  0.1052 -0.0158  0.0807
  579POPI    C1 9237   6.048  12.025  10.136 -0.0634  0.0873 -0.1386
  579POPI    C2 9238   6.077  12.291  10.433 -0.0196 -0.0345 -0.0333
  579POPI    C3 9239   5.788  12.014  10.439  0.0723 -0.1308 -0.0280
  579POPI   PO4 9240   6.156  12.282   9.909 -0.0258 -0.1709 -0.0983
  579POPI   GL1 9241   6.394  12.460   9.552  0.2176 -0.0943  0.2031
  579POPI   GL2 9242   6.208  12.644   9.276 -0.2523 -0.0086 -0.0404
  579POPI   C1A 9243   6.752  12.370   9.222 -0.3260  0.1682  0.0858
  579POPI   D2A 9244   6.820  12.212   8.772  0.4368  0.2673 -0.0580
  579POPI   C3A 9245   6.647  12.173   8.408 -0.0132 -0.0287 -0.4311
  579POPI   C4A 9246   6.200  12.083   8.457  0.2630  0.1533  0.2117
  579POPI   C1B 9247   6.398  12.545   8.988 -0.1141 -0.0091 -0.0266
  579POPI   C2B 9248   6.506  12.610   8.579  0.1536  0.1541 -0.0461
  579POPI   C3B 9249   6.423  12.592   8.100 -0.0561 -0.3171  0.2182
  579POPI   C4B 9250   6.448  12.298   7.637 -0.3534  0.0696  0.3343
  580POPI    C1 9251   5.021   5.493  10.046 -0.2792 -0.1048  0.0385
  580POPI    C2 9252   4.925   5.363  10.412  0.1359 -0.0430  0.1749
  580POPI    C3 9253   5.148   5.692  10.369 -0.1637  0.1240 -0.1450
  580POPI   PO4 9254   5.108   5.277   9.876  0.5151  0.0688 -0.0931
  580POPI   GL1 9255   5.314   5.342   9.532 -0.2369  0.0641 -0.0315
  580POPI   GL2 9256   5.492   5.640   9.483 -0.1255 -0.0680 -0.1152
  580POPI   C1A 9257   5.139   5.612   9.064  0.2546  0.1749 -0.2955
  580POPI   D2A 9258   5.223   5.834   8.703 -0.1122 -0.4059 -0.3804
  580POPI   C3A 9259   5.301   6.219   8.748  0.0545 -0.0368 -0.0727
  580POPI   C4A 9260   5.399   6.545   9.062  0.1291  0.2305 -0.3534
  580POPI   C1B 9261   5.383   6.051   9.295 -0.1985 -0.0510  0.1636
  580POPI   C2B 9262   5.730   6.247   8.976 -0.0506  0.0017  0.2082
  580POPI   C3B 9263   5.702   6.388   8.546 -0.3455 -0.0393  0.0294
  580POPI   C4B 9264   5.650   6.497   8.089  0.1059  0.0453  0.2134
  581POPI    C1 9265  12.024  12.682  10.243  0.0600  0.1149 -0.0823
  581POPI    C2 9266  12.165  12.588  10.605  0.1412 -0.0834 -0.1638
  581POPI    C3 9267  11.778  12.532  10.520  0.0431  0.3005  0.0050
  581POPI   PO4 9268  12.234  12.692  10.070 -0.1761 -0.1260  0.2678
  581POPI   GL1 9269  12.457  13.121   9.829 -0.0098  0.1047  0.3072
  581POPI   GL2 9270  12.409  13.575   9.862 -0.3364 -0.0744 -0.3141
  581POPI   C1A 9271  12.515  13.141   9.356 -0.0277  0.0751  0.1597
  581POPI   D2A 9272  12.306  13.177   9.008  0.0017  0.0674 -0.2076
  581POPI   C3A 9273  12.245  13.268   8.535 -0.1263 -0.0907 -0.1324
  581POPI   C4A 9274  12.152  13.476   8.157  0.0156  0.1632 -0.3103
  581POPI   C1B 9275  12.637  13.848   9.614  0.1422 -0.0576  0.0531
  581POPI   C2B 9276  13.021  14.072   9.443  0.0388 -0.2506 -0.0702
  581POPI   C3B 9277  13.245  14.230   9.283  0.2261 -0.1236 -0.2586
  581POPI   C4B 9278  13.304  14.134   8.800 -0.2215 -0.0676 -0.0129
  582POPI    C1 9279  11.996  15.131  10.709 -0.0164  0.1309  0.0954
  582POPI    C2 9280  12.363  15.125  10.867  0.0675 -0.0737 -0.1025
  582POPI    C3 9281  12.045  15.168  11.104  0.2044 -0.1473  0.0971
  582POPI   PO4 9282  12.070  14.950  10.493 -0.0379 -0.1487  0.1262
  582POPI   GL1 9283  12.432  14.816  10.226 -0.0180 -0.0655 -0.3467
  582POPI   GL2 9284  12.248  15.075  10.027 -0.1784 -0.1854  0.0785
  582POPI   C1A 9285  12.495  14.692   9.840  0.2015  0.2643  0.0146
  582POPI   D2A 9286  12.400  14.386   9.505 -0.1349  0.1348  0.1665
  582POPI   C3A 9287  12.536  14.169   9.223 -0.2706 -0.3731  0.0792
  582POPI   C4A 9288  12.846  13.995   9.010  0.0945  0.0989  0.6397
  582POPI   C1B 9289  12.264  15.016   9.584  0.1363 -0.1633  0.0583
  582POPI   C2B 9290  12.291  14.787   9.241 -0.2161 -0.0489 -0.0543
  582POPI   C3B 9291  12.303  14.786   8.803 -0.1183  0.0005  0.0948
  582POPI   C4B 9292  12.467  14.975   8.482 -0.0111  0.4255  0.0223
  583POPI    C1 9293   7.345  12.033  10.009 -0.0564  0.0114 -0.0301
  583POPI    C2 9294   7.670  12.266   9.992 -0.0679  0.0298  0.0025
  583POPI    C3 9295   7.415  12.299  10.299  0.0161 -0.1392  0.0923
  583POPI   PO4 9296   7.169  11.953   9.819 -0.4013  0.0087 -0.0070
  583POPI   GL1 9297   6.953  11.844   9.448  0.4509 -0.2361  0.1024
  583POPI   GL2 9298   7.074  11.558   9.394  0.1638 -0.2699  0.0085
  583POPI   C1A 9299   7.015  11.793   8.939  0.3203 -0.0832 -0.3563
  583POPI   D2A 9300   7.091  11.629   8.532 -0.0261  0.0452 -0.0128
  583POPI   C3A 9301   6.886  11.834   8.131  0.1986 -0.2551 -0.1576
  583POPI   C4A 9302   6.821  12.267   7.976  0.1473  0.0256 -0.4425
  583POPI   C1B 9303   7.321  11.451   9.074 -0.1042 -0.0426 -0.2012
  583POPI   C2B 9304   7.451  11.324   8.706 -0.1560 -0.2947 -0.0516
  583POPI   C3B 9305   7.535  11.408   8.282 -0.3363 -0.0358 -0.0869
  583POPI   C4B 9306   7.241  11.477   7.933  0.1798  0.0114  0.0898
  584POPI    C1 9307  10.460   7.217  10.445  0.2687 -0.2137 -0.1648
  584POPI    C2 9308  10.351   6.839  10.375 -0.0182 -0.1801  0.0803
  584POPI    C3 9309  10.455   6.952  10.744 -0.2758  0.0590  0.0832
  584POPI   PO4 9310  10.291   7.357  10.259  0.1184  0.1499  0.0276
  584POPI   GL1 9311  10.358   7.268   9.894 -0.0651  0.0102  0.1003
  584POPI   GL2 9312  10.118   7.380   9.694 -0.2708 -0.0072  0.0279
  584POPI   C1A 9313  10.525   7.295   9.470 -0.5495 -0.0875 -0.0924
  584POPI   D2A 9314  10.564   7.164   9.171  0.2160 -0.1522 -0.0708
  584POPI   C3A 9315  10.392   6.840   8.987 -0.2328  0.2596  0.0904
  584POPI   C4A 9316   9.925   6.805   8.898 -0.3749  0.3331 -0.0968
  584POPI   C1B 9317  10.191   7.665   9.436 -0.2520 -0.0255 -0.1638
  584POPI   C2B 9318  10.067   7.832   9.145 -0.2530  0.0775 -0.0191
  584POPI   C3B 9319   9.956   7.774   8.725  0.0666 -0.0037 -0.1230
  584POPI   C4B 9320   9.829   7.499   8.395  0.1815  0.0940 -0.2858
  585POPI    C1 9321   8.392   8.223  10.329 -0.0880 -0.2474  0.0575
  585POPI    C2 9322   8.281   8.040  10.667 -0.0784 -0.1507  0.1130
  585POPI    C3 9323   8.054   8.331  10.513 -0.0511 -0.1521  0.0699
  585POPI   PO4 9324   8.565   7.994  10.164 -0.1522 -0.2390 -0.2195
  585POPI   GL1 9325   8.527   7.894   9.828 -0.3296 -0.1935  0.1375
  585POPI   GL2 9326   8.378   7.576   9.851 -0.0096 -0.0135 -0.2011
  585POPI   C1A 9327   8.249   8.101   9.550  0.0989  0.2063 -0.0811
  585POPI   D2A 9328   7.808   8.241   9.558  0.0740  0.0850 -0.1068
  585POPI   C3A 9329   7.658   8.635   9.565  0.2575  0.2677 -0.3158
  585POPI   C4A 9330   7.714   9.022   9.381  0.0756  0.0155 -0.2312
  585POPI   C1B 9331   8.112   7.640   9.581  0.2278  0.1172  0.0257
  585POPI   C2B 9332   7.994   7.860   9.154 -0.2471 -0.1088 -0.3015
  585POPI   C3B 9333   7.846   8.057   8.858  0.0162  0.0006  0.1628
  585POPI   C4B 9334   7.465   8.134   8.722  0.0523  0.0036 -0.1034
  586POPI    C1 9335   3.123  18.255   9.959  0.1599 -0.0439  0.1967
  586POPI    C2 9336   3.145  18.603  10.156 -0.0407  0.0150  0.1181
  586POPI    C3 9337   3.470  18.372  10.119  0.1618  0.3228 -0.0634
  586POPI   PO4 9338   2.973  18.275   9.747  0.4514 -0.0317 -0.2277
  586POPI   GL1 9339   3.032  18.194   9.269  0.0633 -0.2795  0.1255
  586POPI   GL2 9340   2.782  18.434   9.281  0.0512  0.0356  0.0030
  586POPI   C1A 9341   3.075  18.091   8.854  0.1098 -0.1166 -0.0767
  586POPI   D2A 9342   2.968  17.884   8.512 -0.0177  0.2750  0.3751
  586POPI   C3A 9343   3.081  17.870   8.042 -0.2482 -0.0275  0.1127
  586POPI   C4A 9344   3.317  18.033   7.533 -0.2468  0.0917  0.1244
  586POPI   C1B 9345   2.712  18.394   8.815 -0.0473 -0.0129 -0.1588
  586POPI   C2B 9346   2.566  18.220   8.494 -0.3133 -0.2086  0.0184
  586POPI   C3B 9347   2.527  17.946   8.132  0.0894  0.0962  0.1689
  586POPI   C4B 9348   2.593  17.996   7.726 -0.3112 -0.1742 -0.0547
  587POPI    C1 9349   2.068   1.351   9.964 -0.2403  0.1326  0.1054
  587POPI    C2 9350   1.812   1.655  10.010 -0.0673  0.2337  0.4301
  587POPI    C3 9351   1.854   1.382  10.300 -0.0344  0.0417  0.2474
  587POPI   PO4 9352   2.087   1.257   9.781 -0.1843 -0.0574 -0.3751
  587POPI   GL1 9353   2.274   1.160   9.296 -0.1834 -0.0599  0.1114
  587POPI   GL2 9354   2.595   1.028   9.319  0.0624 -0.1340  0.1749
  587POPI   C1A 9355   2.424   0.991   8.839 -0.1957 -0.2278 -0.0120
  587POPI   D2A 9356   2.481   1.222   8.421  0.2856  0.0439 -0.3148
  587POPI   C3A 9357   2.171   1.040   8.106 -0.1019  0.2317 -0.2630
  587POPI   C4A 9358   1.947   1.251   7.758  0.0351  0.2061 -0.0172
  587POPI   C1B 9359   3.034   1.185   9.187  0.0041 -0.1411  0.2733
  587POPI   C2B 9360   3.321   0.983   9.103  0.1070  0.0778  0.0967
  587POPI   C3B 9361   3.437   0.928   8.703 -0.2353  0.1470 -0.2917
  587POPI   C4B 9362   3.410   1.102   8.281  0.0399 -0.1071 -0.2230
  588DPPI    C1 9363  11.350   0.255  10.340 -0.2200 -0.0735 -0.3000
  588DPPI    C2 9364  11.209  -0.054  10.128 -0.0821 -0.3057 -0.0601
  588DPPI    C3 9365  11.087   0.002  10.505 -0.1218 -0.0526 -0.1088
  588DPPI   PO4 9366  11.336   0.443  10.250 -0.2423  0.0792 -0.2122
  588DPPI   GL1 9367  11.133   0.599   9.879  0.0417  0.0525  0.0964
  588DPPI   GL2 9368  11.197   0.317   9.819 -0.1042  0.4579  0.0586
  588DPPI   C1A 9369  11.395   0.760   9.507 -0.2957 -0.1708  0.0747
  588DPPI   C2A 9370  11.574   1.088   9.338  0.0149  0.1642 -0.2713
  588DPPI   C3A 9371  11.741   1.294   9.017 -0.1489 -0.0119  0.3075
  588DPPI   C4A 9372  11.706   1.227   8.540  0.4896 -0.1187 -0.3775
  588DPPI   C1B 9373  11.152   0.326   9.404 -0.0334 -0.0602  0.1734
  588DPPI   C2B 9374  11.416   0.436   9.014  0.0087  0.0064  0.2702
  588DPPI   C3B 9375  11.406   0.307   8.502 -0.1856  0.2722  0.1712
  588DPPI   C4B 9376  11.308  -0.002   8.054 -0.1343 -0.1093  0.1390
  589DPPI    C1 9377   5.783  12.546   9.708  0.0530 -0.0603  0.1489
  589DPPI    C2 9378   5.707  12.872   9.926  0.2085 -0.0217  0.1466
  589DPPI    C3 9379   5.681  12.509  10.093  0.0790 -0.0066  0.1607
  589DPPI   PO4 9380   5.696  12.595   9.528  0.0488  0.3152 -0.2539
  589DPPI   GL1 9381   5.636  12.690   9.221 -0.0228  0.3675  0.2960
  589DPPI   GL2 9382   5.330  12.708   9.172 -0.0807  0.1166  0.0902
  589DPPI   C1A 9383   5.648  12.608   8.794 -0.0226 -0.0838 -0.1064
  589DPPI   C2A 9384   5.843  12.503   8.389  0.0691  0.0433 -0.1909
  589DPPI   C3A 9385   5.886  12.357   7.981 -0.0698  0.1945 -0.0699
  589DPPI   C4A 9386   5.994  12.149   7.602  0.0637  0.1982  0.0186
  589DPPI   C1B 9387   5.209  12.778   8.768 -0.2654 -0.3532 -0.0754
  589DPPI   C2B 9388   5.210  12.758   8.301 -0.1689  0.2523 -0.2495
  589DPPI   C3B 9389   5.375  12.545   7.919  0.0878  0.3869  0.0991
  589DPPI   C4B 9390   5.391  12.252   7.562  0.2084  0.1645 -0.0812
  590DPPI    C1 9391  13.673  15.127  10.950 -0.1246 -0.0133  0.0869
  590DPPI    C2 9392  13.529  14.833  10.721 -0.2068  0.2155 -0.1599
  590DPPI    C3 9393  13.325  14.954  11.042 -0.0679 -0.1388  0.0677
  590DPPI   PO4 9394  13.784  15.288  10.746 -0.4742  0.2005 -0.1140
  590DPPI   GL1 9395  13.875  15.217  10.289 -0.0636 -0.0070 -0.0795
  590DPPI   GL2 9396  13.738  14.924  10.290 -0.1692 -0.2228  0.3227
  590DPPI   C1A 9397  14.030  15.262   9.890 -0.1409 -0.1460  0.2939
  590DPPI   C2A 9398  14.177  15.229   9.416 -0.2590 -0.3336  0.1842
  590DPPI   C3A 9399  14.318  15.067   8.991  0.0146  0.1273  0.0590
  590DPPI   C4A 9400  14.264  14.827   8.643 -0.0104 -0.1431 -0.1339
  590DPPI   C1B 9401  13.694  14.752   9.936 -0.2875 -0.2111  0.0061
  590DPPI   C2B 9402  13.500  14.626   9.499 -0.0209 -0.1215 -0.0999
  590DPPI   C3B 9403  13.402  14.678   9.083  0.0450  0.2146  0.3264
  590DPPI   C4B 9404  13.293  14.612   8.616  0.1394  0.0265 -0.0774
  591DPPI    C1 9405  11.348  18.247  10.682 -0.0153  0.0849 -0.0522
  591DPPI    C2 9406  11.021  18.018  10.709 -0.0403  0.1016 -0.2068
  591DPPI    C3 9407  11.066  18.332  10.954 -0.0024 -0.0714  0.0109
  591DPPI   PO4 9408  11.337  18.349  10.352 -0.0528  0.1630  0.0190
  591DPPI   GL1 9409  11.281  18.325   9.951  0.1455  0.1145 -0.0545
  591DPPI   GL2 9410  11.567  18.282   9.862  0.1134 -0.1509  0.0527
  591DPPI   C1A 9411  11.041  18.512   9.636 -0.0471  0.0803  0.0398
  591DPPI   C2A 9412  10.956  18.370   9.193  0.0483 -0.0495  0.1643
  591DPPI   C3A 9413  10.701  18.519   8.763 -0.3142  0.3648  0.3381
  591DPPI   C4A 9414  10.651  18.506   8.335  0.1724 -0.3243 -0.0444
  591DPPI   C1B 9415  11.457  18.278   9.383 -0.1185  0.2681 -0.1038
  591DPPI   C2B 9416  11.350  18.326   8.876 -0.1641  0.0938 -0.1879
  591DPPI   C3B 9417  11.344  18.662   8.495 -0.1660 -0.1403  0.3463
  591DPPI   C4B 9418  11.212  18.347   8.135  0.3280 -0.0450 -0.2501
  592DPPI    C1 9419   0.972  14.279  10.096 -0.1202 -0.0051 -0.1653
  592DPPI    C2 9420   1.334  14.439  10.038  0.0159 -0.2249  0.0538
  592DPPI    C3 9421   1.269  14.055   9.947 -0.2018 -0.1515 -0.1103
  592DPPI   PO4 9422   0.867  14.405  10.051  0.3393  0.1274  0.2374
  592DPPI   GL1 9423   0.897  14.462   9.619 -0.0041  0.3059 -0.2473
  592DPPI   GL2 9424   0.847  14.824   9.711 -0.0988  0.2470 -0.0095
  592DPPI   C1A 9425   0.971  14.312   9.295  0.1028 -0.1761  0.5424
  592DPPI   C2A 9426   0.709  14.438   8.892 -0.0964 -0.0417 -0.0052
  592DPPI   C3A 9427   0.751  14.483   8.560  0.0130 -0.1092  0.0194
  592DPPI   C4A 9428   0.695  14.643   8.094  0.2826  0.2668  0.0033
  592DPPI   C1B 9429   0.994  14.858   9.250  0.1970 -0.2439 -0.2083
  592DPPI   C2B 9430   0.934  14.874   8.840 -0.2416 -0.0435 -0.1251
  592DPPI   C3B 9431   0.552  14.920   8.551 -0.0105  0.0451 -0.3255
  592DPPI   C4B 9432   0.437  15.091   8.223  0.0715 -0.2327  0.0394
  593DPPI    C1 9433   8.037  14.370  10.189 -0.2061  0.0220 -0.0483
  593DPPI    C2 9434   7.833  14.702  10.099 -0.1675  0.1142  0.1942
  593DPPI    C3 9435   8.161  14.725  10.326 -0.0810 -0.0740  0.0908
  593DPPI   PO4 9436   8.048  14.240   9.958  0.2390 -0.0557 -0.0728
  593DPPI   GL1 9437   8.102  14.066   9.553 -0.2265 -0.5527  0.0058
  593DPPI   GL2 9438   7.776  14.099   9.518  0.0322  0.1310  0.0394
  593DPPI   C1A 9439   8.371  14.361   9.349  0.0398 -0.3842  0.5963
  593DPPI   C2A 9440   8.371  14.703   8.938 -0.1340 -0.1899 -0.2071
  593DPPI   C3A 9441   8.280  14.996   8.733 -0.0818  0.0838 -0.0399
  593DPPI   C4A 9442   8.494  15.087   8.318 -0.1769 -0.1701  0.2129
  593DPPI   C1B 9443   7.625  14.427   9.218  0.0001 -0.3204  0.0794
  593DPPI   C2B 9444   7.323  14.487   9.003 -0.0050 -0.1608 -0.5443
  593DPPI   C3B 9445   7.061  14.344   8.727 -0.1031  0.2576 -0.0923
  593DPPI   C4B 9446   6.909  14.413   8.365  0.2014  0.1464 -0.0312
  594DPPI    C1 9447  16.937   3.760   9.698 -0.0784  0.0579  0.0074
  594DPPI    C2 9448  16.806   3.489   9.962 -0.2235  0.0898 -0.0312
  594DPPI    C3 9449  16.992   3.820  10.090 -0.2879  0.1021  0.0312
  594DPPI   PO4 9450  16.701   3.761   9.563 -0.1084 -0.1050 -0.0079
  594DPPI   GL1 9451  16.702   3.685   9.211 -0.1248  0.2649 -0.1386
  594DPPI   GL2 9452  16.467   3.410   9.077 -0.0513 -0.0013 -0.2883
  594DPPI   C1A 9453  16.881   3.467   8.840  0.0462 -0.2777 -0.0853
  594DPPI   C2A 9454  17.005   3.338   8.489 -0.0177 -0.0646  0.1313
  594DPPI   C3A 9455  16.997   3.334   8.030  0.0817  0.1008  0.1577
  594DPPI   C4A 9456  16.919   3.551   7.590 -0.2027 -0.0599 -0.1531
  594DPPI   C1B 9457  16.442   3.619   8.692 -0.2919  0.1402 -0.0911
  594DPPI   C2B 9458  16.801   3.789   8.431 -0.1052 -0.1927 -0.1726
  594DPPI   C3B 9459  16.974   3.908   7.973 -0.2254 -0.1116  0.0023
  594DPPI   C4B 9460  16.891   4.057   7.531  0.1411 -0.3048 -0.0087
  595DPPI    C1 9461   2.322   6.359   9.935  0.0409 -0.1747 -0.0796
  595DPPI    C2 9462   2.141   6.096   9.695 -0.2042  0.0204 -0.1126
  595DPPI    C3 9463   1.938   6.265   9.995  0.0196 -0.0063  0.0561
  595DPPI   PO4 9464   2.482   6.453   9.727 -0.1471 -0.2800  0.0834
  595DPPI   GL1 9465   2.684   6.302   9.320 -0.0641  0.3819 -0.0260
  595DPPI   GL2 9466   2.962   6.159   9.234 -0.2309  0.0110 -0.0455
  595DPPI   C1A 9467   2.577   6.593   8.983  0.2126  0.0662 -0.1654
  595DPPI   C2A 9468   2.702   6.711   8.545 -0.0244  0.0018  0.1674
  595DPPI   C3A 9469   2.376   6.643   8.209 -0.0621  0.0220  0.1516
  595DPPI   C4A 9470   2.486   6.527   7.793  0.4073 -0.2561  0.0915
  595DPPI   C1B 9471   3.084   6.431   8.860  0.1332 -0.1374 -0.0915
  595DPPI   C2B 9472   3.231   6.546   8.431  0.1075 -0.0495  0.1069
  595DPPI   C3B 9473   3.344   6.299   8.164  0.2902  0.0231  0.2324
  595DPPI   C4B 9474   3.604   6.425   7.818 -0.1088  0.0601  0.1161
  596DPPI    C1 9475  11.733   4.386  10.425 -0.0368 -0.1520  0.0955
  596DPPI    C2 9476  11.613   4.608  10.736 -0.0810 -0.1305  0.0633
  596DPPI    C3 9477  11.974   4.435  10.741 -0.0956 -0.1590  0.1416
  596DPPI   PO4 9478  11.556   4.388  10.261  0.1275  0.1763  0.1199
  596DPPI   GL1 9479  11.608   4.386   9.904  0.0067  0.1783  0.0521
  596DPPI   GL2 9480  11.794   4.075   9.877 -0.1131 -0.1833  0.0075
  596DPPI   C1A 9481  11.516   4.627   9.554 -0.3665 -0.1815  0.0962
  596DPPI   C2A 9482  11.206   4.780   9.441  0.3052  0.2252 -0.1454
  596DPPI   C3A 9483  11.087   4.876   9.064  0.3205 -0.0653  0.3759
  596DPPI   C4A 9484  10.984   5.355   8.805  0.2477  0.1723 -0.0472
  596DPPI   C1B 9485  11.504   4.124   9.489  0.2777 -0.1754  0.0061
  596DPPI   C2B 9486  11.230   4.283   9.211 -0.0311  0.0020 -0.0767
  596DPPI   C3B 9487  11.136   4.159   8.788 -0.1380 -0.0607  0.0817
  596DPPI   C4B 9488  10.937   4.149   8.385  0.0565  0.0982  0.2414
  597PYPI    C1 9489   0.242   7.633   9.446  0.0574  0.3273  0.1942
  597PYPI    C2 9490   0.509   7.553   9.732  0.1578 -0.0976 -0.0099
  597PYPI    C3 9491   0.608   7.506   9.348 -0.2095 -0.2627 -0.0886
  597PYPI   PO4 9492   0.159   7.841   9.435 -0.0259  0.0521 -0.0227
  597PYPI   GL1 9493  -0.095   7.971   9.082 -0.2540 -0.1246 -0.0155
  597PYPI   GL2 9494  -0.298   8.190   8.995  0.1707  0.0557 -0.2730
  597PYPI   C1A 9495  -0.044   7.833   8.702 -0.1151 -0.2778  0.1832
  597PYPI   C2A 9496   0.055   7.919   8.308 -0.1268  0.1894 -0.1523
  597PYPI   D3A 9497   0.133   7.733   7.950  0.1121  0.1309  0.1120
  597PYPI   C4A 9498   0.129   7.346   8.056 -0.1198 -0.2536 -0.1933
  597PYPI   C1B 9499  -0.464   8.201   8.591 -0.0644 -0.3947  0.2675
  597PYPI   C2B 9500  -0.434   8.118   8.107  0.2584 -0.5055  0.1945
  597PYPI   C3B 9501  -0.537   8.042   7.768 -0.2098  0.2663  0.1034
  597PYPI   C4B 9502  -0.797   8.349   7.530  0.2696  0.0426 -0.1171
  598PYPI    C1 9503  10.570  10.652  10.264 -0.1883  0.0051 -0.1226
  598PYPI    C2 9504  10.533  10.272  10.384 -0.3268  0.1354  0.2618
  598PYPI    C3 9505  10.895  10.425  10.314 -0.2733 -0.0792  0.0586
  598PYPI   PO4 9506  10.339  10.628  10.123 -0.1348 -0.1857 -0.1186
  598PYPI   GL1 9507  10.277  10.627   9.726  0.2149  0.1662  0.2178
  598PYPI   GL2 9508  10.440  10.956   9.742  0.0956  0.1513 -0.0268
  598PYPI   C1A 9509  10.183  10.630   9.337 -0.1136  0.1103  0.0261
  598PYPI   C2A 9510  10.165  10.590   9.007  0.0052  0.3296  0.0926
  598PYPI   D3A 9511  10.102  10.635   8.682  0.0915  0.2482  0.0110
  598PYPI   C4A 9512  10.014  10.396   8.331 -0.1840 -0.0183  0.0702
  598PYPI   C1B 9513  10.484  11.021   9.410 -0.0036 -0.1605  0.0480
  598PYPI   C2B 9514  10.425  10.988   9.049  0.2477 -0.0624 -0.3018
  598PYPI   C3B 9515  10.393  11.099   8.623  0.1287 -0.0680  0.0668
  598PYPI   C4B 9516  10.148  11.031   8.311  0.0985  0.0515  0.0077
  599PYPI    C1 9517  17.014  12.648  10.329  0.0387 -0.1128  0.1280
  599PYPI    C2 9518  17.079  12.278  10.466  0.3041 -0.1455 -0.0784
  599PYPI    C3 9519  17.320  12.578  10.577  0.1890 -0.0655 -0.0421
  599PYPI   PO4 9520  16.908  12.731  10.103 -0.3318 -0.1450  0.1949
  599PYPI   GL1 9521  16.886  13.031   9.849  0.2563  0.0485  0.0623
  599PYPI   GL2 9522  17.057  13.367   9.894  0.4349  0.0774  0.1831
  599PYPI   C1A 9523  17.215  13.076   9.497  0.0938 -0.0201 -0.2478
  599PYPI   C2A 9524  17.293  12.944   9.067  0.0810  0.2228 -0.0133
  599PYPI   D3A 9525  17.173  12.729   8.728  0.0630  0.0334  0.0708
  599PYPI   C4A 9526  17.224  12.782   8.267  0.0023  0.2382  0.3439
  599PYPI   C1B 9527  16.969  13.637   9.630 -0.0632 -0.1480 -0.3373
  599PYPI   C2B 9528  17.041  14.087   9.557  0.0814 -0.3198 -0.1377
  599PYPI   C3B 9529  17.101  14.618   9.370 -0.2137 -0.1115 -0.0683
  599PYPI   C4B 9530  16.937  14.644   8.990  0.0845 -0.3931 -0.0675
  600PYPI    C1 9531  17.758   0.783  10.393  0.0830  0.2369 -0.0508
  600PYPI    C2 9532  18.011   0.661  10.107  0.0939  0.3183 -0.0760
  600PYPI    C3 9533  18.142   0.716  10.481  0.0443  0.0538 -0.0179
  600PYPI   PO4 9534  17.481   0.689  10.290 -0.1316 -0.0069  0.0912
  600PYPI   GL1 9535  17.532   0.334   9.910 -0.0547  0.0291 -0.0396
  600PYPI   GL2 9536  17.887   0.271   9.749 -0.1238 -0.1813 -0.1140
  600PYPI   C1A 9537  17.504   0.047   9.553 -0.0022  0.2684  0.1587
  600PYPI   C2A 9538  17.504   0.143   9.074  0.1189 -0.4009 -0.1420
  600PYPI   D3A 9539  17.594   0.228   8.692 -0.1546 -0.0172 -0.1573
  600PYPI   C4A 9540  17.532  -0.023   8.336  0.0915  0.1061 -0.2098
  600PYPI   C1B 9541  17.914   0.350   9.232  0.1869  0.0818 -0.0215
  600PYPI   C2B 9542  18.109   0.365   8.750  0.0462 -0.2666 -0.0628
  600PYPI   C3B 9543  17.941   0.253   8.344 -0.1328 -0.1093  0.1055
  600PYPI   C4B 9544  17.998   0.318   7.909 -0.0747  0.3572 -0.4594
  601PYPI    C1 9545   0.583  16.194  10.144 -0.0704 -0.0449  0.1418
  601PYPI    C2 9546   0.304  15.958  10.307 -0.1996  0.0505  0.0612
  601PYPI    C3 9547   0.331  16.341  10.418 -0.1598  0.0650  0.0017
  601PYPI   PO4 9548   0.614  16.162   9.925 -0.1298 -0.1708  0.3372
  601PYPI   GL1 9549   0.462  16.142   9.490  0.3581  0.1414  0.0639
  601PYPI   GL2 9550   0.311  16.438   9.594 -0.2222 -0.1166  0.4168
  601PYPI   C1A 9551   0.536  16.336   9.072  0.2214  0.3054  0.0212
  601PYPI   C2A 9552   0.438  16.242   8.565  0.0741 -0.0344 -0.0483
  601PYPI   D3A 9553   0.193  16.095   8.129  0.0867 -0.0703 -0.3926
  601PYPI   C4A 9554   0.257  16.265   7.720  0.1815  0.3529  0.2315
  601PYPI   C1B 9555   0.231  16.643   9.279  0.0359  0.2935  0.3122
  601PYPI   C2B 9556   0.175  16.722   8.888  0.0651  0.1762  0.1791
  601PYPI   C3B 9557   0.171  16.719   8.451  0.2886  0.2916  0.0569
  601PYPI   C4B 9558   0.221  16.560   8.148 -0.3908  0.2936  0.1967
  602PYPI    C1 9559   3.962   5.420   9.800  0.0357  0.0320  0.2340
  602PYPI    C2 9560   4.101   5.045   9.795 -0.0864 -0.0134  0.1865
  602PYPI    C3 9561   4.055   5.236  10.143  0.0296 -0.0218  0.2069
  602PYPI   PO4 9562   3.995   5.492   9.582 -0.1793 -0.0910 -0.0334
  602PYPI   GL1 9563   4.016   5.268   9.329  0.1199  0.1040 -0.0328
  602PYPI   GL2 9564   4.111   5.533   9.062  0.2423  0.0654 -0.0112
  602PYPI   C1A 9565   3.862   5.118   8.922 -0.2168  0.2252 -0.0005
  602PYPI   C2A 9566   3.977   5.085   8.519 -0.0681  0.3313  0.0789
  602PYPI   D3A 9567   3.990   5.025   7.982  0.0014 -0.0103  0.2737
  602PYPI   C4A 9568   3.885   4.611   7.740 -0.2335 -0.0364  0.1070
  602PYPI   C1B 9569   4.193   5.489   8.726  0.0479 -0.0314  0.1062
  602PYPI   C2B 9570   4.303   5.478   8.290  0.1916 -0.0569 -0.1539
  602PYPI   C3B 9571   4.336   5.465   7.887  0.1620 -0.0128 -0.1006
  602PYPI   C4B 9572   4.120   5.503   7.557  0.2239  0.1323 -0.1068
  603ERGO   ROH 9573   8.555  17.009   9.782  0.1782 -0.1833  0.0409
  603ERGO    R1 9574   8.482  17.106   9.526  0.0059 -0.0964  0.1235
  603ERGO    R2 9575   8.646  17.272   9.377 -0.0151 -0.2048 -0.0039
  603ERGO    R3 9576   8.612  17.081   9.187 -0.3391 -0.1475 -0.0123
  603ERGO    R4 9577   8.705  17.316   9.039  0.4066 -0.3654  0.0408
  603ERGO    R5 9578   8.526  17.199   8.998  0.1232  0.0778 -0.1052
  603ERGO    C1 9579   8.707  17.162   8.664  0.3478 -0.4053  0.0590
  603ERGO    C2 9580   8.805  16.829   8.453  0.1281 -0.0538  0.0844
  604ERGO   ROH 9581   8.370   5.726   9.448  0.3033  0.0555  0.1575
  604ERGO    R1 9582   8.244   5.702   9.195  0.2655  0.1809  0.1636
  604ERGO    R2 9583   8.328   5.843   8.973  0.4329  0.0570  0.1426
  604ERGO    R3 9584   8.339   5.596   8.861  0.1299  0.0257  0.1739
  604ERGO    R4 9585   8.390   5.779   8.639  0.3351 -0.0687  0.1481
  604ERGO    R5 9586   8.239   5.623   8.645  0.1487  0.1130  0.1787
  604ERGO    C1 9587   8.437   5.510   8.340 -0.0064 -0.1712  0.1806
  604ERGO    C2 9588   8.407   5.228   8.096  0.1425 -0.0786 -0.0373
  605ERGO   ROH 9589   9.845  10.991   9.698  0.1283  0.1211 -0.1184
  605ERGO    R1 9590   9.842  11.141   9.458  0.2882  0.0659 -0.1568
  605ERGO    R2 9591   9.974  11.059   9.230  0.2095 -0.1293 -0.1375
  605ERGO    R3 9592   9.729  11.090   9.116  0.2408  0.0949 -0.1450
  605ERGO    R4 9593   9.918  11.097   8.891  0.2489 -0.1414 -0.1446
  605ERGO    R5 9594   9.767  11.247   8.938  0.3994  0.0213 -0.1763
  605ERGO    C1 9595   9.656  11.149   8.586  0.3014  0.0620 -0.1559
  605ERGO    C2 9596   9.626  11.139   8.212 -0.2406  0.2512 -0.2339
  606ERGO   ROH 9597   1.324   9.381   9.208  0.0912 -0.1325  0.1233
  606ERGO    R1 9598   1.423   9.244   8.981 -0.0600 -0.1796  0.0839
  606ERGO    R2 9599   1.294   9.250   8.736 -0.1353 -0.0917  0.1201
  606ERGO    R3 9600   1.536   9.333   8.647 -0.1136 -0.2266  0.0539
  606ERGO    R4 9601   1.386   9.266   8.404 -0.1622 -0.2778  0.1033
  606ERGO    R5 9602   1.583   9.191   8.460 -0.1878 -0.3273  0.1143
  606ERGO    C1 9603   1.668   9.355   8.126 -0.1574 -0.5129  0.0312
  606ERGO    C2 9604   1.748   9.564   7.856  0.2304 -0.2126  0.1372
  607ERGO   ROH 9605  11.197   2.697   9.377  0.0925 -0.0328  0.0059
  607ERGO    R1 9606  11.027   2.518   9.239  0.2156 -0.1392 -0.0104
  607ERGO    R2 9607  10.785   2.597   9.130 -0.0184 -0.3726  0.3192
  607ERGO    R3 9608  10.890   2.490   8.903 -0.0816  0.0239  0.0935
  607ERGO    R4 9609  10.600   2.455   8.874 -0.0733 -0.1907  0.2559
  607ERGO    R5 9610  10.752   2.300   8.858  0.0550 -0.0394 -0.0637
  607ERGO    C1 9611  10.592   2.272   8.513 -0.1645  0.2875  0.0072
  607ERGO    C2 9612  10.394   2.064   8.339 -0.0115  0.3071 -0.1256
  608ERGO   ROH 9613   4.135  10.217   9.396 -0.0620  0.0246  0.0784
  608ERGO    R1 9614   4.342  10.249   9.206 -0.0800 -0.2056  0.0177
  608ERGO    R2 9615   4.362  10.091   8.980 -0.4221 -0.1189 -0.0776
  608ERGO    R3 9616   4.366  10.331   8.852 -0.0847 -0.0493  0.0528
  608ERGO    R4 9617   4.462  10.139   8.652 -0.4555 -0.1003 -0.0854
  608ERGO    R5 9618   4.562  10.322   8.715 -0.1402 -0.2881 -0.0165
  608ERGO    C1 9619   4.524  10.392   8.342 -0.1581 -0.0243  0.0325
  608ERGO    C2 9620   4.496  10.439   7.966 -0.2749  0.1313  0.1771
  609ERGO   ROH 9621   5.931   3.516   9.405 -0.0964  0.0694  0.1247
  609ERGO    R1 9622   5.971   3.567   9.130 -0.1999  0.0845  0.1115
  609ERGO    R2 9623   6.162   3.435   8.980 -0.0901  0.2629  0.0875
  609ERGO    R3 9624   5.951   3.377   8.820 -0.0650  0.0308  0.1354
  609ERGO    R4 9625   6.173   3.423   8.635 -0.1403  0.1967  0.0883
  609ERGO    R5 9626   5.978   3.520   8.631 -0.2317  0.0149  0.0988
  609ERGO    C1 9627   5.981   3.362   8.284 -0.1460 -0.0596  0.1337
  609ERGO    C2 9628   6.151   3.233   8.042 -0.0621  0.1306 -0.3575
  610ERGO   ROH 9629   8.883   9.974   9.305  0.0828  0.0187 -0.0821
  610ERGO    R1 9630   8.928   9.968   9.026  0.0314 -0.0969 -0.0896
  610ERGO    R2 9631   8.845   9.758   8.866 -0.2082 -0.0585 -0.0267
  610ERGO    R3 9632   8.723   9.956   8.726 -0.0338  0.0331 -0.0498
  610ERGO    R4 9633   8.737   9.730   8.539 -0.0795  0.0597 -0.0793
  610ERGO    R5 9634   8.809   9.933   8.503  0.0501  0.0230 -0.0144
  610ERGO    C1 9635   8.559   9.900   8.217  0.1593  0.2144 -0.1316
  610ERGO    C2 9636   8.485   9.698   7.958  0.0195  0.3705  0.1807
  611ERGO   ROH 9637   0.442   3.047   5.919  0.0779  0.0923  0.0350
  611ERGO    R1 9638   0.516   3.061   6.191  0.0663 -0.0361  0.0452
  611ERGO    R2 9639   0.565   3.301   6.321  0.2559 -0.1067  0.1074
  611ERGO    R3 9640   0.379   3.206   6.496  0.1609  0.0054  0.0687
  611ERGO    R4 9641   0.477   3.454   6.618  0.3360 -0.0851  0.1199
  611ERGO    R5 9642   0.470   3.258   6.711  0.1747 -0.0966  0.0885
  611ERGO    C1 9643   0.253   3.455   6.955  0.2936  0.0326  0.0909
  611ERGO    C2 9644   0.202   3.739   7.201  0.1741 -0.0396 -0.1986
  612ERGO   ROH 9645   6.287   4.643   9.360 -0.2674  0.0375 -0.0018
  612ERGO    R1 9646   6.313   4.808   9.131 -0.2212  0.0463  0.0099
  612ERGO    R2 9647   6.502   4.762   8.935 -0.0583  0.1626  0.1388
  612ERGO    R3 9648   6.286   4.766   8.771  0.0487  0.0153 -0.0087
  612ERGO    R4 9649   6.500   4.895   8.616  0.0260  0.3206  0.2028
  612ERGO    R5 9650   6.302   4.976   8.657 -0.0927  0.0919  0.1091
  612ERGO    C1 9651   6.296   4.976   8.276  0.1755  0.2743  0.1018
  612ERGO    C2 9652   6.171   5.069   8.035 -0.0475  0.2068  0.2557
  613ERGO   ROH 9653   0.443   8.303   9.239 -0.1848 -0.0679  0.0126
  613ERGO    R1 9654   0.409   8.170   8.991 -0.2085  0.0223 -0.0329
  613ERGO    R2 9655   0.388   8.305   8.752  0.1190  0.0987 -0.0214
  613ERGO    R3 9656   0.593   8.143   8.679 -0.0475 -0.1621  0.0740
  613ERGO    R4 9657   0.511   8.276   8.430  0.2678  0.0016  0.0437
  613ERGO    R5 9658   0.530   8.061   8.462 -0.0345 -0.0378  0.0188
  613ERGO    C1 9659   0.777   8.107   8.174  0.1981 -0.2999  0.1712
  613ERGO    C2 9660   0.846   8.180   7.802 -0.0039  0.2696  0.1521
  614ERGO   ROH 9661  13.433   8.962   9.236 -0.2291  0.0935  0.1969
  614ERGO    R1 9662  13.383   9.064   8.977 -0.1395  0.1698  0.2080
  614ERGO    R2 9663  13.438   8.920   8.747  0.0876  0.2965  0.1744
  614ERGO    R3 9664  13.177   8.970   8.692  0.0862  0.1544  0.0498
  614ERGO    R4 9665  13.302   8.934   8.430  0.1785  0.0368  0.1217
  614ERGO    R5 9666  13.182   9.104   8.494  0.0904  0.0253 -0.0327
  614ERGO    C1 9667  12.978   8.989   8.193  0.2302 -0.2478 -0.0259
  614ERGO    C2 9668  12.813   9.003   7.743  0.0325 -0.0744 -0.0944
  615ERGO   ROH 9669  13.631  16.293  10.223 -0.0902  0.2701  0.0179
  615ERGO    R1 9670  13.670  16.344   9.948 -0.0874  0.0791 -0.0164
  615ERGO    R2 9671  13.666  16.144   9.757 -0.2086 -0.0358  0.1128
  615ERGO    R3 9672  13.478  16.301   9.641 -0.1355 -0.0085  0.0243
  615ERGO    R4 9673  13.627  16.186   9.417 -0.1867 -0.2038  0.0862
  615ERGO    R5 9674  13.589  16.398   9.453 -0.0871 -0.1627 -0.0302
  615ERGO    C1 9675  13.427  16.359   9.109 -0.1053 -0.2761 -0.0124
  615ERGO    C2 9676  13.306  16.237   8.766 -0.1327  0.1231  0.0112
  616ERGO   ROH 9677  18.339  10.837   9.657  0.0682  0.0953 -0.0334
  616ERGO    R1 9678  18.316  10.739   9.393 -0.1115  0.0760 -0.0107
  616ERGO    R2 9679  18.092  10.605   9.303 -0.2620  0.2634  0.0887
  616ERGO    R3 9680  18.095  10.795   9.109 -0.1610  0.2296  0.0558
  616ERGO    R4 9681  17.879  10.613   9.031 -0.2599  0.3245  0.0879
  616ERGO    R5 9682  18.048  10.675   8.907 -0.2237  0.2156  0.0757
  616ERGO    C1 9683  17.759  10.797   8.690 -0.1638  0.3283  0.0564
  616ERGO    C2 9684  17.527  10.875   8.615 -0.0097 -0.1761  0.0885
  617ERGO   ROH 9685   1.612  14.254   9.603 -0.0313  0.0408  0.0319
  617ERGO    R1 9686   1.460  14.341   9.381 -0.2679 -0.1899  0.0984
  617ERGO    R2 9687   1.574  14.392   9.134 -0.3950  0.2916  0.1317
  617ERGO    R3 9688   1.386  14.216   9.047  0.0555 -0.1507  0.0084
  617ERGO    R4 9689   1.474  14.357   8.805 -0.3349  0.3030  0.1123
  617ERGO    R5 9690   1.269  14.335   8.875 -0.2850 -0.3076  0.1225
  617ERGO    C1 9691   1.240  14.171   8.531  0.1230 -0.1055 -0.0150
  617ERGO    C2 9692   1.319  14.013   8.322 -0.3114  0.0133  0.5228
  618ERGO   ROH 9693  16.115  14.917   9.809 -0.0503  0.2598 -0.1540
  618ERGO    R1 9694  16.193  14.711   9.631 -0.2045  0.1151 -0.0576
  618ERGO    R2 9695  16.052  14.652   9.401 -0.1326  0.2558 -0.1394
  618ERGO    R3 9696  16.294  14.688   9.282 -0.0007 -0.0917  0.0130
  618ERGO    R4 9697  16.109  14.642   9.060  0.0764  0.1492 -0.1030
  618ERGO    R5 9698  16.294  14.534   9.099 -0.0962 -0.1084  0.0271
  618ERGO    C1 9699  16.369  14.670   8.750  0.3219 -0.2390  0.0611
  618ERGO    C2 9700  16.171  14.607   8.437 -0.2861  0.0268  0.0875
  619ERGO   ROH 9701   3.083  13.232   9.033  0.0049  0.1394  0.0180
  619ERGO    R1 9702   3.022  13.174   8.763  0.2266  0.0872 -0.0232
  619ERGO    R2 9703   2.834  13.317   8.619 -0.0154 -0.2468 -0.0558
  619ERGO    R3 9704   3.040  13.350   8.444 -0.0007  0.2203  0.0359
  619ERGO    R4 9705   2.799  13.343   8.276  0.0805 -0.2096 -0.0630
  619ERGO    R5 9706   2.977  13.218   8.254  0.3428  0.1506 -0.0321
  619ERGO    C1 9707   2.972  13.388   7.913  0.1502  0.2504  0.0189
  619ERGO    C2 9708   2.951  13.637   7.653  0.1329 -0.1587 -0.1559
  620ERGO   ROH 9709   3.517   1.283   9.417 -0.0358  0.5087  0.1046
  620ERGO    R1 9710   3.464   1.480   9.221  0.0398  0.2765 -0.1580
  620ERGO    R2 9711   3.571   1.469   8.966 -0.0507 -0.1569 -0.1927
  620ERGO    R3 9712   3.311   1.491   8.891 -0.0633 -0.0831 -0.1237
  620ERGO    R4 9713   3.457   1.455   8.640 -0.1838 -0.4044 -0.1369
  620ERGO    R5 9714   3.318   1.615   8.687 -0.0722 -0.2859 -0.2430
  620ERGO    C1 9715   3.146   1.467   8.380 -0.2732 -0.4792 -0.0396
  620ERGO    C2 9716   2.845   1.480   8.194 -0.0132 -0.0994 -0.2999
  621ERGO   ROH 9717  12.030   5.427   9.525  0.2472  0.0385 -0.1400
  621ERGO    R1 9718  11.888   5.438   9.280  0.0401 -0.1019 -0.0289
  621ERGO    R2 9719  11.903   5.654   9.108 -0.2600 -0.1076 -0.0777
  621ERGO    R3 9720  11.970   5.463   8.927 -0.2582 -0.0872 -0.0980
  621ERGO    R4 9721  11.809   5.656   8.776 -0.2162 -0.0699 -0.0901
  621ERGO    R5 9722  11.776   5.441   8.789 -0.2346 -0.0595 -0.1243
  621ERGO    C1 9723  11.817   5.478   8.412 -0.1889 -0.0287 -0.1164
  621ERGO    C2 9724  11.719   5.423   8.107  0.2916  0.2213 -0.0145
  622ERGO   ROH 9725   1.960   6.037   9.214 -0.0476  0.1344  0.2012
  622ERGO    R1 9726   2.050   6.143   8.968  0.1649  0.0455  0.2374
  622ERGO    R2 9727   1.897   6.316   8.816  0.1771 -0.2191 -0.0918
  622ERGO    R3 9728   2.118   6.474   8.832 -0.0010  0.0197  0.0894
  622ERGO    R4 9729   1.932   6.622   8.659  0.0754 -0.3020 -0.2788
  622ERGO    R5 9730   2.138   6.568   8.613  0.1980 -0.1299  0.0422
  622ERGO    C1 9731   2.160   6.948   8.582 -0.1511 -0.1261 -0.2176
  622ERGO    C2 9732   2.133   7.320   8.441 -0.2633 -0.0008  0.2745
  623ERGO   ROH 9733   1.915   0.688   9.226 -0.1443 -0.2713  0.0525
  623ERGO    R1 9734   1.973   0.599   8.964  0.0099 -0.2658  0.0841
  623ERGO    R2 9735   1.779   0.499   8.794  0.1090 -0.2605 -0.0328
  623ERGO    R3 9736   1.875   0.690   8.626  0.2099 -0.2576  0.0268
  623ERGO    R4 9737   1.747   0.493   8.450 -0.0371 -0.0572 -0.0246
  623ERGO    R5 9738   1.951   0.568   8.434  0.0247 -0.2298 -0.0674
  623ERGO    C1 9739   1.817   0.669   8.092 -0.0274  0.0639  0.0363
  623ERGO    C2 9740   1.755   0.556   7.750 -0.0031  0.1293  0.0883
  624ERGO   ROH 9741   0.566   6.165   9.355  0.2094  0.0124 -0.0601
  624ERGO    R1 9742   0.568   6.055   9.095  0.0754 -0.0549 -0.0339
  624ERGO    R2 9743   0.445   5.816   9.033 -0.1315  0.0282  0.0460
  624ERGO    R3 9744   0.321   5.965   8.844 -0.0424  0.0840  0.0311
  624ERGO    R4 9745   0.384   5.712   8.709  0.0188  0.1237 -0.0140
  624ERGO    R5 9746   0.436   5.913   8.641  0.0519  0.1435  0.0690
  624ERGO    C1 9747   0.231   5.793   8.342  0.1900  0.2318 -0.0630
  624ERGO    C2 9748   0.181   5.798   7.991  0.1436  0.0477 -0.0803
  625ERGO   ROH 9749  11.967  12.450   9.255  0.1073  0.3510 -0.0103
  625ERGO    R1 9750  11.976  12.280   9.029  0.2108  0.0731  0.1962
  625ERGO    R2 9751  11.894  12.362   8.778 -0.2741 -0.4222  0.1715
  625ERGO    R3 9752  12.143  12.280   8.706 -0.1639  0.0355 -0.0011
  625ERGO    R4 9753  11.966  12.170   8.500 -0.1019 -0.2855  0.1201
  625ERGO    R5 9754  12.110  12.059   8.620  0.1870 -0.0264  0.0178
  625ERGO    C1 9755  12.242  11.981   8.270  0.1017  0.2239 -0.0719
  625ERGO    C2 9756  12.480  11.831   7.984  0.0797  0.0271  0.1584
  626ERGO   ROH 9757   5.571   7.595   9.474 -0.0216  0.4038 -0.2621
  626ERGO    R1 9758   5.604   7.432   9.245  0.1407  0.1847 -0.0886
  626ERGO    R2 9759   5.507   7.504   8.996 -0.0418 -0.2339 -0.1496
  626ERGO    R3 9760   5.765   7.462   8.920 -0.0005  0.0485 -0.1717
  626ERGO    R4 9761   5.605   7.419   8.676 -0.0232 -0.5267 -0.0685
  626ERGO    R5 9762   5.751   7.281   8.763  0.2174 -0.1932  0.0792
  626ERGO    C1 9763   5.904   7.331   8.417  0.0263 -0.4321 -0.0420
  626ERGO    C2 9764   5.899   7.377   8.070 -0.0590 -0.2508  0.1353
  627ERGO   ROH 9765   6.252   0.466   9.561 -0.2525 -0.1900 -0.0564
  627ERGO    R1 9766   6.326   0.496   9.289 -0.0670 -0.0991  0.0022
  627ERGO    R2 9767   6.358   0.281   9.119  0.0358 -0.0431 -0.0536
  627ERGO    R3 9768   6.180   0.418   8.965  0.1457  0.0212 -0.1242
  627ERGO    R4 9769   6.316   0.237   8.778  0.0263 -0.1543 -0.0382
  627ERGO    R5 9770   6.295   0.453   8.758  0.1843 -0.1488 -0.1312
  627ERGO    C1 9771   6.125   0.340   8.436  0.1240 -0.1587 -0.0956
  627ERGO    C2 9772   5.935   0.267   8.124 -0.3036  0.0310 -0.2911
  628ERGO   ROH 9773  17.313   6.511   9.379 -0.0748  0.1825  0.0759
  628ERGO    R1 9774  17.384   6.714   9.195  0.0778  0.1225  0.0677
  628ERGO    R2 9775  17.628   6.718   9.065  0.0375 -0.1301 -0.0216
  628ERGO    R3 9776  17.472   6.732   8.843 -0.0312  0.0558  0.0368
  628ERGO    R4 9777  17.712   6.887   8.775  0.0865 -0.1505 -0.0196
  628ERGO    R5 9778  17.505   6.954   8.761  0.1428  0.0420  0.0681
  628ERGO    C1 9779  17.614   6.998   8.398  0.0506  0.0121  0.0366
  628ERGO    C2 9780  17.642   6.954   8.058  0.1100 -0.0955 -0.2042
  629ERGO   ROH 9781  16.032   1.052   9.814 -0.0735 -0.0346  0.0337
  629ERGO    R1 9782  15.912   1.119   9.566 -0.1490 -0.2318  0.0162
  629ERGO    R2 9783  16.058   1.164   9.337 -0.1947 -0.0898  0.0176
  629ERGO    R3 9784  15.894   0.974   9.233  0.0460 -0.3179  0.0410
  629ERGO    R4 9785  16.028   1.091   9.000 -0.2341 -0.0388  0.0093
  629ERGO    R5 9786  15.813   1.070   9.029 -0.1965 -0.3782  0.1035
  629ERGO    C1 9787  15.855   0.870   8.707 -0.0314 -0.2233  0.0263
  629ERGO    C2 9788  15.965   0.850   8.403  0.0529 -0.1863  0.0367
  630ERGO   ROH 9789   9.893  12.102   9.497  0.2035  0.0065  0.0761
  630ERGO    R1 9790   9.705  12.106   9.285  0.1769 -0.0019  0.0982
  630ERGO    R2 9791   9.727  12.278   9.070  0.1077  0.0463  0.1235
  630ERGO    R3 9792   9.711  12.049   8.926  0.1530  0.0665  0.0881
  630ERGO    R4 9793   9.680  12.263   8.729 -0.0701  0.0799  0.1463
  630ERGO    R5 9794   9.545  12.094   8.760  0.0401  0.0046  0.1873
  630ERGO    C1 9795   9.637  12.038   8.394 -0.1313  0.1183  0.1265
  630ERGO    C2 9796   9.564  11.919   8.020 -0.0308  0.0220  0.1779
  631ERGO   ROH 9797  17.781   4.326   8.964 -0.2822 -0.1323  0.0005
  631ERGO    R1 9798  17.615   4.368   8.738 -0.0890 -0.1027 -0.1384
  631ERGO    R2 9799  17.697   4.514   8.519  0.1572 -0.2059 -0.1176
  631ERGO    R3 9800  17.627   4.290   8.383  0.1387 -0.2042 -0.1107
  631ERGO    R4 9801  17.640   4.499   8.178  0.1903 -0.2137 -0.1226
  631ERGO    R5 9802  17.472   4.366   8.218  0.1658 -0.1888 -0.1310
  631ERGO    C1 9803  17.541   4.280   7.852  0.1923 -0.2168 -0.1191
  631ERGO    C2 9804  17.808   4.270   7.525  0.1102 -0.1231 -0.0248
  632ERGO   ROH 9805  15.647  12.629   9.905 -0.0928  0.0919  0.0301
  632ERGO    R1 9806  15.532  12.573   9.653  0.0328 -0.0434  0.0008
  632ERGO    R2 9807  15.309  12.707   9.557 -0.1298 -0.3248 -0.0387
  632ERGO    R3 9808  15.471  12.754   9.343 -0.1402 -0.0978  0.0032
  632ERGO    R4 9809  15.199  12.773   9.236 -0.1366 -0.2066 -0.0113
  632ERGO    R5 9810  15.360  12.648   9.160 -0.0524 -0.0587 -0.0692
  632ERGO    C1 9811  15.287  12.857   8.849 -0.1503  0.0753  0.0441
  632ERGO    C2 9812  15.343  13.022   8.469 -0.3452 -0.1601 -0.2702
  633ERGO   ROH 9813   6.612  10.332   9.406  0.5795 -0.1780 -0.0411
  633ERGO    R1 9814   6.718  10.208   9.175  0.4132 -0.1066 -0.1582
  633ERGO    R2 9815   6.588  10.004   9.043  0.4033 -0.1947 -0.0164
  633ERGO    R3 9816   6.619  10.167   8.828  0.0605 -0.1714 -0.0534
  633ERGO    R4 9817   6.701   9.902   8.733  0.5022 -0.0500 -0.0287
  633ERGO    R5 9818   6.817  10.086   8.720  0.1789  0.1564 -0.0917
  633ERGO    C1 9819   6.796   9.995   8.350  0.2381  0.0563 -0.0705
  633ERGO    C2 9820   6.852   9.744   8.063 -0.2164  0.1210  0.0924
  634PSPI    C1 9821  15.330  15.851   5.682  0.0207  0.0849  0.0274
  634PSPI    C2 9822  14.968  15.680   5.666  0.0334  0.0515  0.0929
  634PSPI    C3 9823  15.186  15.719   5.333  0.1446 -0.3075  0.1187
  634PSPI   PO4 9824  15.429  15.713   5.886 -0.2256  0.1378 -0.2027
  634PSPI   GL1 9825  15.612  15.658   6.411 -0.0760  0.0313  0.0903
  634PSPI   GL2 9826  15.260  15.646   6.464 -0.2504 -0.4561  0.0434
  634PSPI   C1A 9827  15.916  15.375   6.664 -0.2617  0.2116  0.0673
  634PSPI   C2A 9828  15.868  14.982   6.770  0.0820  0.2198  0.0427
  634PSPI   C3A 9829  15.727  14.522   6.996 -0.0445 -0.0290 -0.2709
  634PSPI   C4A 9830  15.759  14.446   7.368  0.2231 -0.0303  0.1159
  634PSPI   C1B 9831  14.882  15.497   6.643  0.0845 -0.0899 -0.0930
  634PSPI   C2B 9832  14.567  15.439   6.955 -0.1780 -0.0846  0.0427
  634PSPI   C3B 9833  14.452  15.518   7.441  0.2702 -0.4206 -0.1473
  634PSPI   C4B 9834  14.558  15.647   7.839 -0.0307  0.2872  0.0833
  635PSPI    C1 9835  10.912   4.261   5.284 -0.1407 -0.1952 -0.1267
  635PSPI    C2 9836  11.153   4.362   4.981  0.0191 -0.1872  0.0018
  635PSPI    C3 9837  10.799   4.543   5.024  0.1504  0.0689  0.0261
  635PSPI   PO4 9838  11.033   4.342   5.519 -0.4476 -0.0112 -0.0812
  635PSPI   GL1 9839  10.946   4.311   5.921 -0.4230  0.1558 -0.1255
  635PSPI   GL2 9840  10.613   4.215   5.912  0.1815 -0.0198 -0.1010
  635PSPI   C1A 9841  11.065   4.279   6.345 -0.0940 -0.1133 -0.1490
  635PSPI   C2A 9842  11.235   3.936   6.582 -0.2826 -0.0194 -0.1310
  635PSPI   C3A 9843  11.371   3.814   6.921  0.0087  0.1703  0.1621
  635PSPI   C4A 9844  11.432   3.555   7.165  0.0686 -0.0658  0.0742
  635PSPI   C1B 9845  10.542   4.607   6.135  0.2300  0.1921  0.0078
  635PSPI   C2B 9846  10.557   4.938   6.266  0.2250  0.3484 -0.0354
  635PSPI   C3B 9847  10.260   5.290   6.396 -0.0428  0.1985 -0.1447
  635PSPI   C4B 9848   9.967   5.547   6.376 -0.0150  0.0548  0.1253
  636PSPI    C1 9849   1.514  17.112   5.496 -0.1913  0.0802 -0.0475
  636PSPI    C2 9850   1.564  17.502   5.423  0.2275  0.0635  0.1198
  636PSPI    C3 9851   1.829  17.237   5.283 -0.0006 -0.1530  0.0917
  636PSPI   PO4 9852   1.521  17.046   5.766 -0.0047 -0.1228  0.0202
  636PSPI   GL1 9853   1.595  17.268   6.196  0.0465 -0.4018  0.2687
  636PSPI   GL2 9854   1.316  17.191   6.229 -0.1089  0.0009 -0.1775
  636PSPI   C1A 9855   1.899  17.583   6.432 -0.1210 -0.0888 -0.1887
  636PSPI   C2A 9856   2.125  17.611   6.804  0.0566  0.2074 -0.0996
  636PSPI   C3A 9857   2.343  17.272   6.921  0.1081  0.2077  0.1052
  636PSPI   C4A 9858   2.794  17.343   6.980 -0.1346  0.4187 -0.2537
  636PSPI   C1B 9859   1.371  17.434   6.644 -0.2645 -0.1411  0.0611
  636PSPI   C2B 9860   1.715  17.455   7.068  0.0353  0.0550 -0.1263
  636PSPI   C3B 9861   2.081  17.484   7.337 -0.2253 -0.1140 -0.2426
  636PSPI   C4B 9862   2.456  17.724   7.296  0.0454  0.0731  0.0800
  637PSPI    C1 9863   4.963   6.812   5.115  0.0241 -0.2779  0.4907
  637PSPI    C2 9864   4.577   6.866   5.203 -0.0579  0.1483 -0.0687
  637PSPI    C3 9865   4.683   6.593   4.930  0.0330  0.0803  0.0339
  637PSPI   PO4 9866   5.050   6.932   5.345 -0.0148  0.0578 -0.0996
  637PSPI   GL1 9867   5.373   7.148   5.523  0.1449  0.0853  0.0974
  637PSPI   GL2 9868   5.596   7.278   5.732 -0.3413  0.0202 -0.0486
  637PSPI   C1A 9869   5.193   7.175   5.948 -0.0423  0.1997 -0.1671
  637PSPI   C2A 9870   5.271   7.302   6.377 -0.3088  0.2781 -0.0748
  637PSPI   C3A 9871   5.306   7.294   6.814  0.3009 -0.0037  0.0911
  637PSPI   C4A 9872   5.434   7.505   7.253  0.0660 -0.0704  0.0840
  637PSPI   C1B 9873   5.594   7.584   6.102 -0.2035 -0.1722 -0.1130
  637PSPI   C2B 9874   5.614   7.867   6.491 -0.2055  0.0429  0.0565
  637PSPI   C3B 9875   5.845   8.187   6.652 -0.1508  0.0017  0.0542
  637PSPI   C4B 9876   5.825   8.426   7.057 -0.1069 -0.0582  0.2197
  638PSPI    C1 9877  12.030   7.395   5.610  0.0910  0.1100 -0.0615
  638PSPI    C2 9878  12.111   7.368   5.219 -0.1709  0.2144 -0.1249
  638PSPI    C3 9879  11.798   7.172   5.372 -0.0305  0.1211  0.0462
  638PSPI   PO4 9880  12.054   7.716   5.627 -0.3852 -0.2118  0.2510
  638PSPI   GL1 9881  12.184   7.845   6.049 -0.1607  0.0306 -0.3055
  638PSPI   GL2 9882  11.949   7.978   6.131  0.4077  0.1304 -0.4581
  638PSPI   C1A 9883  12.317   7.915   6.455  0.0093 -0.1761  0.0152
  638PSPI   C2A 9884  12.285   8.096   6.836 -0.1695  0.0555  0.1027
  638PSPI   C3A 9885  12.058   8.196   7.279 -0.1472  0.1587 -0.2953
  638PSPI   C4A 9886  11.657   8.482   7.386 -0.0283  0.0075 -0.2049
  638PSPI   C1B 9887  11.838   8.125   6.502 -0.1788  0.1508 -0.1353
  638PSPI   C2B 9888  11.799   8.356   6.891  0.2506 -0.0882  0.2731
  638PSPI   C3B 9889  11.705   8.798   6.967 -0.0424 -0.0686 -0.1257
  638PSPI   C4B 9890  11.870   9.220   7.197 -0.0753  0.3425  0.1327
  639PSPI    C1 9891   9.256   1.479   5.173  0.1486  0.1276 -0.1499
  639PSPI    C2 9892   8.913   1.523   5.374  0.2782 -0.0510  0.1171
  639PSPI    C3 9893   8.917   1.322   5.028  0.0829  0.1154  0.0151
  639PSPI   PO4 9894   9.442   1.410   5.472  0.1497  0.0767  0.1744
  639PSPI   GL1 9895   9.376   1.302   5.889 -0.1146 -0.0265  0.3071
  639PSPI   GL2 9896   9.400   1.127   6.077  0.1128  0.2697  0.0168
  639PSPI   C1A 9897   9.008   1.388   6.308  0.0178  0.0808 -0.0030
  639PSPI   C2A 9898   8.618   1.307   6.590  0.1227  0.0687 -0.0348
  639PSPI   C3A 9899   8.370   1.195   6.904  0.0034  0.1535  0.0755
  639PSPI   C4A 9900   8.310   1.398   7.318  0.4291 -0.0708  0.1838
  639PSPI   C1B 9901   9.506   1.226   6.449  0.2011 -0.1156 -0.4528
  639PSPI   C2B 9902   9.963   1.371   6.532 -0.1835  0.0555  0.1141
  639PSPI   C3B 9903  10.336   1.554   6.511 -0.3296  0.1523  0.3932
  639PSPI   C4B 9904  10.808   1.459   6.531  0.3097  0.4588 -0.0307
  640PSPI    C1 9905   9.003  17.218   5.842 -0.0758  0.2204  0.2022
  640PSPI    C2 9906   8.874  16.907   6.059 -0.1108  0.1567  0.0912
  640PSPI    C3 9907   9.266  16.983   6.032 -0.0932  0.0354  0.0009
  640PSPI   PO4 9908   8.754  17.351   5.825 -0.0709  0.1925 -0.0116
  640PSPI   GL1 9909   8.408  17.617   6.140 -0.0416 -0.0830 -0.1324
  640PSPI   GL2 9910   8.455  17.854   6.252 -0.0237  0.1689 -0.0419
  640PSPI   C1A 9911   8.145  17.393   6.401 -0.4009  0.1174  0.1794
  640PSPI   C2A 9912   8.179  17.385   6.918  0.1706  0.0017 -0.2592
  640PSPI   C3A 9913   8.088  16.959   7.254 -0.2420  0.0093  0.0444
  640PSPI   C4A 9914   8.196  16.641   7.668 -0.2176  0.0126  0.1010
  640PSPI   C1B 9915   8.403  17.829   6.772  0.0024  0.3325  0.0322
  640PSPI   C2B 9916   8.287  18.128   6.971 -0.1981 -0.0652 -0.2068
  640PSPI   C3B 9917   8.172  18.073   7.444 -0.2408  0.0233 -0.2129
  640PSPI   C4B 9918   8.041  18.244   7.827  0.2409 -0.0041  0.1461
  641PSPI    C1 9919  18.420   2.203   5.434  0.0202 -0.0570  0.1109
  641PSPI    C2 9920  18.497   2.280   5.049 -0.0093 -0.0324  0.1099
  641PSPI    C3 9921  18.275   2.535   5.264  0.0024 -0.0489  0.1418
  641PSPI   PO4 9922  18.657   2.241   5.534  0.0908 -0.0614  0.3015
  641PSPI   GL1 9923  18.806   2.247   5.942  0.0816 -0.2237  0.1219
  641PSPI   GL2 9924  18.784   1.958   6.174  0.3463 -0.0276 -0.1712
  641PSPI   C1A 9925  18.597   2.593   6.240  0.1066 -0.1754 -0.3293
  641PSPI   C2A 9926  18.350   2.851   6.566  0.0917 -0.1194 -0.1694
  641PSPI   C3A 9927  18.370   2.970   6.979 -0.1283  0.0169  0.2269
  641PSPI   C4A 9928  18.353   2.943   7.516  0.1515  0.1730  0.1023
  641PSPI   C1B 9929  18.519   2.229   6.587 -0.0604 -0.3327  0.0152
  641PSPI   C2B 9930  18.546   2.136   7.012 -0.0634  0.0946 -0.0063
  641PSPI   C3B 9931  18.669   1.895   7.341  0.0838 -0.1837  0.0002
  641PSPI   C4B 9932  18.814   1.609   7.525  0.1393  0.2415 -0.5115
  642PSPI    C1 9933   8.572  12.095   5.497  0.1025  0.3045  0.1041
  642PSPI    C2 9934   8.791  12.239   5.195  0.0133  0.1334 -0.0436
  642PSPI    C3 9935   8.442  12.411   5.288  0.0551  0.2048 -0.0181
  642PSPI   PO4 9936   8.757  12.078   5.673  0.0181  0.1204  0.2586
  642PSPI   GL1 9937   8.741  11.826   6.050 -0.2592  0.1990  0.0627
  642PSPI   GL2 9938   8.698  12.259   6.128  0.2866  0.0326  0.1439
  642PSPI   C1A 9939   8.485  11.757   6.471 -0.1951 -0.2837  0.1693
  642PSPI   C2A 9940   8.709  11.619   6.817  0.0742  0.0466  0.0399
  642PSPI   C3A 9941   9.104  11.949   6.845 -0.2560  0.1823 -0.3616
  642PSPI   C4A 9942   9.561  12.177   6.890 -0.5605  0.3284  0.0323
  642PSPI   C1B 9943   8.760  12.287   6.604 -0.0722 -0.2409 -0.3597
  642PSPI   C2B 9944   8.721  12.296   7.026  0.2182 -0.1867  0.1466
  642PSPI   C3B 9945   8.865  12.455   7.479 -0.0534  0.0755  0.2862
  642PSPI   C4B 9946   8.706  12.370   7.888  0.0765  0.0577  0.1558
  643PSPI    C1 9947   2.900  11.033   5.383 -0.1142 -0.0290 -0.1885
  643PSPI    C2 9948   2.948  11.279   5.071 -0.2487  0.0434 -0.1532
  643PSPI    C3 9949   3.138  11.352   5.415  0.0669 -0.1532 -0.2806
  643PSPI   PO4 9950   2.657  11.009   5.402 -0.1625  0.2308  0.0282
  643PSPI   GL1 9951   2.620  10.887   5.826 -0.0589  0.1611  0.2645
  643PSPI   GL2 9952   2.642  11.101   6.050  0.2072 -0.0983  0.1587
  643PSPI   C1A 9953   2.488  10.600   6.133 -0.1432  0.0727  0.0059
  643PSPI   C2A 9954   2.774  10.479   6.383  0.2780  0.0009 -0.1016
  643PSPI   C3A 9955   2.840  10.219   6.796  0.2010  0.1943  0.3894
  643PSPI   C4A 9956   2.875   9.820   7.002 -0.0679 -0.1875 -0.2100
  643PSPI   C1B 9957   2.495  10.990   6.408  0.1398 -0.2670  0.2359
  643PSPI   C2B 9958   2.358  10.620   6.598 -0.1944 -0.2125  0.1037
  643PSPI   C3B 9959   2.114  10.220   6.766 -0.3120 -0.1621 -0.0570
  643PSPI   C4B 9960   2.124   9.762   7.007 -0.2066  0.1473 -0.4101
  644PSPI    C1 9961   0.192  13.120   5.059  0.0254  0.2071  0.1671
  644PSPI    C2 9962   0.008  12.940   4.753  0.2263 -0.0806  0.2106
  644PSPI    C3 9963   0.005  13.339   4.782 -0.0115 -0.0624 -0.0252
  644PSPI   PO4 9964   0.131  12.918   5.303  0.1087 -0.1474  0.0456
  644PSPI   GL1 9965   0.174  12.841   5.731  0.0087 -0.0868 -0.1950
  644PSPI   GL2 9966  -0.090  13.028   5.753  0.1890  0.1211  0.0397
  644PSPI   C1A 9967   0.221  12.946   6.176 -0.1229  0.2566 -0.2251
  644PSPI   C2A 9968   0.497  13.033   6.559 -0.0553 -0.0163 -0.1722
  644PSPI   C3A 9969   0.681  12.945   6.978  0.0421 -0.1324  0.0946
  644PSPI   C4A 9970   0.856  12.927   7.378 -0.2472 -0.1035 -0.2469
  644PSPI   C1B 9971  -0.296  13.019   6.181  0.2276  0.1791  0.1112
  644PSPI   C2B 9972  -0.125  12.843   6.624 -0.1412 -0.1559  0.1605
  644PSPI   C3B 9973   0.177  12.740   6.904  0.0971 -0.2365  0.1190
  644PSPI   C4B 9974   0.321  12.788   7.331  0.1158  0.1912  0.0230
  645PSPI    C1 9975   3.655   7.197   5.200 -0.0758  0.1833  0.1027
  645PSPI    C2 9976   3.492   7.169   4.836 -0.1241  0.0886  0.1313
  645PSPI    C3 9977   3.841   6.989   4.914 -0.0683  0.1854  0.1061
  645PSPI   PO4 9978   3.391   7.337   5.348 -0.3793  0.0260 -0.2324
  645PSPI   GL1 9979   3.060   7.447   5.543 -0.2162 -0.1696 -0.3862
  645PSPI   GL2 9980   2.818   7.450   5.394 -0.0809  0.2790 -0.4277
  645PSPI   C1A 9981   2.913   7.368   5.913  0.0454 -0.1641 -0.1302
  645PSPI   C2A 9982   2.628   7.345   6.342  0.1592 -0.2040 -0.1292
  645PSPI   C3A 9983   2.280   7.218   6.585  0.1601 -0.2113 -0.3098
  645PSPI   C4A 9984   1.992   7.323   6.976 -0.0156  0.0391  0.0158
  645PSPI   C1B 9985   2.502   7.509   5.720  0.0460 -0.1791 -0.1017
  645PSPI   C2B 9986   2.421   7.715   6.038 -0.1906  0.1896  0.0354
  645PSPI   C3B 9987   2.392   7.757   6.523 -0.0314 -0.0909  0.1212
  645PSPI   C4B 9988   2.485   7.591   6.885  0.0879  0.2658  0.1816
  646PSPI    C1 9989   9.587   6.837   5.753  0.0043  0.0531  0.0296
  646PSPI    C2 9990   9.598   6.810   5.354 -0.0017 -0.1341  0.0410
  646PSPI    C3 9991   9.777   6.532   5.578  0.1534  0.0649  0.1683
  646PSPI   PO4 9992   9.282   6.949   5.904 -0.2994 -0.1218 -0.2363
  646PSPI   GL1 9993   9.064   6.765   6.161  0.3268  0.1235 -0.1576
  646PSPI   GL2 9994   8.954   6.444   6.050  0.0491 -0.1924 -0.0896
  646PSPI   C1A 9995   9.043   6.570   6.604 -0.0704 -0.0195 -0.2880
  646PSPI   C2A 9996   9.072   6.619   7.068 -0.1194 -0.3131 -0.2324
  646PSPI   C3A 9997   8.994   6.624   7.546 -0.1825 -0.0160 -0.1444
  646PSPI   C4A 9998   9.108   6.796   7.944 -0.0417 -0.2917 -0.2894
  646PSPI   C1B 9999   9.207   6.193   6.348 -0.0307  0.3270 -0.0675
  646PSPI   C2B10000   9.330   6.139   6.757 -0.4937  0.1785 -0.0491
  646PSPI   C3B10001   9.620   6.101   7.147  0.2569  0.1418  0.0861
  646PSPI   C4B10002   9.700   6.165   7.539 -0.1267 -0.0596  0.1804
  647PSPI    C110003  13.801   0.482   5.763  0.2391 -0.1492  0.0045
  647PSPI    C210004  13.859   0.718   5.446  0.0653  0.1759  0.2080
  647PSPI    C310005  13.544   0.472   5.456  0.1601  0.0460  0.0625
  647PSPI   PO410006  13.763   0.564   5.953 -0.0540 -0.0718  0.0764
  647PSPI   GL110007  14.027   0.711   6.234  0.2135 -0.1498  0.0650
  647PSPI   GL210008  14.199   0.997   6.416 -0.3165 -0.1376  0.2405
  647PSPI   C1A10009  14.114   0.561   6.657 -0.0840  0.0388 -0.1249
  647PSPI   C2A10010  14.516   0.324   6.845 -0.0565 -0.0598  0.1875
  647PSPI   C3A10011  14.903   0.021   7.048  0.0398  0.5270  0.0989
  647PSPI   C4A10012  14.799  -0.318   7.302  0.3396  0.0442  0.1919
  647PSPI   C1B10013  14.439   0.842   6.821 -0.5014 -0.0008  0.4391
  647PSPI   C2B10014  14.894   0.675   7.095  0.0812  0.3137  0.2679
  647PSPI   C3B10015  14.859   0.752   7.583 -0.0261 -0.0831 -0.5196
  647PSPI   C4B10016  14.860   0.981   7.938  0.7477  0.6029 -0.1148
  648PSPI    C110017   7.149   4.741   5.310  0.1347  0.0738  0.1813
  648PSPI    C210018   6.975   5.092   5.388 -0.0332  0.0050  0.1231
  648PSPI    C310019   6.832   4.859   5.097 -0.0054 -0.1722  0.2499
  648PSPI   PO410020   7.329   4.722   5.525 -0.1307  0.1467 -0.2215
  648PSPI   GL110021   7.073   4.913   5.954  0.0879 -0.0389 -0.2300
  648PSPI   GL210022   6.839   4.782   5.827  0.1777 -0.1909  0.0379
  648PSPI   C1A10023   7.153   4.674   6.309  0.0385 -0.1278 -0.0466
  648PSPI   C2A10024   7.224   4.612   6.746 -0.1067 -0.0062 -0.0640
  648PSPI   C3A10025   6.988   4.703   7.125  0.2066 -0.3075 -0.0483
  648PSPI   C4A10026   6.498   4.706   7.190 -0.5605  0.2715  0.0043
  648PSPI   C1B10027   6.607   4.447   6.068 -0.2883 -0.1036 -0.1996
  648PSPI   C2B10028   6.660   4.309   6.401 -0.0536  0.2731 -0.3870
  648PSPI   C3B10029   6.708   4.327   6.886  0.1039 -0.0725  0.0913
  648PSPI   C4B10030   6.782   4.311   7.325  0.2234 -0.0312  0.1312
  649PSPI    C110031  11.945   1.799   5.834 -0.0390 -0.2074 -0.1017
  649PSPI    C210032  12.063   1.991   5.504 -0.1797 -0.0018 -0.0341
  649PSPI    C310033  12.276   1.683   5.643  0.0246  0.0773 -0.1685
  649PSPI   PO410034  11.866   2.031   5.955 -0.0777  0.1335  0.2338
  649PSPI   GL110035  11.711   2.151   6.312  0.3039 -0.0821  0.1880
  649PSPI   GL210036  11.453   2.045   6.417  0.1794  0.1379 -0.1320
  649PSPI   C1A10037  11.835   2.260   6.814  0.1168  0.0147  0.2355
  649PSPI   C2A10038  11.711   2.621   7.130  0.0153 -0.1795 -0.0757
  649PSPI   C3A10039  11.616   2.921   7.394  0.0477  0.2748  0.0788
  649PSPI   C4A10040  11.731   2.846   7.786  0.2090 -0.0818 -0.0788
  649PSPI   C1B10041  11.070   1.999   6.674 -0.2464 -0.3102 -0.0320
  649PSPI   C2B10042  11.003   1.823   7.064  0.3710  0.0348  0.0039
  649PSPI   C3B10043  10.745   1.770   7.472 -0.1451 -0.2561 -0.0716
  649PSPI   C4B10044  10.671   1.821   7.863 -0.0064 -0.4375  0.0377
  650PSPI    C110045   6.754   8.377   5.364  0.0240  0.0313  0.2155
  650PSPI    C210046   6.954   8.128   5.123  0.0204  0.1258  0.1139
  650PSPI    C310047   6.849   8.491   4.992 -0.1011  0.1265  0.2120
  650PSPI   PO410048   6.578   8.207   5.443  0.2416 -0.0742 -0.0313
  650PSPI   GL110049   6.599   7.910   5.755  0.1608  0.0565 -0.2098
  650PSPI   GL210050   6.460   7.782   5.907 -0.0959  0.0920 -0.0930
  650PSPI   C1A10051   6.764   7.895   6.241  0.1561 -0.0536 -0.3300
  650PSPI   C2A10052   6.759   7.760   6.664 -0.1391 -0.1196 -0.1150
  650PSPI   C3A10053   6.628   7.617   7.026 -0.1434  0.2069 -0.1584
  650PSPI   C4A10054   6.536   7.440   7.446  0.0377 -0.2904 -0.7491
  650PSPI   C1B10055   6.459   7.398   6.241  0.0675 -0.3193 -0.0229
  650PSPI   C2B10056   6.422   7.393   6.693 -0.2477  0.0335 -0.2956
  650PSPI   C3B10057   6.134   7.360   7.052  0.0675  0.0373 -0.0516
  650PSPI   C4B10058   5.730   7.160   7.114  0.0059 -0.4826 -0.0912
  651PSPI    C110059  16.650  18.756   5.632 -0.2900  0.1492  0.0093
  651PSPI    C210060  16.468  18.939   5.327  0.0170  0.2286 -0.1298
  651PSPI    C310061  16.781  18.698   5.259 -0.2402 -0.1742  0.0738
  651PSPI   PO410062  16.775  18.864   5.788 -0.2078  0.0434  0.0994
  651PSPI   GL110063  16.847  18.918   6.191  0.2325  0.0085  0.1234
  651PSPI   GL210064  16.604  19.180   6.263 -0.0856 -0.0500 -0.2134
  651PSPI   C1A10065  17.024  18.731   6.524  0.1034  0.0822 -0.1640
  651PSPI   C2A10066  17.155  18.516   6.952 -0.0325  0.0907 -0.2169
  651PSPI   C3A10067  17.292  18.350   7.335 -0.3277 -0.0293  0.4286
  651PSPI   C4A10068  17.687  18.430   7.548 -0.0826 -0.0267  0.1741
  651PSPI   C1B10069  16.591  19.078   6.705 -0.0131 -0.2267 -0.1009
  651PSPI   C2B10070  16.847  18.853   7.036  0.1706 -0.1530  0.0512
  651PSPI   C3B10071  16.922  18.778   7.514  0.1124  0.0947 -0.0675
  651PSPI   C4B10072  16.997  19.018   7.931  0.1517  0.1683 -0.1306
  652PSPI    C110073   8.624   8.701   5.281  0.0554 -0.1484 -0.0215
  652PSPI    C210074   8.601   8.302   5.301 -0.2749 -0.1411 -0.1811
  652PSPI    C310075   8.268   8.520   5.257 -0.0786  0.1412 -0.2980
  652PSPI   PO410076   8.750   8.832   5.470  0.0120 -0.3400 -0.1419
  652PSPI   GL110077   8.888   8.984   5.773  0.1809  0.0364  0.0034
  652PSPI   GL210078   9.115   8.664   5.922  0.4316 -0.1839 -0.0637
  652PSPI   C1A10079   8.782   8.959   6.343 -0.1174  0.2748  0.1762
  652PSPI   C2A10080   8.624   8.821   6.707  0.0922  0.0838  0.2660
  652PSPI   C3A10081   8.490   8.745   7.134 -0.0423  0.1754 -0.3093
  652PSPI   C4A10082   8.381   8.350   7.354 -0.0872  0.0271  0.3151
  652PSPI   C1B10083   9.275   8.994   6.304  0.0565 -0.2233 -0.0507
  652PSPI   C2B10084   9.435   9.224   6.515  0.0665 -0.0636  0.4628
  652PSPI   C3B10085   9.614   9.370   6.934 -0.0817 -0.0464  0.0141
  652PSPI   C4B10086   9.848   9.564   7.306 -0.3703 -0.1372  0.3756
  653PSPI    C110087  16.086   8.242   5.681  0.0978 -0.0678  0.1785
  653PSPI    C210088  16.413   8.433   5.552 -0.0966  0.0714 -0.1193
  653PSPI    C310089  16.367   8.043   5.478  0.0393  0.0323 -0.0028
  653PSPI   PO410090  15.980   8.320   5.915 -0.2575 -0.0022  0.0330
  653PSPI   GL110091  15.834   8.185   6.199  0.1171 -0.0848 -0.2385
  653PSPI   GL210092  15.587   8.246   6.252  0.2975  0.4672  0.2920
  653PSPI   C1A10093  16.159   7.835   6.341  0.0240 -0.3432 -0.0874
  653PSPI   C2A10094  16.308   7.794   6.763 -0.0651 -0.1531 -0.1002
  653PSPI   C3A10095  16.519   7.720   7.166  0.1648 -0.1748  0.0695
  653PSPI   C4A10096  16.604   7.959   7.443 -0.0645 -0.1234  0.1072
  653PSPI   C1B10097  15.691   8.568   6.625  0.0590 -0.0867  0.1099
  653PSPI   C2B10098  15.526   8.640   7.074  0.0485 -0.1126  0.0503
  653PSPI   C3B10099  15.553   8.595   7.530 -0.2509  0.1714  0.1113
  653PSPI   C4B10100  15.503   8.458   7.926  0.2939 -0.4146 -0.3650
  654POPI    C110101  17.857  15.268   5.784 -0.1184 -0.1732 -0.0919
  654POPI    C210102  18.158  15.296   5.522  0.0963  0.0952  0.1762
  654POPI    C310103  18.020  15.625   5.704 -0.1951 -0.0596  0.2403
  654POPI   PO410104  17.890  15.082   5.940 -0.1852  0.1639 -0.0874
  654POPI   GL110105  18.044  15.084   6.316 -0.0093  0.2580  0.2254
  654POPI   GL210106  18.393  15.165   6.336  0.1305  0.1087 -0.0676
  654POPI   C1A10107  17.966  15.448   6.600 -0.3383  0.1436  0.0924
  654POPI   D2A10108  17.882  15.699   6.985  0.0913 -0.0572  0.0604
  654POPI   C3A10109  17.789  15.499   7.369  0.1386  0.0918 -0.2486
  654POPI   C4A10110  17.967  15.176   7.637  0.0632  0.0537  0.4216
  654POPI   C1B10111  18.450  15.309   6.759  0.1391 -0.2037  0.1962
  654POPI   C2B10112  18.544  15.431   7.093 -0.1028 -0.1635 -0.2372
  654POPI   C3B10113  18.749  15.563   7.428  0.1191  0.0447  0.0074
  654POPI   C4B10114  18.960  15.739   7.652  0.2429 -0.3432  0.0123
  655POPI    C110115   6.208  18.465   5.623  0.2379 -0.0538 -0.3465
  655POPI    C210116   5.953  18.221   5.435  0.0149 -0.1057  0.0141
  655POPI    C310117   6.341  18.216   5.339 -0.0054 -0.5181 -0.0655
  655POPI   PO410118   6.143  18.453   5.875  0.1540 -0.1846 -0.0716
  655POPI   GL110119   6.243  18.079   6.213 -0.2561 -0.0419  0.2752
  655POPI   GL210120   6.096  18.390   6.363 -0.0932  0.1441  0.3380
  655POPI   C1A10121   6.252  17.949   6.708  0.3486 -0.0466 -0.0471
  655POPI   D2A10122   6.339  17.605   7.097  0.2503  0.1222 -0.0299
  655POPI   C3A10123   6.370  17.682   7.522 -0.6067  0.2318 -0.0896
  655POPI   C4A10124   6.585  17.404   7.717  0.3223 -0.0346 -0.0056
  655POPI   C1B10125   5.786  18.078   6.454  0.0601 -0.0341 -0.2272
  655POPI   C2B10126   5.584  17.971   6.780 -0.1061  0.1383  0.1262
  655POPI   C3B10127   5.388  17.884   7.230  0.1050  0.0422  0.2400
  655POPI   C4B10128   5.026  18.015   7.461 -0.0219 -0.0719 -0.0823
  656POPI    C110129   7.222   9.416   5.559 -0.0917  0.0336  0.1909
  656POPI    C210130   6.832   9.403   5.649 -0.2289  0.2924 -0.3228
  656POPI    C310131   6.952   9.342   5.273  0.2479  0.0442 -0.1402
  656POPI   PO410132   7.383   9.241   5.771  0.0742  0.2479  0.1928
  656POPI   GL110133   7.274   9.385   6.123 -0.1501 -0.3637 -0.0582
  656POPI   GL210134   7.573   9.513   6.243 -0.1660  0.3973  0.1249
  656POPI   C1A10135   6.874   9.438   6.153 -0.0865  0.0973 -0.0797
  656POPI   D2A10136   6.444   9.351   6.058 -0.1107  0.3156 -0.1197
  656POPI   C3A10137   6.182   9.727   6.076 -0.0695  0.0751 -0.0586
  656POPI   C4A10138   6.346  10.158   6.219 -0.0589 -0.1806  0.1622
  656POPI   C1B10139   7.525   9.441   6.688 -0.1903  0.0166 -0.1601
  656POPI   C2B10140   7.524   9.425   7.184  0.0270 -0.1566 -0.2175
  656POPI   C3B10141   7.742   9.487   7.596  0.2208  0.0966 -0.2281
  656POPI   C4B10142   7.799   9.416   8.034  0.2655 -0.5102  0.0669
  657POPI    C110143  10.891   7.852   5.561  0.3060  0.5886 -0.1057
  657POPI    C210144  11.148   7.694   5.824 -0.0855  0.2311  0.0749
  657POPI    C310145  11.205   7.641   5.432 -0.0217 -0.0671  0.1225
  657POPI   PO410146  10.752   7.959   5.719 -0.2338 -0.1943  0.1138
  657POPI   GL110147  10.633   7.760   6.139  0.0155 -0.2715 -0.3373
  657POPI   GL210148  10.355   7.818   6.011  0.0221  0.0322  0.0853
  657POPI   C1A10149  10.787   7.996   6.483 -0.1624 -0.1840  0.2434
  657POPI   D2A10150  10.804   8.144   6.877  0.0504 -0.6196 -0.1455
  657POPI   C3A10151  10.807   8.534   7.180 -0.1871  0.0522 -0.2268
  657POPI   C4A10152  10.569   8.776   7.544 -0.1484  0.1754  0.1115
  657POPI   C1B10153  10.191   7.913   6.438  0.0897  0.0272  0.3232
  657POPI   C2B10154  10.296   8.004   6.785 -0.3534 -0.1492 -0.1235
  657POPI   C3B10155  10.459   8.113   7.225 -0.2946  0.0793  0.2534
  657POPI   C4B10156  10.276   8.331   7.558  0.0382 -0.2033 -0.0462
  658POPI    C110157   1.562   5.065   5.210 -0.3185 -0.0876 -0.0167
  658POPI    C210158   1.559   5.444   5.081 -0.2558 -0.0933 -0.0349
  658POPI    C310159   1.604   5.144   4.820  0.2729 -0.0876  0.0391
  658POPI   PO410160   1.746   5.145   5.449 -0.1044  0.2148 -0.0473
  658POPI   GL110161   2.024   5.158   5.822  0.1345 -0.0286  0.0034
  658POPI   GL210162   2.285   5.029   5.721  0.0416  0.1993 -0.0852
  658POPI   C1A10163   1.865   5.340   6.230 -0.2819 -0.0770  0.2700
  658POPI   D2A10164   1.500   5.344   6.569 -0.0442 -0.0933  0.1444
  658POPI   C3A10165   1.665   5.461   6.973  0.2256  0.2054 -0.2947
  658POPI   C4A10166   1.730   5.793   7.233  0.1228  0.1130 -0.1607
  658POPI   C1B10167   2.243   5.023   6.224 -0.0853  0.0358 -0.2713
  658POPI   C2B10168   2.154   5.197   6.672  0.4372 -0.0415  0.0853
  658POPI   C3B10169   2.461   5.294   6.873  0.0957  0.3969  0.1159
  658POPI   C4B10170   2.879   5.148   7.013  0.1581 -0.2704 -0.0996
  659POPI    C110171   0.677  16.333   5.586 -0.0970 -0.0582 -0.0278
  659POPI    C210172   0.946  16.425   5.306  0.0974  0.0054  0.1767
  659POPI    C310173   0.839  16.044   5.364  0.2152 -0.0307  0.1585
  659POPI   PO410174   0.677  16.563   5.854 -0.1416  0.0222  0.4280
  659POPI   GL110175   0.860  16.406   6.241  0.0103  0.1849  0.0072
  659POPI   GL210176   0.768  16.145   6.076 -0.4992  0.3111 -0.0705
  659POPI   C1A10177   0.618  16.422   6.491 -0.1947 -0.1478 -0.1404
  659POPI   D2A10178   0.295  16.357   6.746  0.2890  0.2096  0.0672
  659POPI   C3A10179  -0.036  16.150   6.688  0.1096  0.0553  0.2190
  659POPI   C4A10180  -0.212  16.087   6.289  0.1431  0.2371  0.0829
  659POPI   C1B10181   0.885  15.806   6.434  0.4514  0.1050  0.0338
  659POPI   C2B10182   0.798  15.524   6.724 -0.1000 -0.1367 -0.2761
  659POPI   C3B10183   1.071  15.417   7.041 -0.1842  0.0641 -0.0437
  659POPI   C4B10184   1.150  14.941   7.126 -0.0632  0.2828  0.0755
  660POPI    C110185  10.710  17.441   5.688  0.1223  0.0184  0.1123
  660POPI    C210186  10.458  17.630   5.441  0.2507  0.0993  0.0415
  660POPI    C310187  10.603  17.270   5.342  0.1894  0.0674  0.0669
  660POPI   PO410188  10.656  17.539   5.843 -0.0371  0.1944 -0.1750
  660POPI   GL110189  10.680  17.646   6.172  0.1274 -0.0048 -0.3229
  660POPI   GL210190  10.539  17.522   6.491  0.1427 -0.1147  0.1693
  660POPI   C1A10191  11.023  17.630   6.444 -0.0120  0.3034 -0.3180
  660POPI   D2A10192  11.222  17.408   6.764  0.0279  0.2451 -0.1442
  660POPI   C3A10193  11.411  17.418   7.202  0.0121  0.2746  0.3388
  660POPI   C4A10194  11.546  17.580   7.598 -0.1423 -0.1623 -0.1556
  660POPI   C1B10195  10.724  17.447   6.888  0.1585  0.4549 -0.1505
  660POPI   C2B10196  10.709  17.751   7.294 -0.2251  0.1082 -0.2871
  660POPI   C3B10197  10.655  17.764   7.688  0.2991 -0.1682  0.1724
  660POPI   C4B10198  10.392  17.611   8.006 -0.3809 -0.2388  0.1442
  661POPI    C110199  16.143   2.089   5.577 -0.1259  0.1693 -0.2110
  661POPI    C210200  16.465   2.229   5.387  0.1705 -0.4063 -0.1555
  661POPI    C310201  16.272   1.910   5.244 -0.1431 -0.3025  0.0272
  661POPI   PO410202  15.982   2.357   5.656 -0.3486  0.1442  0.2174
  661POPI   GL110203  16.034   2.640   5.991 -0.0815 -0.2658  0.0473
  661POPI   GL210204  16.267   2.975   6.052  0.1391  0.2774  0.0853
  661POPI   C1A10205  15.942   2.760   6.450  0.1614 -0.0405 -0.0512
  661POPI   D2A10206  15.719   2.715   6.854 -0.0745 -0.1186 -0.2155
  661POPI   C3A10207  15.737   2.363   7.051  0.1054  0.0196 -0.2359
  661POPI   C4A10208  15.559   2.184   7.282 -0.1457 -0.2750 -0.1701
  661POPI   C1B10209  16.310   3.429   6.011  0.1504  0.3148  0.0863
  661POPI   C2B10210  16.349   3.792   6.284 -0.2709  0.2842 -0.1539
  661POPI   C3B10211  16.478   3.894   6.638  0.3640  0.1201  0.3337
  661POPI   C4B10212  16.288   4.279   6.849  0.3886 -0.0197 -0.2663
  662POPI    C110213  16.479   7.451   5.476 -0.0336 -0.0406  0.0037
  662POPI    C210214  16.517   7.552   5.091  0.0341  0.2137  0.0749
  662POPI    C310215  16.630   7.189   5.215 -0.3080  0.0054 -0.2055
  662POPI   PO410216  16.611   7.589   5.660 -0.0340 -0.0550  0.2479
  662POPI   GL110217  16.740   7.474   6.046  0.1438  0.4506 -0.2189
  662POPI   GL210218  16.307   7.413   6.001 -0.2061  0.1283 -0.2520
  662POPI   C1A10219  17.124   7.336   6.355  0.1538  0.0272  0.0885
  662POPI   D2A10220  17.498   7.225   6.648 -0.1987  0.0475 -0.0590
  662POPI   C3A10221  17.875   7.438   6.489 -0.2335  0.1528  0.1792
  662POPI   C4A10222  18.179   7.718   6.765 -0.0057 -0.0191  0.1911
  662POPI   C1B10223  16.198   7.066   6.082  0.0741 -0.1928 -0.1163
  662POPI   C2B10224  16.173   6.735   6.389 -0.3140 -0.2621 -0.1714
  662POPI   C3B10225  16.519   6.682   6.675  0.1249 -0.1253  0.1425
  662POPI   C4B10226  16.663   6.550   7.043 -0.2265 -0.0302  0.2243
  663POPI    C110227  16.575  11.171   5.285  0.0493 -0.0078  0.0614
  663POPI    C210228  16.218  11.104   5.452  0.0372  0.0386  0.0539
  663POPI    C310229  16.282  11.004   5.070 -0.0021  0.1314  0.0228
  663POPI   PO410230  16.719  11.298   5.386 -0.0928  0.1777  0.0612
  663POPI   GL110231  16.733  11.315   5.857 -0.2386  0.2246 -0.2622
  663POPI   GL210232  16.363  11.333   5.965 -0.2450 -0.1596  0.2441
  663POPI   C1A10233  16.761  11.522   6.340 -0.0825  0.2517 -0.1440
  663POPI   D2A10234  16.867  11.367   6.814 -0.4034  0.1214 -0.0619
  663POPI   C3A10235  16.600  11.060   7.130 -0.1355  0.5748 -0.0644
  663POPI   C4A10236  16.282  10.848   7.181 -0.1474 -0.3964 -0.0235
  663POPI   C1B10237  16.246  11.520   6.309 -0.0758  0.0184 -0.3355
  663POPI   C2B10238  16.433  11.711   6.609  0.0417 -0.1698  0.4510
  663POPI   C3B10239  16.454  11.611   6.947 -0.0736 -0.1593  0.0918
  663POPI   C4B10240  16.332  11.741   7.431 -0.0497 -0.0503 -0.2218
  664POPI    C110241  13.706  14.826   5.593 -0.1690 -0.1900  0.1759
  664POPI    C210242  14.072  14.969   5.668 -0.3094  0.2125  0.1152
  664POPI    C310243  14.005  14.756   5.336 -0.0350 -0.2497  0.3456
  664POPI   PO410244  13.609  14.685   5.909 -0.0248 -0.1979  0.3225
  664POPI   GL110245  13.647  14.814   6.338 -0.1454  0.3022  0.0917
  664POPI   GL210246  13.304  15.004   6.361  0.0841  0.1968  0.1628
  664POPI   C1A10247  13.895  14.721   6.663  0.1090 -0.3779 -0.1640
  664POPI   D2A10248  14.207  14.692   6.785  0.0235  0.0186  0.0152
  664POPI   C3A10249  14.074  14.667   7.229 -0.4116 -0.1865 -0.0546
  664POPI   C4A10250  13.997  14.679   7.644 -0.0529  0.0016 -0.0881
  664POPI   C1B10251  13.341  14.841   6.754 -0.2149 -0.1523  0.1297
  664POPI   C2B10252  13.135  14.714   7.142 -0.0342 -0.0605  0.1833
  664POPI   C3B10253  12.855  14.440   7.251 -0.0263  0.3013 -0.0245
  664POPI   C4B10254  12.690  14.153   7.507  0.0442  0.2535  0.0290
  665POPI    C110255  13.980  13.802   5.471  0.2129  0.1744 -0.0937
  665POPI    C210256  13.594  13.899   5.427  0.2345  0.2569 -0.1049
  665POPI    C310257  13.732  13.553   5.280  0.1183  0.1245  0.0921
  665POPI   PO410258  14.016  13.807   5.711  0.0855  0.1476 -0.2163
  665POPI   GL110259  14.011  13.574   6.137 -0.2174  0.0215  0.1072
  665POPI   GL210260  13.999  13.857   6.207  0.1553 -0.0978 -0.2713
  665POPI   C1A10261  14.223  13.279   6.393 -0.2902 -0.2823 -0.1465
  665POPI   D2A10262  14.298  13.353   6.881  0.0550  0.0762  0.2033
  665POPI   C3A10263  14.408  13.227   7.244  0.0463 -0.1250 -0.2744
  665POPI   C4A10264  14.657  13.135   7.629  0.0122  0.0165  0.3059
  665POPI   C1B10265  14.435  13.747   6.426  0.1483  0.2460  0.0719
  665POPI   C2B10266  14.546  13.887   6.904  0.1922  0.0566  0.6527
  665POPI   C3B10267  14.300  14.152   7.197  0.0860  0.1405 -0.0051
  665POPI   C4B10268  14.174  14.173   7.642  0.1144 -0.2934 -0.1561
  666POPI    C110269  12.821   0.439   5.790 -0.3408 -0.1595 -0.0663
  666POPI    C210270  13.051   0.178   5.593 -0.3273 -0.1682 -0.0390
  666POPI    C310271  13.066   0.567   5.500 -0.0247 -0.1156  0.2139
  666POPI   PO410272  12.785   0.330   6.021  0.2105  0.0164 -0.0114
  666POPI   GL110273  12.980   0.414   6.431 -0.0810 -0.1791 -0.2176
  666POPI   GL210274  13.171   0.756   6.522 -0.0289 -0.0864  0.1935
  666POPI   C1A10275  12.695   0.402   6.700 -0.0355  0.2268 -0.2955
  666POPI   D2A10276  12.693   0.513   7.085 -0.0670  0.4400 -0.0572
  666POPI   C3A10277  12.519   0.302   7.449  0.2851  0.0325 -0.2714
  666POPI   C4A10278  12.231   0.172   7.861  0.0902  0.3613  0.3566
  666POPI   C1B10279  13.216   0.627   6.963 -0.3114 -0.0224  0.1416
  666POPI   C2B10280  13.091   0.560   7.410 -0.3210 -0.2080  0.3274
  666POPI   C3B10281  13.103   0.707   7.858 -0.0342  0.2225 -0.1515
  666POPI   C4B10282  13.159   0.892   8.133  0.0625  0.1603  0.0749
  667POPI    C110283   3.453   9.795   5.416 -0.1589  0.2359 -0.2150
  667POPI    C210284   3.633  10.104   5.237  0.2602  0.0023 -0.2117
  667POPI    C310285   3.405   9.854   5.024  0.0817  0.1969 -0.2523
  667POPI   PO410286   3.557   9.865   5.689  0.0739 -0.0013 -0.0090
  667POPI   GL110287   3.676  10.037   6.076  0.0891  0.1552 -0.0003
  667POPI   GL210288   3.407   9.872   6.182  0.0189 -0.2755  0.3017
  667POPI   C1A10289   4.133  10.013   6.231 -0.1169  0.3599 -0.0991
  667POPI   D2A10290   4.373  10.239   6.339 -0.0076  0.1093 -0.0652
  667POPI   C3A10291   4.318  10.403   6.767 -0.1867  0.1082 -0.0839
  667POPI   C4A10292   4.371  10.808   7.044 -0.0667 -0.3689 -0.2017
  667POPI   C1B10293   3.423   9.475   6.322 -0.3467 -0.2035 -0.0950
  667POPI   C2B10294   3.478   9.242   6.642 -0.0984  0.1319 -0.3083
  667POPI   C3B10295   3.455   9.135   7.058 -0.0707 -0.1294 -0.3994
  667POPI   C4B10296   3.208   8.957   7.317  0.2081 -0.2931 -0.1805
  668POPI    C110297   8.424  16.706   5.465 -0.0540 -0.0089  0.2515
  668POPI    C210298   8.764  16.904   5.539  0.0922 -0.1502 -0.0280
  668POPI    C310299   8.421  17.105   5.495  0.1918  0.0183 -0.0403
  668POPI   PO410300   8.550  16.448   5.760 -0.0486  0.1569  0.2668
  668POPI   GL110301   8.633  16.468   6.233 -0.0191  0.0417 -0.1971
  668POPI   GL210302   8.518  16.164   6.372  0.3179  0.2353  0.1691
  668POPI   C1A10303   8.818  16.744   6.541  0.1821 -0.0349 -0.0336
  668POPI   D2A10304   9.037  17.068   6.716  0.0553 -0.2273  0.0872
  668POPI   C3A10305   9.398  16.999   7.090  0.2342 -0.0051 -0.1523
  668POPI   C4A10306   9.541  16.689   7.331  0.0502  0.2742 -0.1313
  668POPI   C1B10307   8.442  16.429   6.746  0.1425 -0.1488 -0.0319
  668POPI   C2B10308   8.067  16.112   6.649 -0.3582 -0.6793 -0.3469
  668POPI   C3B10309   7.830  15.834   6.766  0.1077  0.3530  0.2359
  668POPI   C4B10310   7.980  15.374   6.887  0.1480  0.0394  0.1137
  669POPI    C110311  14.622  17.580   5.975  0.0011  0.2679  0.0736
  669POPI    C210312  14.748  17.913   5.793 -0.2114  0.1487 -0.3028
  669POPI    C310313  14.755  17.564   5.598 -0.2560 -0.0196 -0.0087
  669POPI   PO410314  14.333  17.719   6.124  0.1874 -0.0955 -0.0033
  669POPI   GL110315  14.169  17.691   6.477  0.2385  0.0165  0.0547
  669POPI   GL210316  14.283  17.501   6.603  0.0093  0.1790  0.1329
  669POPI   C1A10317  13.928  17.920   6.765  0.1347 -0.1064 -0.0747
  669POPI   D2A10318  13.635  18.017   7.121 -0.1559  0.1360 -0.0739
  669POPI   C3A10319  13.760  17.856   7.556 -0.2904 -0.1827  0.1116
  669POPI   C4A10320  13.599  17.650   7.833  0.2023  0.0108  0.1469
  669POPI   C1B10321  14.376  17.644   7.017  0.3263 -0.3609 -0.1588
  669POPI   C2B10322  14.454  17.790   7.354  0.0823 -0.0307  0.2872
  669POPI   C3B10323  14.729  18.067   7.552  0.3545 -0.0013  0.5490
  669POPI   C4B10324  14.746  18.211   7.964 -0.1641 -0.1538  0.1974
  670POPI    C110325  14.636  18.747   5.781 -0.0910  0.2123 -0.1311
  670POPI    C210326  14.570  18.747   5.386  0.1082  0.0389 -0.1665
  670POPI    C310327  14.569  18.402   5.588  0.1638  0.1110 -0.0419
  670POPI   PO410328  14.435  18.972   5.874 -0.3493  0.2969  0.3031
  670POPI   GL110329  14.709  19.259   5.907  0.1167  0.1614  0.2587
  670POPI   GL210330  14.876  19.128   6.167  0.2505  0.1192  0.1142
  670POPI   C1A10331  14.705  19.614   6.248  0.0664  0.2331  0.0238
  670POPI   D2A10332  14.962  19.649   6.643 -0.4428 -0.2941  0.2589
  670POPI   C3A10333  15.358  19.789   6.800 -0.0301  0.1694  0.0833
  670POPI   C4A10334  15.772  19.922   6.876  0.1650  0.0625 -0.0229
  670POPI   C1B10335  14.943  19.036   6.550 -0.0004  0.3078 -0.1196
  670POPI   C2B10336  15.273  19.215   6.838 -0.1337 -0.2213  0.0151
  670POPI   C3B10337  15.139  19.233   7.339 -0.0927 -0.4016  0.1181
  670POPI   C4B10338  14.891  19.028   7.602 -0.0983 -0.3299 -0.0091
  671POPI    C110339  11.481  12.037   5.664 -0.0074 -0.0468  0.3169
  671POPI    C210340  11.800  11.985   5.428 -0.1069  0.1010  0.1472
  671POPI    C310341  11.495  11.727   5.412 -0.0125 -0.0200  0.2832
  671POPI   PO410342  11.616  12.157   5.864 -0.2227 -0.3909 -0.0551
  671POPI   GL110343  11.599  12.137   6.201 -0.0419  0.2537 -0.0618
  671POPI   GL210344  11.353  12.389   6.319 -0.1550  0.2415 -0.0364
  671POPI   C1A10345  11.750  12.088   6.516  0.2105  0.2638 -0.1329
  671POPI   D2A10346  11.583  12.166   6.957 -0.0675  0.3612  0.0823
  671POPI   C3A10347  11.788  12.200   7.454 -0.2296 -0.0735 -0.1209
  671POPI   C4A10348  11.929  12.208   7.957 -0.1922  0.1359 -0.2693
  671POPI   C1B10349  11.143  12.294   6.634 -0.1355 -0.3698  0.1470
  671POPI   C2B10350  11.115  12.062   7.088 -0.0241 -0.1411 -0.1935
  671POPI   C3B10351  11.365  11.981   7.457 -0.1833  0.3238 -0.2537
  671POPI   C4B10352  11.532  11.936   7.785 -0.0083  0.2774 -0.1027
  672POPI    C110353   7.396   7.856   4.924 -0.2764  0.0761  0.2617
  672POPI    C210354   7.259   7.553   4.702  0.0927  0.0632  0.0435
  672POPI    C310355   7.159   7.929   4.610 -0.1981  0.0248  0.1903
  672POPI   PO410356   7.318   7.821   5.209  0.3315  0.3090  0.3182
  672POPI   GL110357   7.254   7.516   5.509 -0.0388  0.0307  0.1882
  672POPI   GL210358   7.021   7.551   5.837  0.0916  0.1274  0.0688
  672POPI   C1A10359   7.484   7.581   5.986 -0.1632  0.2077  0.0286
  672POPI   D2A10360   7.462   7.423   6.442 -0.1273 -0.4637 -0.1918
  672POPI   C3A10361   7.412   7.341   6.729  0.0257 -0.1047 -0.0778
  672POPI   C4A10362   7.171   7.605   6.979  0.4180  0.1215  0.2236
  672POPI   C1B10363   7.009   7.463   6.323 -0.2184  0.0198  0.1337
  672POPI   C2B10364   6.933   7.220   6.720 -0.0534  0.1460 -0.2219
  672POPI   C3B10365   6.684   7.057   7.063 -0.0405 -0.0875  0.0848
  672POPI   C4B10366   6.777   6.581   7.290  0.0426  0.1855 -0.1539
  673POPI    C110367  16.443   6.608   4.954 -0.0084 -0.0463  0.0562
  673POPI    C210368  16.213   6.304   5.075  0.0160 -0.0874 -0.0013
  673POPI    C310369  16.374   6.300   4.708  0.0445 -0.0218  0.0105
  673POPI   PO410370  16.521   6.664   5.232  0.3684  0.1062  0.3381
  673POPI   GL110371  16.629   6.710   5.563  0.1049  0.0123  0.0067
  673POPI   GL210372  16.655   7.060   5.778 -0.2473 -0.2204 -0.0827
  673POPI   C1A10373  16.879   6.658   5.958 -0.2480  0.1105 -0.0876
  673POPI   D2A10374  17.043   6.806   6.350 -0.0998 -0.1147 -0.0763
  673POPI   C3A10375  17.395   6.754   6.546 -0.0231  0.2022 -0.0322
  673POPI   C4A10376  17.526   6.731   6.978  0.1722 -0.3105  0.0569
  673POPI   C1B10377  16.625   7.044   6.258 -0.0379 -0.1983 -0.0401
  673POPI   C2B10378  16.403   7.326   6.557  0.0221 -0.2006  0.0732
  673POPI   C3B10379  16.539   7.182   6.852 -0.0668  0.1723 -0.1101
  673POPI   C4B10380  16.927   6.996   6.845 -0.3087  0.0136  0.0461
  674POPI    C110381  16.342  17.792   5.146  0.2456 -0.1599  0.0612
  674POPI    C210382  16.186  17.743   4.781 -0.1239 -0.0077  0.1942
  674POPI    C310383  16.274  18.110   4.914 -0.1613 -0.0457  0.3265
  674POPI   PO410384  16.153  17.722   5.328 -0.0788 -0.1045  0.1124
  674POPI   GL110385  16.242  17.981   5.703  0.0180  0.0624  0.1636
  674POPI   GL210386  16.073  18.283   5.821  0.0839 -0.2941  0.1136
  674POPI   C1A10387  16.475  17.820   6.035 -0.0199  0.0277 -0.1469
  674POPI   D2A10388  16.654  17.661   6.399  0.4057 -0.1423 -0.1101
  674POPI   C3A10389  16.510  17.420   6.712  0.0388  0.0579 -0.0819
  674POPI   C4A10390  16.595  17.179   7.068  0.1390 -0.1910 -0.2735
  674POPI   C1B10391  15.974  17.986   6.165 -0.0343  0.2157 -0.3501
  674POPI   C2B10392  15.736  17.751   6.349  0.0413 -0.1428 -0.2225
  674POPI   C3B10393  15.562  17.351   6.547  0.1979  0.0497  0.3272
  674POPI   C4B10394  15.681  17.060   6.960 -0.0090  0.0443 -0.1661
  675POPI    C110395   4.401   7.268   4.814  0.0786 -0.0737 -0.2667
  675POPI    C210396   4.792   7.204   4.865  0.0779  0.1354  0.0250
  675POPI    C310397   4.668   7.482   4.606  0.1256  0.1579  0.0262
  675POPI   PO410398   4.335   7.329   5.091 -0.0169  0.5362 -0.2655
  675POPI   GL110399   4.466   7.413   5.565  0.1848 -0.4543  0.2030
  675POPI   GL210400   4.767   7.177   5.688  0.3436 -0.2659  0.2585
  675POPI   C1A10401   4.278   7.544   5.900  0.0728  0.1879 -0.0110
  675POPI   D2A10402   4.127   7.778   6.196 -0.1741 -0.2124 -0.1612
  675POPI   C3A10403   3.769   7.786   6.504 -0.0434  0.0151  0.0579
  675POPI   C4A10404   3.424   8.044   6.607  0.1623 -0.0400 -0.1321
  675POPI   C1B10405   4.752   7.387   5.982 -0.1349  0.2401 -0.3614
  675POPI   C2B10406   4.640   7.560   6.428  0.1859  0.0754 -0.1392
  675POPI   C3B10407   4.489   7.720   6.757 -0.1013  0.2848  0.1492
  675POPI   C4B10408   4.173   7.742   6.967  0.1050 -0.1460 -0.2440
  676POPI    C110409  17.079  10.275   5.347 -0.1202  0.0519  0.3208
  676POPI    C210410  16.829  10.003   5.194  0.1184 -0.0478  0.1014
  676POPI    C310411  16.906  10.340   4.992  0.1562 -0.0145  0.1715
  676POPI   PO410412  16.987  10.306   5.584 -0.1424 -0.2395  0.1710
  676POPI   GL110413  16.845  10.121   5.886 -0.3855  0.1307 -0.0821
  676POPI   GL210414  16.541  10.357   5.891  0.0308 -0.0726  0.1966
  676POPI   C1A10415  16.958  10.134   6.289 -0.0416 -0.1390 -0.2573
  676POPI   D2A10416  17.093  10.298   6.674 -0.4093 -0.2613  0.0619
  676POPI   C3A10417  16.981  10.102   7.009  0.1134  0.3022  0.1018
  676POPI   C4A10418  17.144   9.858   7.345 -0.0724  0.0200 -0.1827
  676POPI   C1B10419  16.374  10.378   6.276 -0.0381 -0.2831 -0.0446
  676POPI   C2B10420  16.308  10.532   6.674  0.2802  0.1910  0.1891
  676POPI   C3B10421  16.021  10.488   6.968  0.0718  0.0610  0.2379
  676POPI   C4B10422  15.803  10.455   7.439 -0.3335 -0.0867 -0.1437
  677POPI    C110423   7.295   0.598   5.076  0.2161 -0.0119 -0.0166
  677POPI    C210424   6.928   0.464   5.162  0.1427  0.3342  0.2285
  677POPI    C310425   7.017   0.577   4.789  0.0963 -0.0385  0.1003
  677POPI   PO410426   7.385   0.605   5.303  0.1279  0.1835 -0.1211
  677POPI   GL110427   7.162   0.584   5.683 -0.2708  0.1194 -0.1008
  677POPI   GL210428   7.337   0.395   5.876 -0.0123  0.0025  0.1088
  677POPI   C1A10429   7.030   0.750   6.015  0.2628 -0.0222 -0.3719
  677POPI   D2A10430   6.728   0.750   6.321 -0.1045  0.4888  0.0943
  677POPI   C3A10431   6.702   0.932   6.678 -0.1287 -0.2987  0.2334
  677POPI   C4A10432   6.718   1.014   7.008 -0.3042  0.2348 -0.1776
  677POPI   C1B10433   7.209   0.381   6.341  0.2848  0.0611  0.1777
  677POPI   C2B10434   7.049   0.562   6.712  0.1787 -0.1600  0.3207
  677POPI   C3B10435   7.154   0.728   7.188 -0.1543  0.0574 -0.0134
  677POPI   C4B10436   6.972   0.972   7.596 -0.1096  0.0646  0.0404
  678POPI    C110437   7.503  10.800   5.504 -0.0772 -0.0866 -0.3029
  678POPI    C210438   7.168  10.989   5.395 -0.0142 -0.0298 -0.3994
  678POPI    C310439   7.158  10.598   5.480 -0.1246 -0.0061 -0.3004
  678POPI   PO410440   7.630  11.033   5.731 -0.2057  0.0057  0.1919
  678POPI   GL110441   7.650  11.058   6.158 -0.0530 -0.1108 -0.1449
  678POPI   GL210442   7.545  11.465   6.143 -0.0565  0.2845  0.0348
  678POPI   C1A10443   7.914  11.229   6.470 -0.1845  0.0892  0.1820
  678POPI   D2A10444   8.207  11.343   6.669 -0.1302  0.0254 -0.2913
  678POPI   C3A10445   8.248  11.249   7.021 -0.1098 -0.0025 -0.0936
  678POPI   C4A10446   8.259  11.309   7.467 -0.1539  0.0431  0.1154
  678POPI   C1B10447   7.473  11.528   6.520 -0.0300  0.1358 -0.1462
  678POPI   C2B10448   7.373  11.809   6.790  0.0482  0.2000 -0.1484
  678POPI   C3B10449   7.181  11.818   7.224  0.1830  0.0180  0.0332
  678POPI   C4B10450   6.997  11.985   7.538  0.2696  0.1242 -0.0975
  679POPI    C110451   3.486  17.031   5.662 -0.2480 -0.1180  0.1982
  679POPI    C210452   3.773  17.138   5.920  0.0953 -0.2037 -0.1390
  679POPI    C310453   3.726  16.753   5.821 -0.1807 -0.1979 -0.0385
  679POPI   PO410454   3.345  17.289   5.668 -0.1079  0.1845 -0.3346
  679POPI   GL110455   3.077  17.614   5.897  0.2195  0.0969  0.3297
  679POPI   GL210456   3.415  17.492   6.082  0.3821  0.1652 -0.2284
  679POPI   C1A10457   2.974  17.451   6.286  0.1958  0.0360  0.0259
  679POPI   D2A10458   3.233  17.701   6.561 -0.2604  0.1970  0.0804
  679POPI   C3A10459   3.730  17.696   6.449 -0.0228  0.0282  0.1845
  679POPI   C4A10460   3.964  17.255   6.486 -0.1457  0.1052  0.3110
  679POPI   C1B10461   3.473  17.172   6.408 -0.0575 -0.2520  0.2077
  679POPI   C2B10462   3.219  17.251   6.758 -0.3234 -0.1751 -0.3831
  679POPI   C3B10463   3.291  17.400   7.087 -0.1655 -0.2343 -0.0458
  679POPI   C4B10464   3.009  17.630   7.401 -0.3511  0.3288  0.1222
  680POPI    C110465  13.990   1.597   5.428  0.0089  0.0882 -0.0839
  680POPI    C210466  14.292   1.662   5.175 -0.0237  0.0390 -0.1355
  680POPI    C310467  13.930   1.566   5.034  0.0168 -0.2291 -0.0629
  680POPI   PO410468  14.168   1.407   5.608  0.2568  0.2280 -0.3472
  680POPI   GL110469  14.163   1.402   6.074 -0.3132 -0.0680  0.0148
  680POPI   GL210470  14.506   1.484   6.108 -0.2329 -0.4660  0.2786
  680POPI   C1A10471  13.975   1.455   6.440 -0.2019  0.1644  0.0481
  680POPI   D2A10472  13.739   1.506   6.761  0.3545 -0.0963  0.1168
  680POPI   C3A10473  13.767   1.421   7.128 -0.0566  0.3150  0.4878
  680POPI   C4A10474  13.879   1.146   7.382  0.2482 -0.0338 -0.0710
  680POPI   C1B10475  14.598   1.313   6.468 -0.0814 -0.0374  0.0712
  680POPI   C2B10476  14.731   1.257   6.945 -0.0787 -0.0144 -0.0373
  680POPI   C3B10477  14.565   1.037   7.350 -0.0711 -0.1721  0.0526
  680POPI   C4B10478  14.261   0.889   7.648 -0.1566 -0.4631 -0.0490
  681POPI    C110479   9.083   2.760   5.405  0.1449  0.0792 -0.1692
  681POPI    C210480   9.189   2.451   5.174  0.3273  0.0720 -0.0768
  681POPI    C310481   9.380   2.801   5.140  0.2159  0.1326 -0.0816
  681POPI   PO410482   9.086   2.757   5.744  0.0593  0.2215 -0.0306
  681POPI   GL110483   9.177   2.545   6.046  0.0758 -0.0154  0.0418
  681POPI   GL210484   9.288   2.284   6.129 -0.2891  0.0224 -0.0451
  681POPI   C1A10485   9.448   2.664   6.423  0.0710  0.1221  0.0731
  681POPI   D2A10486   9.505   2.668   6.809 -0.2127 -0.1343  0.0877
  681POPI   C3A10487   9.731   2.507   7.143 -0.1889 -0.1678  0.0370
  681POPI   C4A10488   9.990   2.207   7.418 -0.4587  0.1276  0.1262
  681POPI   C1B10489   9.513   2.186   6.547  0.1215  0.1940  0.0192
  681POPI   C2B10490   9.655   2.095   6.914 -0.0575  0.0716 -0.2444
  681POPI   C3B10491   9.552   1.902   7.424 -0.0135  0.0328 -0.0222
  681POPI   C4B10492   9.492   2.041   7.785 -0.0051  0.3078  0.2709
  682POPI    C110493   2.749  15.026   5.696  0.0267 -0.0004 -0.1859
  682POPI    C210494   2.838  14.839   5.353  0.6814  0.0512 -0.0575
  682POPI    C310495   2.825  14.633   5.696  0.1685  0.0262 -0.0840
  682POPI   PO410496   2.918  15.383   5.675  0.1915  0.0750 -0.1884
  682POPI   GL110497   2.836  15.754   5.998 -0.4528  0.1821 -0.4192
  682POPI   GL210498   3.095  16.022   6.140 -0.3788 -0.0619 -0.2094
  682POPI   C1A10499   2.669  15.642   6.296  0.0159 -0.2353  0.2059
  682POPI   D2A10500   2.605  15.818   6.800 -0.1884 -0.4978  0.0397
  682POPI   C3A10501   2.796  15.720   7.218  0.1749 -0.2072 -0.0105
  682POPI   C4A10502   3.133  15.571   7.464  0.1089  0.3477  0.2257
  682POPI   C1B10503   3.101  15.702   6.527 -0.1299 -0.1595  0.0167
  682POPI   C2B10504   3.018  15.347   6.763 -0.1122 -0.1299 -0.0709
  682POPI   C3B10505   2.667  15.244   6.961  0.1293  0.2835  0.1682
  682POPI   C4B10506   2.434  14.853   6.957 -0.0515  0.0567 -0.0445
  683POPI    C110507   3.701  18.313   5.119 -0.4043  0.1922 -0.1788
  683POPI    C210508   4.088  18.246   5.043 -0.4213 -0.2878  0.1206
  683POPI    C310509   3.876  18.485   4.803  0.0614 -0.0037 -0.0360
  683POPI   PO410510   3.700  18.301   5.482 -0.0291  0.0026 -0.2028
  683POPI   GL110511   3.853  18.485   5.898  0.0448 -0.2075 -0.2259
  683POPI   GL210512   4.001  18.763   5.818  0.2094  0.0970  0.1441
  683POPI   C1A10513   3.923  18.680   6.362 -0.0317  0.1445  0.0114
  683POPI   D2A10514   3.990  18.688   6.889 -0.2445  0.1903 -0.0055
  683POPI   C3A10515   4.253  18.998   7.068 -0.3461  0.1264 -0.1951
  683POPI   C4A10516   4.137  19.386   7.122 -0.1734  0.0434 -0.3191
  683POPI   C1B10517   3.983  19.110   6.075  0.2165 -0.0074 -0.0031
  683POPI   C2B10518   3.921  19.516   6.119 -0.2643  0.1151  0.4295
  683POPI   C3B10519   3.773  19.882   6.182 -0.2314  0.1635 -0.0623
  683POPI   C4B10520   3.622  20.240   6.233 -0.1940 -0.4711  0.3250
  684POPI    C110521  10.549   3.910   5.230  0.0510  0.1385 -0.0567
  684POPI    C210522  10.670   4.096   4.897  0.1218 -0.0324 -0.1272
  684POPI    C310523  10.877   3.785   5.039 -0.0708 -0.1433 -0.0854
  684POPI   PO410524  10.396   3.997   5.390 -0.3796 -0.4590  0.0664
  684POPI   GL110525  10.024   4.055   5.588 -0.4493  0.0112  0.1993
  684POPI   GL210526   9.742   4.117   5.739 -0.0776  0.1280 -0.1450
  684POPI   C1A10527  10.102   4.286   5.993  0.4195  0.4110 -0.1598
  684POPI   D2A10528  10.319   4.158   6.314  0.1006 -0.0581  0.2109
  684POPI   C3A10529  10.564   4.448   6.695  0.3818  0.2086 -0.3154
  684POPI   C4A10530  10.927   4.472   7.074 -0.0481 -0.0833  0.0565
  684POPI   C1B10531   9.600   3.816   6.040 -0.2005 -0.3804 -0.2120
  684POPI   C2B10532   9.556   3.588   6.448  0.2112  0.2581 -0.0296
  684POPI   C3B10533   9.741   3.741   6.893  0.0771 -0.2082 -0.0407
  684POPI   C4B10534   9.937   3.512   7.263 -0.1293 -0.0994 -0.2142
  685POPI    C110535   1.341  11.266   5.377 -0.0353  0.0309  0.0037
  685POPI    C210536   1.045  11.453   5.571 -0.0664 -0.1232  0.1070
  685POPI    C310537   1.001  11.354   5.186 -0.0427  0.0968  0.0468
  685POPI   PO410538   1.389  11.050   5.450 -0.4381 -0.0489  0.2532
  685POPI   GL110539   1.518  11.010   5.800 -0.0173  0.0364 -0.0997
  685POPI   GL210540   1.812  11.173   5.754 -0.1367 -0.1417 -0.2799
  685POPI   C1A10541   1.583  10.967   6.247  0.3555  0.1575  0.3139
  685POPI   D2A10542   1.385  10.818   6.674  0.3255 -0.1512 -0.1296
  685POPI   C3A10543   1.441  11.017   7.160 -0.0726 -0.0390  0.0206
  685POPI   C4A10544   1.085  10.865   7.445 -0.5115  0.1478 -0.1171
  685POPI   C1B10545   1.813  11.399   6.156 -0.0126  0.0890  0.2685
  685POPI   C2B10546   1.676  11.682   6.512  0.4676  0.1430 -0.0129
  685POPI   C3B10547   1.435  11.659   6.917 -0.1145  0.2617 -0.1769
  685POPI   C4B10548   1.327  11.525   7.361 -0.1715 -0.0063 -0.2609
  686POPI    C110549   8.306   3.026   5.541  0.0007 -0.1461  0.0808
  686POPI    C210550   7.981   2.933   5.755 -0.0348  0.1719  0.1690
  686POPI    C310551   7.942   3.120   5.403  0.0184 -0.4216 -0.1646
  686POPI   PO410552   8.396   2.797   5.480  0.1205  0.2911  0.1154
  686POPI   GL110553   8.397   2.517   5.865 -0.4539 -0.2688 -0.0591
  686POPI   GL210554   8.565   2.765   5.933  0.1059  0.1852  0.0975
  686POPI   C1A10555   8.277   2.327   6.329  0.0731 -0.1648  0.0343
  686POPI   D2A10556   8.365   2.132   6.749  0.2369 -0.0182 -0.1037
  686POPI   C3A10557   8.447   2.306   7.085  0.4311  0.1260 -0.4569
  686POPI   C4A10558   8.795   2.373   7.424  0.1939 -0.0636 -0.4777
  686POPI   C1B10559   8.561   2.750   6.444 -0.0564  0.0736  0.0493
  686POPI   C2B10560   8.622   2.737   6.791  0.0158  0.0959  0.1031
  686POPI   C3B10561   8.428   2.766   7.078  0.2481 -0.3049  0.2555
  686POPI   C4B10562   8.498   2.986   7.493  0.6527 -0.1180 -0.2030
  687POPI    C110563   9.860  13.606   5.567 -0.2147 -0.1174 -0.0283
  687POPI    C210564   9.883  13.955   5.761  0.1971 -0.0352 -0.2137
  687POPI    C310565   9.667  13.926   5.425  0.1110  0.0235 -0.1637
  687POPI   PO410566   9.920  13.425   5.810 -0.2086  0.0508  0.2930
  687POPI   GL110567   9.987  13.129   5.985  0.0541  0.0516  0.2711
  687POPI   GL210568   9.979  13.299   6.305  0.0594  0.0107 -0.6583
  687POPI   C1A10569   9.957  12.792   6.261  0.1430 -0.2107  0.2677
  687POPI   D2A10570  10.351  12.483   6.279  0.2515 -0.1111  0.2222
  687POPI   C3A10571  10.305  12.012   6.225 -0.1023  0.0168  0.0505
  687POPI   C4A10572  10.615  11.738   6.254  0.0265 -0.0919 -0.0161
  687POPI   C1B10573   9.983  13.286   6.896  0.0975  0.1219  0.3398
  687POPI   C2B10574  10.139  13.319   7.224  0.3082  0.0842  0.2083
  687POPI   C3B10575  10.083  13.601   7.633  0.3441  0.1103  0.1807
  687POPI   C4B10576  10.056  14.024   7.516  0.0192 -0.2057 -0.1233
  688POPI    C110577  17.196  13.408   5.755 -0.1036  0.3225  0.0827
  688POPI    C210578  16.959  13.153   5.557  0.0812  0.3155 -0.1335
  688POPI    C310579  16.875  13.544   5.558 -0.0594  0.2859 -0.0156
  688POPI   PO410580  17.297  13.291   5.960  0.0509  0.3217 -0.0330
  688POPI   GL110581  17.494  13.506   6.345  0.0516 -0.1936  0.1811
  688POPI   GL210582  17.247  13.404   6.404  0.1466  0.0505 -0.1428
  688POPI   C1A10583  17.786  13.726   6.636 -0.5503  0.2803  0.0072
  688POPI   D2A10584  18.033  13.983   6.948 -0.1205  0.3864  0.3778
  688POPI   C3A10585  18.015  14.098   7.287 -0.0057  0.0475 -0.0919
  688POPI   C4A10586  17.849  14.137   7.731 -0.2500  0.0037 -0.0574
  688POPI   C1B10587  17.298  13.265   6.808 -0.1355 -0.2364 -0.1939
  688POPI   C2B10588  17.419  13.314   7.302  0.0972  0.0827  0.1394
  688POPI   C3B10589  17.369  13.389   7.765 -0.1737 -0.1025  0.2215
  688POPI   C4B10590  17.352  13.679   8.138 -0.3917  0.1045 -0.0570
  689POPI    C110591   4.113   5.352   5.564 -0.0473  0.0905  0.0605
  689POPI    C210592   4.429   5.565   5.442  0.0095  0.0690  0.1691
  689POPI    C310593   4.064   5.649   5.300  0.1330 -0.2402 -0.3575
  689POPI   PO410594   4.157   5.062   5.473 -0.2119  0.1605 -0.0731
  689POPI   GL110595   4.101   4.852   5.814 -0.1838 -0.0160 -0.0081
  689POPI   GL210596   4.210   4.999   6.086  0.3262 -0.1099  0.1908
  689POPI   C1A10597   3.810   5.228   5.935 -0.0246  0.1189  0.0462
  689POPI   D2A10598   3.851   5.534   6.280 -0.0835  0.0123  0.0801
  689POPI   C3A10599   3.500   5.784   6.344 -0.1846 -0.2396  0.0474
  689POPI   C4A10600   3.169   6.044   6.131  0.2683 -0.0193 -0.0468
  689POPI   C1B10601   4.485   5.046   6.400 -0.4030  0.0617  0.0418
  689POPI   C2B10602   4.598   5.145   6.787 -0.0816 -0.2938  0.1789
  689POPI   C3B10603   4.856   5.569   6.936 -0.4813 -0.0239 -0.1472
  689POPI   C4B10604   4.795   6.083   6.889  0.2571 -0.0539  0.0309
  690POPI    C110605   3.753   1.028   4.963  0.0454  0.0538  0.1191
  690POPI    C210606   3.756   0.659   4.808 -0.1383  0.0817  0.0469
  690POPI    C310607   4.077   0.797   5.002 -0.1231 -0.1726  0.2069
  690POPI   PO410608   3.498   1.006   5.166  0.0316  0.1289  0.1041
  690POPI   GL110609   3.313   1.181   5.545 -0.1792  0.1253 -0.1753
  690POPI   GL210610   3.380   1.449   5.622  0.3317  0.4751 -0.2117
  690POPI   C1A10611   3.240   1.115   5.991 -0.0794  0.1455  0.2094
  690POPI   D2A10612   3.225   1.103   6.438 -0.3071 -0.0250 -0.3253
  690POPI   C3A10613   3.431   1.378   6.719 -0.0835 -0.4768 -0.2314
  690POPI   C4A10614   3.645   1.644   6.921 -0.1821  0.2749 -0.1099
  690POPI   C1B10615   3.137   1.597   6.005 -0.0295 -0.2122  0.2827
  690POPI   C2B10616   3.118   1.676   6.401  0.4211  0.1154 -0.2558
  690POPI   C3B10617   3.261   1.968   6.762  0.1996 -0.1113 -0.0080
  690POPI   C4B10618   3.634   2.181   6.836  0.1577 -0.1601  0.1736
  691POPI    C110619   9.916   3.305   5.361  0.1944  0.2069  0.0048
  691POPI    C210620   9.975   3.316   4.965  0.1425  0.1167 -0.0057
  691POPI    C310621   9.604   3.286   5.112  0.1739 -0.0272  0.0460
  691POPI   PO410622  10.104   3.548   5.455 -0.1721 -0.1296  0.0816
  691POPI   GL110623  10.413   3.652   5.847 -0.3572 -0.2319  0.0899
  691POPI   GL210624  10.594   3.658   6.117 -0.0785  0.3287  0.2150
  691POPI   C1A10625  10.102   3.750   6.081 -0.2528 -0.0085  0.1449
  691POPI   D2A10626   9.971   3.809   6.480 -0.2927  0.0141  0.2958
  691POPI   C3A10627   9.675   4.135   6.501 -0.0320  0.0461 -0.1137
  691POPI   C4A10628   9.287   4.227   6.800 -0.1074  0.2437  0.0174
  691POPI   C1B10629  10.825   3.853   6.318 -0.1753  0.1085  0.2928
  691POPI   C2B10630  10.706   3.966   6.749 -0.0333  0.0736  0.2553
  691POPI   C3B10631  10.920   3.954   7.150  0.2141  0.3369  0.0231
  691POPI   C4B10632  10.997   4.092   7.566  0.0740  0.4582  0.1469
  692POPI    C110633   0.305   2.757   5.083  0.2924 -0.0320 -0.4932
  692POPI    C210634  -0.002   2.553   4.928  0.1192 -0.1873  0.0344
  692POPI    C310635   0.360   2.385   4.947  0.0515 -0.3215  0.1596
  692POPI   PO410636   0.227   2.975   5.311  0.2921  0.1537 -0.2352
  692POPI   GL110637  -0.093   3.346   5.373 -0.2671 -0.0115 -0.1263
  692POPI   GL210638   0.020   3.303   5.632 -0.0555  0.3814  0.1872
  692POPI   C1A10639  -0.341   3.613   5.543  0.0039  0.0275 -0.0956
  692POPI   D2A10640  -0.096   3.795   5.894  0.1556  0.3708 -0.1070
  692POPI   C3A10641  -0.187   3.948   6.304  0.1555  0.0399  0.0840
  692POPI   C4A10642  -0.589   4.252   6.438 -0.2512 -0.0707  0.0038
  692POPI   C1B10643   0.002   3.291   6.033 -0.0253 -0.1703 -0.0743
  692POPI   C2B10644  -0.177   3.058   6.290  0.1659 -0.3474 -0.4066
  692POPI   C3B10645  -0.038   3.010   6.639  0.2775 -0.1873 -0.2236
  692POPI   C4B10646   0.184   2.958   6.990 -0.1398 -0.1971  0.0434
  693POPI    C110647   5.452   7.692   4.923  0.1149  0.1591 -0.0588
  693POPI    C210648   5.147   7.570   4.694  0.1265  0.3537 -0.1801
  693POPI    C310649   5.520   7.570   4.548  0.1833  0.1356 -0.0388
  693POPI   PO410650   5.243   7.798   5.156  0.1927  0.3283  0.2652
  693POPI   GL110651   4.929   7.959   5.344  0.0388  0.1357 -0.1203
  693POPI   GL210652   5.206   8.168   5.541 -0.0147 -0.3087  0.3238
  693POPI   C1A10653   4.923   7.912   5.841 -0.0849 -0.2011 -0.2591
  693POPI   D2A10654   4.662   7.996   6.144  0.0275 -0.1763  0.1099
  693POPI   C3A10655   4.793   8.111   6.583 -0.1051  0.1085 -0.0634
  693POPI   C4A10656   4.789   8.057   7.087  0.0637  0.1174  0.0686
  693POPI   C1B10657   5.404   8.071   5.971 -0.2836  0.0148  0.2221
  693POPI   C2B10658   5.138   7.758   6.271 -0.0456 -0.2005 -0.0460
  693POPI   C3B10659   5.140   7.754   6.710 -0.3563 -0.0083 -0.1748
  693POPI   C4B10660   4.935   7.512   7.035  0.1670  0.1343  0.1588
  694POPI    C110661  10.459   8.861   5.781  0.0632 -0.1819 -0.0375
  694POPI    C210662  10.758   9.122   5.830  0.0716 -0.1666 -0.1679
  694POPI    C310663  10.806   8.740   5.940  0.0809 -0.1277 -0.0350
  694POPI   PO410664  10.250   9.036   5.927 -0.0614 -0.2717  0.2477
  694POPI   GL110665  10.068   9.375   6.052  0.1428 -0.0729 -0.3374
  694POPI   GL210666  10.053   9.607   5.914  0.0580  0.2697 -0.1549
  694POPI   C1A10667   9.917   9.432   6.509  0.1042  0.1442  0.1823
  694POPI   D2A10668   9.924   9.759   6.798  0.1092 -0.0184  0.1466
  694POPI   C3A10669  10.220   9.828   7.163  0.1807 -0.0103 -0.0743
  694POPI   C4A10670  10.666   9.810   7.339 -0.1301 -0.1151 -0.0363
  694POPI   C1B10671  10.058   9.869   6.320 -0.1232 -0.0851 -0.0499
  694POPI   C2B10672  10.348   9.996   6.666 -0.3146 -0.0494  0.0558
  694POPI   C3B10673  10.363  10.336   6.960  0.1390  0.1693 -0.1834
  694POPI   C4B10674  10.528  10.644   7.146  0.1462 -0.2214  0.0959
  695POPI    C110675  12.829   3.033   5.389  0.0672  0.0546 -0.1123
  695POPI    C210676  12.772   2.659   5.259  0.0655  0.0342 -0.0535
  695POPI    C310677  12.900   2.942   5.006 -0.0801  0.0292 -0.1343
  695POPI   PO410678  12.967   2.927   5.697 -0.0685 -0.0502 -0.0479
  695POPI   GL110679  13.317   3.090   5.961 -0.0574 -0.0856 -0.1812
  695POPI   GL210680  13.695   3.255   5.978  0.4177 -0.1007  0.1809
  695POPI   C1A10681  13.263   3.434   6.195  0.1217  0.4484 -0.1608
  695POPI   D2A10682  13.347   3.393   6.580  0.1606  0.1705  0.0433
  695POPI   C3A10683  13.391   3.077   6.888 -0.1441 -0.0722  0.0075
  695POPI   C4A10684  13.302   2.784   7.204  0.3896  0.0655 -0.0349
  695POPI   C1B10685  13.696   3.030   6.352 -0.0511  0.3222  0.0050
  695POPI   C2B10686  13.854   3.212   6.700  0.2684 -0.0709  0.0705
  695POPI   C3B10687  13.737   3.330   7.091  0.1090 -0.3597  0.0770
  695POPI   C4B10688  13.467   3.295   7.346  0.0319 -0.3275  0.1073
  696POPI    C110689   5.327   1.306   5.345 -0.3459  0.2063  0.2521
  696POPI    C210690   4.995   1.448   5.173 -0.2307  0.1228 -0.0461
  696POPI    C310691   5.333   1.417   4.960 -0.0675  0.0748  0.2153
  696POPI   PO410692   5.232   1.238   5.559 -0.1169 -0.0934 -0.1490
  696POPI   GL110693   5.383   1.085   5.980 -0.2068 -0.0934  0.0138
  696POPI   GL210694   5.224   0.718   5.997  0.1568  0.1611 -0.0467
  696POPI   C1A10695   5.215   1.071   6.396  0.1349  0.0094  0.2687
  696POPI   D2A10696   5.102   1.090   6.900 -0.2845 -0.1105  0.1577
  696POPI   C3A10697   5.216   1.049   7.201 -0.0607  0.2297  0.1533
  696POPI   C4A10698   5.375   0.945   7.583  0.0692 -0.0347  0.1453
  696POPI   C1B10699   4.999   0.666   6.328 -0.0490 -0.1197  0.3507
  696POPI   C2B10700   4.705   0.936   6.599 -0.0841  0.0892 -0.0284
  696POPI   C3B10701   4.556   1.300   6.803 -0.0792 -0.1751  0.1432
  696POPI   C4B10702   4.473   1.674   6.687  0.1822  0.1898 -0.4316
  697POPI    C110703  10.273   7.945   5.454  0.0789  0.1653  0.2489
  697POPI    C210704  10.192   7.553   5.475  0.2550  0.1147  0.0251
  697POPI    C310705  10.534   7.678   5.309  0.1261  0.3710 -0.0529
  697POPI   PO410706  10.063   8.007   5.655  0.2887 -0.0045  0.0377
  697POPI   GL110707   9.833   8.080   5.937  0.2435 -0.0011  0.0731
  697POPI   GL210708   9.564   8.054   6.115  0.0215  0.1199  0.0132
  697POPI   C1A10709   9.956   8.365   6.206 -0.3605 -0.2021 -0.0786
  697POPI   D2A10710   9.918   8.316   6.609  0.1795  0.1522 -0.0673
  697POPI   C3A10711   9.656   8.505   6.868 -0.2746 -0.2762  0.0475
  697POPI   C4A10712   9.464   8.673   7.232  0.0885  0.2308 -0.0083
  697POPI   C1B10713   9.696   7.768   6.421 -0.0498  0.2095  0.0565
  697POPI   C2B10714   9.813   7.824   6.760 -0.0475  0.2789 -0.1397
  697POPI   C3B10715   9.893   8.103   7.027 -0.0413  0.1206 -0.0904
  697POPI   C4B10716   9.756   8.260   7.394 -0.1789 -0.3229  0.2843
  698POPI    C110717   1.892   3.604   5.230  0.0906  0.0253  0.1962
  698POPI    C210718   2.093   3.336   5.449  0.1133 -0.0809  0.0464
  698POPI    C310719   2.167   3.370   5.057  0.0255  0.0618  0.0417
  698POPI   PO410720   1.815   3.784   5.458 -0.0162 -0.1131  0.1858
  698POPI   GL110721   1.947   3.907   5.863 -0.0826  0.0383 -0.1061
  698POPI   GL210722   2.224   3.605   5.869  0.1647 -0.1568  0.0855
  698POPI   C1A10723   1.925   4.118   6.297  0.1097 -0.2474  0.2056
  698POPI   D2A10724   2.282   4.137   6.620  0.0877  0.0347  0.2969
  698POPI   C3A10725   2.135   4.215   6.866  0.0041 -0.1027  0.2168
  698POPI   C4A10726   2.030   4.514   7.107 -0.0945 -0.2537  0.1555
  698POPI   C1B10727   2.229   3.670   6.338  0.2220  0.0793 -0.0263
  698POPI   C2B10728   1.898   3.772   6.633 -0.2750 -0.1596 -0.1459
  698POPI   C3B10729   1.609   3.905   6.908  0.0519 -0.0132  0.1355
  698POPI   C4B10730   1.130   3.808   7.057 -0.2167 -0.1115 -0.0780
  699POPI    C110731  13.173  17.354   5.982 -0.0529  0.0834  0.1573
  699POPI    C210732  13.329  17.184   5.656 -0.1115  0.1564  0.0909
  699POPI    C310733  13.360  17.579   5.710  0.1151  0.1129  0.2954
  699POPI   PO410734  12.963  17.196   6.024  0.1265 -0.1387 -0.1662
  699POPI   GL110735  12.891  17.153   6.500 -0.1892 -0.3256 -0.1598
  699POPI   GL210736  13.088  16.978   6.481  0.0731 -0.2790  0.0148
  699POPI   C1A10737  12.937  16.896   6.915  0.1288 -0.0144  0.0056
  699POPI   D2A10738  12.990  16.727   7.243 -0.0563 -0.1920  0.0854
  699POPI   C3A10739  13.378  16.707   7.338  0.0157  0.0155 -0.4387
  699POPI   C4A10740  13.630  16.591   7.746 -0.1204  0.1540 -0.2408
  699POPI   C1B10741  13.411  16.797   6.737 -0.3381  0.2246  0.0916
  699POPI   C2B10742  13.788  16.771   6.984 -0.1962 -0.1433 -0.2837
  699POPI   C3B10743  14.037  16.701   7.312 -0.1076  0.0961 -0.0117
  699POPI   C4B10744  14.140  16.582   7.713 -0.2676  0.1978 -0.1579
  700POPI    C110745  13.504  18.164   6.401 -0.1880  0.0509 -0.2250
  700POPI    C210746  13.851  18.139   6.203 -0.1104  0.1275 -0.0998
  700POPI    C310747  13.641  17.808   6.279 -0.1216  0.0934 -0.2755
  700POPI   PO410748  13.382  18.462   6.308  0.0685  0.1905  0.0229
  700POPI   GL110749  13.016  18.748   6.509  0.1130 -0.0514  0.1299
  700POPI   GL210750  12.767  18.797   6.678  0.1983 -0.0453  0.1332
  700POPI   C1A10751  13.241  19.055   6.841  0.0459 -0.0181 -0.0057
  700POPI   D2A10752  13.379  18.982   7.224  0.1717 -0.0378  0.0765
  700POPI   C3A10753  13.054  18.947   7.498 -0.5280  0.1551 -0.0774
  700POPI   C4A10754  12.877  19.128   7.833 -0.0008 -0.0231  0.3063
  700POPI   C1B10755  12.644  18.726   7.017 -0.2087 -0.1216 -0.1190
  700POPI   C2B10756  12.598  18.382   7.199 -0.0402  0.2391 -0.0308
  700POPI   C3B10757  12.908  18.257   7.570 -0.2366  0.3966  0.0930
  700POPI   C4B10758  13.304  18.105   7.602 -0.1798 -0.2575  0.2639
  701POPS   CNO10759  11.715   2.320   5.524  0.0455 -0.3815 -0.1766
  701POPS   PO410760  11.615   2.440   5.846  0.1459 -0.0688 -0.1832
  701POPS   GL110761  11.484   2.599   6.304 -0.0288 -0.2088 -0.0319
  701POPS   GL210762  11.571   2.845   6.203  0.1107 -0.1015 -0.1455
  701POPS   C1A10763  11.260   2.556   6.688 -0.0909  0.0517  0.1827
  701POPS   D2A10764  11.262   2.313   7.061  0.0161 -0.0384 -0.0161
  701POPS   C3A10765  11.523   2.175   7.382  0.1712 -0.0016  0.1404
  701POPS   C4A10766  11.552   2.207   7.843  0.4032  0.0442 -0.0504
  701POPS   C1B10767  11.335   3.056   6.501  0.3882 -0.1995 -0.2125
  701POPS   C2B10768  11.251   3.131   6.974 -0.1272 -0.0321 -0.2437
  701POPS   C3B10769  11.097   2.782   7.226  0.0214  0.0877 -0.2652
  701POPS   C4B10770  11.264   2.581   7.596 -0.1661  0.1215 -0.0213
  702POPS   CNO10771   0.044   5.761   4.977 -0.2524  0.0643 -0.0480
  702POPS   PO410772   0.214   6.097   5.080 -0.1734  0.0222  0.0317
  702POPS   GL110773   0.101   6.127   5.468 -0.3464  0.0160 -0.0708
  702POPS   GL210774   0.055   5.785   5.614 -0.1749 -0.2649 -0.0625
  702POPS   C1A10775   0.231   6.000   5.999 -0.0381  0.0826  0.0961
  702POPS   D2A10776   0.636   5.948   6.292  0.0842 -0.1515  0.0624
  702POPS   C3A10777   0.739   5.756   6.641 -0.0363  0.0476 -0.1750
  702POPS   C4A10778   0.658   5.536   6.995  0.1073  0.0373 -0.1356
  702POPS   C1B10779   0.592   5.742   5.786  0.2032  0.2108 -0.3281
  702POPS   C2B10780   0.873   5.483   6.053  0.1563  0.2714 -0.0160
  702POPS   C3B10781   1.011   5.427   6.471 -0.2277 -0.0356  0.1905
  702POPS   C4B10782   1.030   5.210   6.911 -0.0894 -0.3023 -0.2190
  703POPS   CNO10783  14.696  17.096   5.789  0.2361 -0.0391 -0.1440
  703POPS   PO410784  15.020  17.288   6.004 -0.1727  0.3037  0.1576
  703POPS   GL110785  14.718  17.156   6.341 -0.2640 -0.0724 -0.1277
  703POPS   GL210786  14.978  16.912   6.454  0.1453 -0.0600 -0.0235
  703POPS   C1A10787  14.693  17.293   6.763  0.4307  0.4880 -0.0047
  703POPS   D2A10788  14.866  17.173   7.136 -0.0650 -0.2617 -0.2631
  703POPS   C3A10789  14.845  17.217   7.559 -0.1428 -0.0216 -0.2560
  703POPS   C4A10790  14.627  17.576   7.753 -0.1494 -0.0084  0.0583
  703POPS   C1B10791  15.177  17.081   6.773  0.0959 -0.0496 -0.1526
  703POPS   C2B10792  15.358  17.444   7.060  0.2600 -0.0639  0.1519
  703POPS   C3B10793  15.570  17.654   7.392  0.0735  0.1580 -0.6404
  703POPS   C4B10794  15.595  17.719   7.782  0.3570  0.0350  0.0783
  704POPS   CNO10795  13.555  13.805   5.965  0.1964  0.1121  0.4602
  704POPS   PO410796  13.455  13.454   5.736 -0.1512  0.1199  0.0448
  704POPS   GL110797  13.475  13.309   6.149  0.2868 -0.0808 -0.0075
  704POPS   GL210798  13.221  13.174   6.390  0.1739  0.1434  0.2082
  704POPS   C1A10799  13.713  13.177   6.458 -0.1711  0.3151 -0.1150
  704POPS   D2A10800  13.826  13.418   6.779  0.0064 -0.0985 -0.0368
  704POPS   C3A10801  13.877  13.287   7.274 -0.1801  0.2239 -0.0504
  704POPS   C4A10802  13.657  13.022   7.472 -0.0017 -0.2234 -0.0583
  704POPS   C1B10803  13.237  13.399   6.674 -0.0294  0.0784 -0.0482
  704POPS   C2B10804  13.347  13.271   7.148 -0.0703  0.0577 -0.2254
  704POPS   C3B10805  13.184  13.143   7.627 -0.0736  0.2130 -0.2052
  704POPS   C4B10806  13.257  12.702   7.791 -0.1901  0.0521  0.1165
  705POPS   CNO10807  18.473   7.908   5.431 -0.0331  0.0872  0.2200
  705POPS   PO410808  18.820   7.984   5.621 -0.1080  0.1044 -0.1553
  705POPS   GL110809  18.764   7.944   6.034 -0.3797 -0.2043  0.4537
  705POPS   GL210810  18.385   7.902   5.900  0.0170 -0.1185  0.1533
  705POPS   C1A10811  18.758   8.011   6.521 -0.0746 -0.3092 -0.1475
  705POPS   D2A10812  18.759   8.244   6.890 -0.0605 -0.0318 -0.0372
  705POPS   C3A10813  18.580   8.350   7.359  0.2885  0.0472 -0.3452
  705POPS   C4A10814  18.776   8.163   7.716  0.2595  0.1380  0.2158
  705POPS   C1B10815  18.437   7.683   6.368  0.2065  0.1979  0.1872
  705POPS   C2B10816  18.785   7.554   6.639  0.1207 -0.2640  0.0562
  705POPS   C3B10817  18.986   7.404   7.021  0.0696  0.0464  0.0795
  705POPS   C4B10818  19.240   7.078   7.135 -0.0696  0.0384 -0.1254
  706POPS   CNO10819   4.520  14.296   5.929  0.1577  0.2252 -0.3473
  706POPS   PO410820   4.112  14.644   5.939 -0.1726 -0.0613 -0.2465
  706POPS   GL110821   4.020  14.658   6.320 -0.0752  0.0565 -0.1106
  706POPS   GL210822   4.211  14.396   6.419  0.0191  0.0444  0.2326
  706POPS   C1A10823   3.817  14.739   6.693 -0.3910  0.0204  0.1113
  706POPS   D2A10824   3.925  14.722   7.114 -0.0212  0.1007  0.1941
  706POPS   C3A10825   3.603  14.554   7.295 -0.1635  0.1185 -0.0193
  706POPS   C4A10826   3.463  14.561   7.682 -0.1079  0.1872 -0.0601
  706POPS   C1B10827   4.381  14.552   6.797 -0.0599  0.0691  0.0152
  706POPS   C2B10828   4.561  14.775   7.180  0.0247 -0.0203  0.2308
  706POPS   C3B10829   4.774  15.079   7.256  0.2473 -0.0689 -0.1860
  706POPS   C4B10830   4.741  15.480   7.091 -0.0226 -0.3381 -0.1774
  707POPS   CNO10831  17.735   9.734   5.901  0.4324 -0.0567 -0.2283
  707POPS   PO410832  17.541   9.628   5.671 -0.1572 -0.1459  0.3161
  707POPS   GL110833  17.261   9.465   5.947  0.1844 -0.0103 -0.1484
  707POPS   GL210834  17.155   9.084   5.963  0.1236  0.2234  0.0752
  707POPS   C1A10835  17.155   9.667   6.362 -0.1062 -0.0319 -0.1153
  707POPS   D2A10836  17.111   9.662   6.783 -0.0686 -0.0453 -0.1646
  707POPS   C3A10837  17.372   9.308   6.847 -0.2364  0.2846  0.0136
  707POPS   C4A10838  17.614   9.080   7.057  0.1503 -0.1393  0.2356
  707POPS   C1B10839  16.877   9.257   6.268 -0.1803  0.2150  0.1384
  707POPS   C2B10840  16.947   9.161   6.722 -0.1028  0.1980 -0.1198
  707POPS   C3B10841  17.130   8.966   7.125 -0.2191  0.2088 -0.0064
  707POPS   C4B10842  17.384   8.962   7.506 -0.0918 -0.3634  0.0477
  708POPS   CNO10843   9.033  10.917   5.195 -0.0818  0.0128  0.0679
  708POPS   PO410844   8.876  10.533   5.064 -0.2879  0.0231  0.1508
  708POPS   GL110845   8.834  10.643   5.510  0.0427 -0.1033  0.0200
  708POPS   GL210846   8.762  10.873   5.789  0.3693  0.0797 -0.0147
  708POPS   C1A10847   8.860  10.417   5.825  0.1315  0.3932 -0.0722
  708POPS   D2A10848   8.590  10.474   6.138 -0.1004 -0.1305 -0.0197
  708POPS   C3A10849   8.330  10.179   6.395 -0.0937  0.0355  0.3341
  708POPS   C4A10850   8.223  10.062   6.763 -0.0412  0.2750  0.0271
  708POPS   C1B10851   8.642  10.958   6.184  0.0809 -0.2244  0.2852
  708POPS   C2B10852   8.688  11.129   6.487  0.1845  0.3440  0.1327
  708POPS   C3B10853   8.670  11.046   6.851 -0.4203  0.0291  0.1997
  708POPS   C4B10854   8.871  10.688   6.994 -0.1507  0.0021 -0.2470
  709POPS   CNO10855   3.469   4.109   4.900  0.2041 -0.0588 -0.0004
  709POPS   PO410856   3.147   4.389   5.235 -0.0118  0.0424 -0.3383
  709POPS   GL110857   3.436   4.372   5.663  0.3347  0.1050 -0.4415
  709POPS   GL210858   3.607   4.648   5.723 -0.0052 -0.0653  0.2142
  709POPS   C1A10859   3.433   4.285   6.075 -0.3761 -0.1702  0.1420
  709POPS   D2A10860   3.660   4.206   6.520  0.1532  0.4480  0.0719
  709POPS   C3A10861   3.786   4.508   6.871 -0.0772  0.0308  0.0449
  709POPS   C4A10862   3.927   4.667   7.210  0.1959  0.3513 -0.0483
  709POPS   C1B10863   3.778   4.648   6.162  0.3411 -0.0681  0.0926
  709POPS   C2B10864   4.072   4.730   6.437  0.1069 -0.0126  0.0569
  709POPS   C3B10865   4.302   4.686   6.852 -0.3577  0.3451  0.2120
  709POPS   C4B10866   4.594   4.595   7.163 -0.0201  0.1004  0.1798
  710POPS   CNO10867  17.342  14.021   6.222  0.0085  0.2490  0.3028
  710POPS   PO410868  17.109  13.849   5.955  0.1355 -0.1631  0.1483
  710POPS   GL110869  16.981  13.797   6.490  0.2890  0.2864 -0.2060
  710POPS   GL210870  16.926  14.134   6.578  0.0663  0.1177 -0.1405
  710POPS   C1A10871  17.227  13.757   6.785 -0.0367  0.2358  0.1845
  710POPS   D2A10872  17.610  13.733   7.110 -0.0051 -0.0920 -0.0587
  710POPS   C3A10873  17.554  13.759   7.528  0.1955 -0.0533  0.0899
  710POPS   C4A10874  17.225  13.880   7.661  0.0260 -0.1305 -0.1244
  710POPS   C1B10875  16.890  14.145   6.971  0.2340  0.0416 -0.1325
  710POPS   C2B10876  16.945  14.247   7.413  0.1385  0.2004 -0.1496
  710POPS   C3B10877  16.982  14.459   7.818 -0.0767 -0.0910 -0.0754
  710POPS   C4B10878  16.939  14.852   7.941  0.4177 -0.3059  0.1047
  711POPS   CNO10879  12.086  10.986   5.908  0.2715 -0.2472  0.2226
  711POPS   PO410880  12.330  10.740   5.709 -0.0438  0.1285 -0.0157
  711POPS   GL110881  12.217  10.545   6.125 -0.3515  0.1206 -0.2661
  711POPS   GL210882  11.993  10.223   6.067 -0.1038 -0.2936 -0.2157
  711POPS   C1A10883  11.984  10.429   6.571 -0.2634  0.1550  0.0658
  711POPS   D2A10884  11.883  10.315   6.922 -0.1657  0.4227 -0.2351
  711POPS   C3A10885  12.172  10.160   7.100  0.0845 -0.0436 -0.1735
  711POPS   C4A10886  12.105  10.003   7.522 -0.2348 -0.0054  0.1225
  711POPS   C1B10887  11.681   9.963   6.384  0.0912  0.1178  0.1154
  711POPS   C2B10888  11.487   9.615   6.323  0.0160 -0.1044  0.2419
  711POPS   C3B10889  11.592   9.327   6.534  0.1251  0.0177 -0.0221
  711POPS   C4B10890  11.403   8.986   6.620  0.1414  0.1841  0.0503
  712POPS   CNO10891   7.788   9.199   5.524  0.1344 -0.1427 -0.0331
  712POPS   PO410892   8.071   9.308   5.777  0.1713 -0.0289  0.3527
  712POPS   GL110893   7.969   9.102   6.090 -0.0539 -0.1749  0.1373
  712POPS   GL210894   7.638   9.000   6.174 -0.1845 -0.0184 -0.1519
  712POPS   C1A10895   8.157   8.991   6.377 -0.3418 -0.0285  0.3005
  712POPS   D2A10896   8.177   8.954   6.831  0.4161 -0.1514 -0.0437
  712POPS   C3A10897   8.039   9.003   7.257  0.2180  0.0263  0.3077
  712POPS   C4A10898   8.002   9.021   7.695 -0.1282  0.3105  0.2776
  712POPS   C1B10899   7.724   8.983   6.598  0.2785 -0.1324  0.1133
  712POPS   C2B10900   7.628   9.021   6.921  0.1136  0.1761  0.1952
  712POPS   C3B10901   7.495   8.982   7.384  0.1624  0.1213 -0.2780
  712POPS   C4B10902   7.290   9.309   7.665  0.0285  0.0871  0.0638
  713POPS   CNO10903  11.112  11.352   5.346 -0.0829 -0.0692 -0.0248
  713POPS   PO410904  10.738  11.355   5.212 -0.2068 -0.1050 -0.2167
  713POPS   GL110905  10.776  11.286   5.635 -0.1602  0.0431 -0.4735
  713POPS   GL210906  11.111  11.383   5.886 -0.2245  0.1849  0.1114
  713POPS   C1A10907  10.676  11.298   6.079 -0.1132 -0.1304 -0.1389
  713POPS   D2A10908  10.405  11.262   6.458  0.1823 -0.1654  0.0106
  713POPS   C3A10909  10.564  11.581   6.724 -0.2438 -0.0872 -0.2370
  713POPS   C4A10910  10.732  11.848   6.938 -0.4638  0.0797 -0.0988
  713POPS   C1B10911  11.258  11.235   6.346  0.2498 -0.0352  0.0182
  713POPS   C2B10912  11.500  11.289   6.492 -0.1565  0.1464 -0.3376
  713POPS   C3B10913  11.762  11.420   6.878  0.2527  0.1679 -0.0433
  713POPS   C4B10914  11.673  11.706   7.212 -0.0456 -0.3366  0.1465
  714POPS   CNO10915   5.415   8.992   5.454  0.0942 -0.0083 -0.3369
  714POPS   PO410916   5.881   8.975   5.424 -0.0601 -0.0041 -0.1550
  714POPS   GL110917   6.046   8.853   5.898  0.4445 -0.1902  0.1537
  714POPS   GL210918   5.888   9.143   6.082  0.0616  0.1950  0.1904
  714POPS   C1A10919   6.176   8.827   6.320  0.0849 -0.0978 -0.3409
  714POPS   D2A10920   6.068   8.749   6.695 -0.0203  0.2596 -0.0640
  714POPS   C3A10921   6.086   9.074   7.076 -0.0788  0.1376  0.0717
  714POPS   C4A10922   6.053   9.040   7.481 -0.0515  0.0385 -0.1337
  714POPS   C1B10923   5.581   9.257   6.512  0.1948  0.0825  0.1565
  714POPS   C2B10924   5.647   9.425   6.850 -0.3974  0.3620  0.0766
  714POPS   C3B10925   5.684   9.521   7.253 -0.1162 -0.0719 -0.1945
  714POPS   C4B10926   5.758   9.920   7.410 -0.2070 -0.1342  0.0320
  715POPS   CNO10927   7.762  14.741   5.229 -0.2470  0.0534 -0.1385
  715POPS   PO410928   7.624  14.610   5.598 -0.1073 -0.3492 -0.3982
  715POPS   GL110929   7.650  14.544   6.051  0.0464  0.0723  0.0464
  715POPS   GL210930   7.983  14.575   6.198 -0.1730 -0.0497 -0.0468
  715POPS   C1A10931   7.521  14.455   6.490 -0.1026 -0.3601  0.0811
  715POPS   D2A10932   7.390  14.079   6.703  0.2146 -0.0268 -0.4313
  715POPS   C3A10933   7.494  13.925   7.069  0.2081 -0.0084 -0.1920
  715POPS   C4A10934   7.255  13.623   7.276  0.2049  0.0180 -0.1849
  715POPS   C1B10935   8.052  14.512   6.687 -0.3887  0.1501  0.0776
  715POPS   C2B10936   7.689  14.446   6.961 -0.0713 -0.1140  0.2161
  715POPS   C3B10937   7.361  14.538   7.153 -0.0429  0.0474 -0.0150
  715POPS   C4B10938   7.342  14.759   7.471  0.2535  0.1186  0.0319
  716POPS   CNO10939   9.963   2.858   5.759 -0.2418 -0.2163 -0.0232
  716POPS   PO410940  10.289   2.615   5.915  0.1470  0.0331  0.0366
  716POPS   GL110941  10.017   2.884   6.237  0.1080  0.2339 -0.3278
  716POPS   GL210942  10.109   3.261   6.162  0.0913 -0.2332  0.0028
  716POPS   C1A10943   9.735   3.083   6.517 -0.0402  0.0757 -0.1121
  716POPS   D2A10944   9.604   3.246   6.817  0.2412  0.0783 -0.1135
  716POPS   C3A10945   9.467   3.252   7.195  0.2909  0.1173 -0.0578
  716POPS   C4A10946   9.550   3.651   7.546  0.2325  0.0474  0.1306
  716POPS   C1B10947  10.331   3.423   6.562 -0.1084  0.1997  0.1846
  716POPS   C2B10948  10.468   3.603   6.993  0.0177  0.0044 -0.1734
  716POPS   C3B10949  10.433   4.026   7.310  0.0276 -0.5399 -0.0707
  716POPS   C4B10950  10.255   4.311   7.612 -0.0457  0.2530  0.0560
  717POPS   CNO10951   3.873   6.181   5.220 -0.1149 -0.1743  0.0415
  717POPS   PO410952   3.839   6.574   5.451 -0.0008  0.2508  0.2424
  717POPS   GL110953   3.752   6.844   5.743  0.0187  0.1802  0.2176
  717POPS   GL210954   3.774   7.180   5.742 -0.0386  0.0242  0.4184
  717POPS   C1A10955   3.832   6.865   6.167  0.2189  0.0371  0.1391
  717POPS   D2A10956   3.785   6.700   6.572 -0.1986  0.1996 -0.2351
  717POPS   C3A10957   3.669   6.907   6.957 -0.3226  0.0509 -0.1319
  717POPS   C4A10958   3.257   7.121   7.034 -0.1508  0.0574  0.0958
  717POPS   C1B10959   3.839   7.335   6.114  0.0699 -0.1205 -0.1531
  717POPS   C2B10960   3.647   7.311   6.628  0.0179  0.0780 -0.0381
  717POPS   C3B10961   3.548   7.624   6.931  0.1617  0.3049 -0.0260
  717POPS   C4B10962   3.640   8.034   7.057 -0.1026  0.1544  0.0238
  718POPS   CNO10963  15.087  13.412   6.062 -0.0219  0.2249  0.0086
  718POPS   PO410964  14.931  13.891   6.058 -0.2850 -0.0801  0.1203
  718POPS   GL110965  14.917  13.934   6.495  0.1947  0.0353  0.2671
  718POPS   GL210966  15.182  13.700   6.455  0.0385 -0.3934  0.1515
  718POPS   C1A10967  15.024  13.939   6.889  0.3696 -0.3734 -0.1117
  718POPS   D2A10968  14.869  14.109   7.264  0.0840 -0.2509 -0.1963
  718POPS   C3A10969  15.026  14.422   7.521  0.1796  0.1281  0.0961
  718POPS   C4A10970  14.984  14.822   7.643  0.0663 -0.0765 -0.0929
  718POPS   C1B10971  15.461  13.431   6.672 -0.0766 -0.0554 -0.0622
  718POPS   C2B10972  15.499  13.260   7.110 -0.0443 -0.0404  0.2142
  718POPS   C3B10973  15.368  13.131   7.488 -0.1705  0.1284  0.1689
  718POPS   C4B10974  15.137  13.312   7.779 -0.3478 -0.4409 -0.0035
  719POPS   CNO10975  10.561  18.434   5.490  0.1904  0.2261 -0.0180
  719POPS   PO410976  10.647  18.786   5.835  0.0610  0.0516  0.0493
  719POPS   GL110977  10.491  18.778   6.243 -0.0934  0.2205 -0.1205
  719POPS   GL210978  10.793  18.577   6.354 -0.0562 -0.2889  0.0274
  719POPS   C1A10979  10.513  18.907   6.683  0.3766  0.0424  0.2012
  719POPS   D2A10980  10.574  19.049   7.038  0.0675  0.4243  0.0257
  719POPS   C3A10981  10.385  19.213   7.448 -0.0081  0.1788  0.0688
  719POPS   C4A10982   9.988  19.506   7.527 -0.1865 -0.2722 -0.0023
  719POPS   C1B10983  10.941  18.662   6.747 -0.1174  0.1009 -0.3614
  719POPS   C2B10984  10.830  18.595   7.189  0.0781  0.0867  0.1244
  719POPS   C3B10985  10.582  18.776   7.460 -0.2483  0.1839 -0.1882
  719POPS   C4B10986  10.346  18.545   7.838  0.0899  0.1786  0.0549
  720POPS   CNO10987  12.047   9.340   5.796 -0.1142  0.0244 -0.0178
  720POPS   PO410988  11.746   9.215   5.876  0.0875 -0.2185  0.0336
  720POPS   GL110989  11.933   9.150   6.271  0.0233  0.0279 -0.1836
  720POPS   GL210990  12.188   8.963   6.194  0.2124 -0.0891  0.1033
  720POPS   C1A10991  12.064   9.140   6.719 -0.0786  0.3186  0.1590
  720POPS   D2A10992  12.356   9.265   6.983 -0.1761  0.1100 -0.1735
  720POPS   C3A10993  12.263   9.456   7.323 -0.1263  0.1158  0.1680
  720POPS   C4A10994  12.313   9.614   7.775  0.3475 -0.0175 -0.3869
  720POPS   C1B10995  11.819   8.684   6.374 -0.0754  0.0949  0.3452
  720POPS   C2B10996  11.438   8.500   6.601 -0.1131  0.0055 -0.1225
  720POPS   C3B10997  11.292   8.518   6.989 -0.1399 -0.0116 -0.2568
  720POPS   C4B10998  11.191   8.763   7.417 -0.1418 -0.1197 -0.0889
  721POPS   CNO10999   4.640  15.711   5.767  0.1010 -0.1028 -0.0943
  721POPS   PO411000   5.040  15.689   5.676 -0.2545 -0.0485 -0.2498
  721POPS   GL111001   5.205  15.852   6.040 -0.3172  0.0805  0.0290
  721POPS   GL211002   5.453  16.150   5.978  0.1953 -0.1872  0.0920
  721POPS   C1A11003   4.938  16.076   6.394  0.4437 -0.3417  0.0898
  721POPS   D2A11004   4.757  16.008   6.820  0.0411  0.3128  0.1720
  721POPS   C3A11005   4.805  16.269   7.166 -0.1706  0.1866  0.2081
  721POPS   C4A11006   4.831  16.415   7.568  0.0540 -0.0410 -0.2759
  721POPS   C1B11007   5.407  16.235   6.450  0.1491 -0.2745  0.0985
  721POPS   C2B11008   5.219  16.115   6.859  0.1572  0.0600 -0.3817
  721POPS   C3B11009   5.386  16.162   7.214  0.2195 -0.0439  0.1134
  721POPS   C4B11010   5.773  16.421   7.390  0.1357 -0.0045 -0.0836
  722POPS   CNO11011  18.726   9.965   5.218  0.2265  0.0619 -0.3032
  722POPS   PO411012  19.112   9.806   5.214 -0.4163 -0.6162 -0.0970
  722POPS   GL111013  18.854   9.834   5.727 -0.0485 -0.1027 -0.3193
  722POPS   GL211014  18.839  10.217   5.669 -0.0523  0.1900 -0.1397
  722POPS   C1A11015  18.815   9.620   6.096 -0.0844  0.1268 -0.1289
  722POPS   D2A11016  18.825   9.396   6.472  0.0343  0.1151 -0.0455
  722POPS   C3A11017  19.134   9.177   6.637 -0.1296  0.0363 -0.1515
  722POPS   C4A11018  19.413   9.157   6.830  0.0201 -0.0381  0.2870
  722POPS   C1B11019  18.830  10.210   6.115 -0.0595 -0.2676 -0.0508
  722POPS   C2B11020  18.856  10.195   6.527  0.2019 -0.0790 -0.0591
  722POPS   C3B11021  18.688  10.207   6.968 -0.0223 -0.0658 -0.1372
  722POPS   C4B11022  18.572  10.567   7.220  0.0347  0.3484 -0.2051
  723POPS   CNO11023   1.650   6.307   4.757  0.6244  0.0621 -0.0031
  723POPS   PO411024   1.903   6.675   4.850 -0.1609  0.2786  0.1739
  723POPS   GL111025   1.963   6.597   5.315  0.1468  0.1205  0.0829
  723POPS   GL211026   2.263   6.548   5.467  0.0940  0.0225 -0.0048
  723POPS   C1A11027   1.650   6.724   5.667  0.1162  0.2314 -0.3972
  723POPS   D2A11028   1.320   6.812   5.906 -0.0535  0.0216 -0.0023
  723POPS   C3A11029   1.090   6.526   5.977  0.1525 -0.0670 -0.1387
  723POPS   C4A11030   0.956   6.164   5.821  0.2061  0.1069  0.0420
  723POPS   C1B11031   2.491   6.658   5.878 -0.0086 -0.2671  0.0273
  723POPS   C2B11032   2.449   6.297   6.205  0.4738  0.2764 -0.0066
  723POPS   C3B11033   2.237   6.097   6.694 -0.0036  0.1923 -0.2018
  723POPS   C4B11034   1.996   6.286   7.015  0.3850  0.0129  0.1439
  724POPS   CNO11035   4.946  13.797   5.411 -0.1395 -0.0419 -0.1258
  724POPS   PO411036   4.604  14.042   5.303  0.1470 -0.0066 -0.0502
  724POPS   GL111037   4.624  13.887   5.751 -0.0816  0.0164  0.1585
  724POPS   GL211038   4.380  13.691   5.915 -0.0301  0.1436  0.0434
  724POPS   C1A11039   4.912  13.967   6.114  0.1943  0.2448 -0.1763
  724POPS   D2A11040   5.206  14.207   6.309  0.1488  0.4418 -0.0251
  724POPS   C3A11041   5.299  14.266   6.797 -0.2327  0.2712  0.2151
  724POPS   C4A11042   5.490  14.219   7.239 -0.1313 -0.2561  0.2443
  724POPS   C1B11043   4.460  13.815   6.214  0.1606 -0.0721  0.1422
  724POPS   C2B11044   4.253  13.855   6.551  0.1360  0.1876  0.1857
  724POPS   C3B11045   4.292  13.894   6.944  0.1883  0.1047 -0.0845
  724POPS   C4B11046   3.962  13.743   7.248  0.1479  0.2745  0.1871
  725POPS   CNO11047   7.654   1.958   5.311 -0.0995 -0.1982  0.1316
  725POPS   PO411048   7.502   2.406   5.255  0.0551 -0.0451 -0.3013
  725POPS   GL111049   7.491   2.337   5.684 -0.1329 -0.2320 -0.2970
  725POPS   GL211050   7.391   2.025   5.747 -0.0358  0.1130 -0.0375
  725POPS   C1A11051   7.510   2.281   6.168  0.4113  0.0095  0.0528
  725POPS   D2A11052   7.640   2.486   6.531 -0.1947  0.1646  0.3233
  725POPS   C3A11053   7.508   2.567   7.017  0.2123  0.3376  0.2356
  725POPS   C4A11054   7.517   2.818   7.409  0.2157 -0.1055 -0.2169
  725POPS   C1B11055   7.306   1.863   6.024 -0.0149  0.1599 -0.1561
  725POPS   C2B11056   7.334   1.589   6.336  0.4112 -0.3069 -0.2266
  725POPS   C3B11057   7.454   1.585   6.756  0.2210 -0.4407  0.0815
  725POPS   C4B11058   7.825   1.457   7.073 -0.0654  0.1114  0.0298
  726POPS   CNO11059   0.543  14.049   5.490  0.0689  0.2661  0.0083
  726POPS   PO411060   0.793  13.679   5.446 -0.1008  0.0133 -0.1296
  726POPS   GL111061   0.817  13.387   5.807 -0.2577 -0.1663 -0.1000
  726POPS   GL211062   0.560  13.261   5.984 -0.0679  0.1440 -0.3652
  726POPS   C1A11063   0.955  13.264   6.213  0.1593 -0.1794 -0.1401
  726POPS   D2A11064   1.390  13.328   6.429 -0.0120  0.2066  0.1583
  726POPS   C3A11065   1.484  13.445   6.788  0.1427  0.0045  0.0257
  726POPS   C4A11066   1.620  13.698   7.161  0.5134  0.0479  0.2084
  726POPS   C1B11067   0.607  13.512   6.422 -0.0512 -0.0577 -0.2377
  726POPS   C2B11068   0.623  13.618   6.879 -0.4146  0.3838  0.4735
  726POPS   C3B11069   0.692  13.492   7.240  0.0509  0.2163 -0.1544
  726POPS   C4B11070   0.509  13.273   7.576 -0.2701  0.3070 -0.2905
  727POPS   CNO11071   2.788   6.539   5.383 -0.2285  0.3607 -0.0524
  727POPS   PO411072   2.947   6.977   5.263 -0.1540 -0.0149 -0.3665
  727POPS   GL111073   2.957   6.921   5.650 -0.0900 -0.0995  0.1650
  727POPS   GL211074   3.315   7.017   5.725  0.0886 -0.1704  0.5279
  727POPS   C1A11075   2.861   6.904   6.131  0.1721 -0.2494 -0.2085
  727POPS   D2A11076   2.690   6.913   6.538  0.2107 -0.2967  0.3063
  727POPS   C3A11077   2.776   7.049   7.002  0.5889 -0.3056 -0.1528
  727POPS   C4A11078   2.444   7.218   7.237 -0.0793  0.1988 -0.1766
  727POPS   C1B11079   3.407   7.078   6.221 -0.3757 -0.0634 -0.0409
  727POPS   C2B11080   3.219   6.899   6.492  0.1541 -0.3375  0.0731
  727POPS   C3B11081   3.045   6.669   6.806  0.0798 -0.0219  0.0452
  727POPS   C4B11082   3.037   6.219   6.922  0.2686  0.1681  0.0445
  728POPS   CNO11083   5.333   4.014   5.092  0.2016  0.2130  0.2451
  728POPS   PO411084   5.543   3.938   5.423 -0.0189  0.3373 -0.1282
  728POPS   GL111085   5.416   4.002   5.807  0.1981  0.0044  0.1277
  728POPS   GL211086   5.767   4.005   5.971  0.1781  0.3446 -0.1676
  728POPS   C1A11087   5.304   4.037   6.269 -0.2305  0.1869 -0.0453
  728POPS   D2A11088   5.293   3.768   6.625  0.1138 -0.0166  0.2765
  728POPS   C3A11089   5.502   3.821   6.932 -0.3809 -0.3610  0.2560
  728POPS   C4A11090   5.908   3.831   6.976 -0.3218  0.1348  0.3386
  728POPS   C1B11091   5.784   4.028   6.443 -0.1890 -0.4492 -0.2570
  728POPS   C2B11092   5.753   4.211   6.720  0.0703 -0.5309 -0.1826
  728POPS   C3B11093   5.608   4.312   7.129  0.2480 -0.0247  0.1484
  728POPS   C4B11094   5.500   4.396   7.560 -0.0077 -0.0226 -0.4940
  729POPS   CNO11095   8.424   1.580   5.677 -0.0098 -0.3279  0.2493
  729POPS   PO411096   8.676   1.883   5.550  0.1541 -0.1604 -0.2473
  729POPS   GL111097   8.755   1.752   6.009  0.0056  0.0625 -0.1029
  729POPS   GL211098   9.052   1.855   6.195  0.4461  0.1663 -0.2481
  729POPS   C1A11099   8.582   1.826   6.437  0.0970 -0.0773  0.0054
  729POPS   D2A11100   8.693   1.773   6.821  0.0304  0.0746  0.0741
  729POPS   C3A11101   8.624   1.860   7.234 -0.1711  0.0230 -0.1477
  729POPS   C4A11102   8.639   1.474   7.627  0.1424  0.1647 -0.0706
  729POPS   C1B11103   9.087   1.810   6.581 -0.1352 -0.1083 -0.2669
  729POPS   C2B11104   9.219   1.819   7.016 -0.0799 -0.0310 -0.1091
  729POPS   C3B11105   9.049   1.899   7.438 -0.2673 -0.0646 -0.2114
  729POPS   C4B11106   9.020   1.732   7.838 -0.3289 -0.2589 -0.1459
  730POPS   CNO11107   0.796   0.058   5.815 -0.0977  0.0144 -0.0193
  730POPS   PO411108   0.338  -0.090   5.775  0.0378  0.0399 -0.0732
  730POPS   GL111109   0.379  -0.114   6.202  0.1613  0.0200  0.1272
  730POPS   GL211110   0.606   0.119   6.259  0.0037  0.0964  0.1423
  730POPS   C1A11111   0.181  -0.054   6.597 -0.1366 -0.0903  0.1375
  730POPS   D2A11112  -0.100  -0.001   6.905  0.1659  0.0519  0.0624
  730POPS   C3A11113  -0.294  -0.045   7.216 -0.0435  0.4417  0.0098
  730POPS   C4A11114  -0.581   0.188   7.534  0.0817 -0.0479  0.1740
  730POPS   C1B11115   0.423   0.431   6.482 -0.1043  0.0567 -0.0563
  730POPS   C2B11116   0.368   0.831   6.871 -0.1307  0.0663 -0.1632
  730POPS   C3B11117   0.607   0.850   7.319  0.2368 -0.0148  0.4326
  730POPS   C4B11118   0.739   1.050   7.704 -0.1019  0.0214  0.0840
  731POPS   CNO11119  11.902   0.003   6.221  0.1979  0.2527  0.2218
  731POPS   PO411120  12.170   0.193   6.009 -0.0451 -0.0088  0.1161
  731POPS   GL111121  12.336   0.361   6.360  0.1705  0.0370 -0.0195
  731POPS   GL211122  12.339   0.069   6.475  0.0181 -0.0724 -0.3053
  731POPS   C1A11123  12.290   0.693   6.620  0.2525  0.0738 -0.1272
  731POPS   D2A11124  12.229   0.725   7.131  0.2785  0.3192 -0.1474
  731POPS   C3A11125  12.055   0.390   7.263  0.0886 -0.3008  0.1069
  731POPS   C4A11126  11.776   0.239   7.483  0.2834 -0.2100 -0.1100
  731POPS   C1B11127  12.238   0.140   6.886  0.1159 -0.3619 -0.1528
  731POPS   C2B11128  12.201  -0.092   7.347  0.1419  0.3792  0.4252
  731POPS   C3B11129  12.170  -0.503   7.446 -0.1202 -0.0157 -0.1827
  731POPS   C4B11130  12.177  -0.835   7.094  0.2248 -0.2898 -0.2214
  732POPS   CNO11131  12.436   5.695   5.566 -0.1743  0.1236 -0.1610
  732POPS   PO411132  12.541   6.162   5.533 -0.0863 -0.1407  0.2744
  732POPS   GL111133  12.498   6.073   5.916  0.2325 -0.2540 -0.1202
  732POPS   GL211134  12.650   5.707   6.010  0.2067  0.3677  0.2877
  732POPS   C1A11135  12.646   6.064   6.438 -0.0031  0.0116  0.2917
  732POPS   D2A11136  13.010   6.170   6.633 -0.3385  0.0735 -0.1315
  732POPS   C3A11137  12.894   6.322   6.972  0.1505  0.0065 -0.0398
  732POPS   C4A11138  12.886   6.374   7.502 -0.0062 -0.0277 -0.0662
  732POPS   C1B11139  12.413   5.642   6.350 -0.0962 -0.1311 -0.3744
  732POPS   C2B11140  12.244   5.571   6.726 -0.5155  0.1167 -0.0335
  732POPS   C3B11141  12.299   5.558   7.220  0.3591 -0.3878 -0.0970
  732POPS   C4B11142  12.274   5.699   7.650 -0.2391  0.2186  0.0253
  733POPS   CNO11143  13.273  16.341   5.777 -0.0286 -0.1294  0.0661
  733POPS   PO411144  13.626  16.419   5.946 -0.1411 -0.0135  0.0209
  733POPS   GL111145  13.691  16.352   6.295 -0.2714  0.2639 -0.1860
  733POPS   GL211146  14.004  16.332   6.408  0.2603  0.4775  0.0108
  733POPS   C1A11147  13.649  16.318   6.743 -0.0996 -0.1640 -0.2150
  733POPS   D2A11148  13.684  16.306   7.219 -0.4212 -0.1899 -0.4244
  733POPS   C3A11149  13.914  16.112   7.537 -0.0027  0.3645 -0.0457
  733POPS   C4A11150  14.118  15.761   7.684 -0.1603  0.1563  0.1491
  733POPS   C1B11151  14.152  16.554   6.812 -0.1345  0.0435 -0.2315
  733POPS   C2B11152  14.200  16.208   7.153  0.0427 -0.0046 -0.0187
  733POPS   C3B11153  14.567  16.080   7.566  0.0764  0.0531 -0.0317
  733POPS   C4B11154  14.921  15.839   7.547 -0.2297 -0.0998  0.1939
  734POPS   CNO11155   4.694  16.651   5.488  0.1195 -0.2514 -0.2525
  734POPS   PO411156   5.032  16.610   5.458  0.0791 -0.0981 -0.0574
  734POPS   GL111157   5.289  16.639   5.788  0.2979 -0.0329  0.0477
  734POPS   GL211158   5.478  16.906   5.765 -0.2883  0.1379 -0.0313
  734POPS   C1A11159   5.219  16.739   6.142  0.2875  0.2836  0.1637
  734POPS   D2A11160   5.382  16.850   6.556 -0.0490 -0.1794  0.0387
  734POPS   C3A11161   5.224  16.698   7.011  0.1737 -0.2166  0.0805
  734POPS   C4A11162   4.826  16.763   7.106 -0.1395 -0.1759  0.3219
  734POPS   C1B11163   5.503  17.199   6.138 -0.1177  0.0600 -0.4095
  734POPS   C2B11164   5.794  17.140   6.442 -0.1179  0.1818  0.0172
  734POPS   C3B11165   5.711  17.038   6.913 -0.1292 -0.1237 -0.0929
  734POPS   C4B11166   5.676  16.930   7.263  0.4031 -0.0304 -0.2154
  735POPS   CNO11167   0.896  12.322   5.088  0.0585 -0.1809  0.0248
  735POPS   PO411168   0.507  12.111   5.041 -0.0153  0.1926  0.2361
  735POPS   GL111169   0.588  12.172   5.464  0.1262  0.1493 -0.0003
  735POPS   GL211170   0.580  12.577   5.652 -0.2311 -0.0186  0.2946
  735POPS   C1A11171   0.633  12.099   5.925  0.1955 -0.2655 -0.1617
  735POPS   D2A11172   0.676  12.038   6.348  0.0472 -0.0506  0.0805
  735POPS   C3A11173   0.433  11.990   6.731 -0.1363  0.1869  0.0377
  735POPS   C4A11174   0.662  11.654   7.143 -0.0215 -0.2363 -0.2819
  735POPS   C1B11175   0.237  12.410   5.970 -0.1726 -0.1629 -0.2912
  735POPS   C2B11176  -0.084  12.384   6.357  0.0037 -0.0383  0.1695
  735POPS   C3B11177   0.016  12.273   6.710 -0.3328 -0.0161  0.1703
  735POPS   C4B11178   0.208  12.179   7.086  0.1082 -0.0514 -0.0617
  736POPS   CNO11179   0.516   4.034   5.058 -0.2830 -0.1016  0.2768
  736POPS   PO411180   0.742   3.830   5.395 -0.2333 -0.1516 -0.2942
  736POPS   GL111181   0.754   3.608   5.744  0.1127  0.2850  0.1403
  736POPS   GL211182   0.474   3.556   5.815 -0.0738 -0.2899 -0.1751
  736POPS   C1A11183   0.998   3.346   6.112  0.1311  0.0824  0.3850
  736POPS   D2A11184   1.196   3.014   6.441  0.0024 -0.2081 -0.1702
  736POPS   C3A11185   0.923   2.831   6.819  0.0324  0.1638  0.0185
  736POPS   C4A11186   0.765   2.884   7.141  0.0795 -0.1462 -0.2276
  736POPS   C1B11187   0.327   3.711   6.173  0.0170  0.2193  0.1656
  736POPS   C2B11188  -0.028   3.530   6.480  0.0006  0.0126  0.2555
  736POPS   C3B11189  -0.183   3.694   6.882 -0.1276 -0.1137  0.1685
  736POPS   C4B11190  -0.518   4.070   6.926 -0.0250  0.0344 -0.4468
  737POPS   CNO11191   6.627   5.427   5.273  0.3718 -0.0405  0.2380
  737POPS   PO411192   6.668   5.847   5.374  0.2109  0.0624  0.1595
  737POPS   GL111193   6.947   5.625   5.700  0.1251  0.0665  0.3568
  737POPS   GL211194   6.785   5.309   5.780 -0.2248  0.1031  0.3309
  737POPS   C1A11195   7.090   5.528   6.129  0.0955  0.3319 -0.0705
  737POPS   D2A11196   7.102   5.678   6.555 -0.1656 -0.2468 -0.3350
  737POPS   C3A11197   7.146   6.000   6.702  0.1841 -0.0601 -0.1817
  737POPS   C4A11198   7.014   6.417   6.787  0.2167  0.2792  0.1143
  737POPS   C1B11199   6.547   5.542   6.039  0.4322 -0.4076  0.2645
  737POPS   C2B11200   6.671   5.432   6.446 -0.1192 -0.1635 -0.2165
  737POPS   C3B11201   6.662   5.321   6.867 -0.2070  0.0660 -0.1968
  737POPS   C4B11202   6.723   5.122   7.241 -0.0692 -0.2644  0.0201
  738POPS   CNO11203  16.916  16.110   5.403  0.1271 -0.1708  0.2118
  738POPS   PO411204  16.681  16.200   5.624 -0.0479 -0.1634  0.0426
  738POPS   GL111205  16.838  16.252   5.973  0.0675 -0.2779 -0.0708
  738POPS   GL211206  16.863  16.008   6.302  0.0524 -0.4219 -0.3011
  738POPS   C1A11207  16.732  16.548   6.298 -0.1549  0.1550  0.1942
  738POPS   D2A11208  16.469  16.891   6.519  0.2586  0.0501  0.1634
  738POPS   C3A11209  16.188  16.940   6.925 -0.0679 -0.0817 -0.1361
  738POPS   C4A11210  16.148  17.340   7.237 -0.1351 -0.0144  0.1740
  738POPS   C1B11211  17.063  15.928   6.753 -0.2450 -0.0554 -0.2412
  738POPS   C2B11212  17.110  15.793   7.239 -0.1337 -0.0747 -0.0475
  738POPS   C3B11213  17.454  15.912   7.469  0.4038  0.1405 -0.2230
  738POPS   C4B11214  17.456  16.345   7.658  0.0984 -0.0722 -0.3871
  739POPS   CNO11215  14.571  13.454   6.024 -0.0517 -0.0768  0.2041
  739POPS   PO411216  14.666  13.045   5.783 -0.4167  0.0744  0.1665
  739POPS   GL111217  14.627  12.937   6.181 -0.1183 -0.1037  0.2185
  739POPS   GL211218  14.923  12.954   6.191  0.0238 -0.1286 -0.0419
  739POPS   C1A11219  14.618  12.893   6.618  0.0740 -0.0758  0.1648
  739POPS   D2A11220  14.728  12.928   7.041 -0.2198 -0.1286 -0.0941
  739POPS   C3A11221  14.609  12.692   7.363  0.1808 -0.2028  0.0689
  739POPS   C4A11222  14.747  12.403   7.525  0.1376 -0.0527  0.3035
  739POPS   C1B11223  15.114  12.946   6.535  0.2658  0.1982 -0.2903
  739POPS   C2B11224  15.200  12.861   6.946  0.0130 -0.1151  0.3310
  739POPS   C3B11225  15.510  12.774   7.132 -0.0639 -0.2360  0.0687
  739POPS   C4B11226  15.575  12.623   7.426 -0.1036  0.0040 -0.0911
  740POPS   CNO11227   2.296  18.589   5.486 -0.0914 -0.1237 -0.0136
  740POPS   PO411228   2.489  18.846   5.729 -0.3194 -0.0977 -0.2857
  740POPS   GL111229   2.366  19.034   6.088  0.0929 -0.1079 -0.1401
  740POPS   GL211230   2.677  19.237   6.063 -0.0405  0.0131 -0.1012
  740POPS   C1A11231   2.326  18.850   6.487  0.0641  0.1790  0.1790
  740POPS   D2A11232   2.171  18.883   6.933  0.4239 -0.1522  0.0624
  740POPS   C3A11233   1.747  18.782   7.115  0.1298  0.1063 -0.0987
  740POPS   C4A11234   1.530  18.927   7.491  0.0588  0.3037  0.3673
  740POPS   C1B11235   2.592  19.343   6.434 -0.3387  0.0721 -0.0268
  740POPS   C2B11236   2.675  19.766   6.590  0.0306 -0.1470  0.0651
  740POPS   C3B11237   2.681  19.822   7.007 -0.1918 -0.0805 -0.2727
  740POPS   C4B11238   2.371  20.032   7.298 -0.1922 -0.3151 -0.0929
  741POPS   CNO11239  12.504   6.979   5.053  0.0354 -0.1375 -0.0332
  741POPS   PO411240  12.212   6.945   5.466 -0.0402  0.3691 -0.1484
  741POPS   GL111241  12.327   7.052   5.910  0.3041 -0.2768 -0.4182
  741POPS   GL211242  12.352   7.432   5.958  0.2186  0.0579 -0.1989
  741POPS   C1A11243  12.144   6.944   6.279 -0.0216 -0.0448  0.3923
  741POPS   D2A11244  11.998   6.876   6.633  0.0850 -0.1189 -0.0155
  741POPS   C3A11245  12.221   6.704   6.938 -0.1373  0.2767 -0.1944
  741POPS   C4A11246  12.539   6.604   7.128  0.3034  0.6263  0.0913
  741POPS   C1B11247  12.249   7.422   6.368  0.1756  0.0727 -0.0172
  741POPS   C2B11248  12.183   7.281   6.784  0.3177 -0.1629  0.1354
  741POPS   C3B11249  12.256   7.459   7.091  0.3169 -0.1164 -0.0537
  741POPS   C4B11250  12.390   7.335   7.478  0.0953 -0.3800  0.0327
  742POPS   CNO11251   7.643   1.378   5.365 -0.1366 -0.1764  0.0301
  742POPS   PO411252   8.103   1.082   5.168 -0.3716  0.0516 -0.0017
  742POPS   GL111253   7.743   0.852   5.490 -0.1645 -0.4835  0.3450
  742POPS   GL211254   7.579   0.925   5.758 -0.1563  0.1785 -0.0784
  742POPS   C1A11255   7.905   0.545   5.828 -0.1897 -0.1551 -0.3994
  742POPS   D2A11256   7.935   0.259   6.243  0.1367 -0.0956  0.1748
  742POPS   C3A11257   7.777   0.270   6.667 -0.3817 -0.0491 -0.1018
  742POPS   C4A11258   7.442   0.334   6.986 -0.0747  0.1175  0.1230
  742POPS   C1B11259   7.481   0.755   6.114 -0.0323 -0.0410 -0.2080
  742POPS   C2B11260   7.616   0.737   6.457 -0.0738 -0.2078  0.1543
  742POPS   C3B11261   7.771   0.693   7.001 -0.0049  0.0136  0.1482
  742POPS   C4B11262   7.632   0.600   7.388  0.0262  0.1876 -0.1460
  743POPS   CNO11263   1.014  18.791   5.380 -0.1070 -0.1113  0.3243
  743POPS   PO411264   1.384  19.004   5.376 -0.0415  0.0845 -0.0969
  743POPS   GL111265   1.336  18.843   5.820 -0.0877  0.1142  0.0480
  743POPS   GL211266   1.611  18.575   5.900 -0.2403 -0.1385 -0.3635
  743POPS   C1A11267   1.320  18.813   6.226  0.1805  0.0388 -0.0195
  743POPS   D2A11268   1.461  18.902   6.540  0.0692  0.1061 -0.1174
  743POPS   C3A11269   1.209  18.871   6.913 -0.1343 -0.2700 -0.0027
  743POPS   C4A11270   1.056  18.678   7.094  0.0942 -0.2997  0.0532
  743POPS   C1B11271   1.891  18.743   6.255  0.2037 -0.1051 -0.1716
  743POPS   C2B11272   1.945  18.454   6.602 -0.0193 -0.4580  0.2000
  743POPS   C3B11273   2.022  18.372   7.024  0.1450 -0.4852 -0.2772
  743POPS   C4B11274   2.292  18.248   7.440 -0.1734 -0.1524 -0.1147
  744POPS   CNO11275  18.210   5.195   4.644  0.1558  0.0154 -0.0107
  744POPS   PO411276  18.388   4.852   4.922 -0.1202 -0.2259 -0.1291
  744POPS   GL111277  18.619   4.745   5.366 -0.0574  0.2260 -0.0459
  744POPS   GL211278  18.511   4.790   5.703 -0.1247 -0.4207  0.3370
  744POPS   C1A11279  18.935   4.567   5.798  0.1032 -0.3169  0.3551
  744POPS   D2A11280  19.083   4.226   6.020  0.0515  0.0780  0.0358
  744POPS   C3A11281  19.064   4.227   6.331  0.2078 -0.0452 -0.2396
  744POPS   C4A11282  19.047   3.985   6.676 -0.2110 -0.1813 -0.1960
  744POPS   C1B11283  18.745   4.983   6.054  0.3615 -0.0530  0.2048
  744POPS   C2B11284  18.909   5.203   6.440  0.3523  0.1197  0.0398
  744POPS   C3B11285  18.964   5.193   6.871  0.0620  0.0339 -0.0406
  744POPS   C4B11286  19.037   5.421   7.201 -0.2546 -0.0049 -0.0807
  745POPS   CNO11287  11.605  13.097   5.638 -0.0376  0.1863  0.0677
  745POPS   PO411288  12.000  12.911   5.494  0.4372  0.2099  0.5249
  745POPS   GL111289  11.959  12.807   5.935  0.3144 -0.0124 -0.1021
  745POPS   GL211290  11.730  12.647   6.111 -0.0792  0.3982  0.3676
  745POPS   C1A11291  11.771  13.082   6.309  0.1162  0.1644 -0.3394
  745POPS   D2A11292  11.932  12.960   6.810  0.2259 -0.0042 -0.2338
  745POPS   C3A11293  11.711  13.208   7.138  0.0189 -0.2641 -0.0670
  745POPS   C4A11294  11.591  13.637   7.156  0.0608  0.3762 -0.0922
  745POPS   C1B11295  11.900  12.594   6.500  0.3094 -0.0946 -0.1191
  745POPS   C2B11296  11.919  12.507   6.954 -0.2232 -0.1308  0.1982
  745POPS   C3B11297  12.203  12.395   7.287 -0.1524 -0.0610 -0.2313
  745POPS   C4B11298  12.407  12.210   7.708 -0.0296 -0.1510  0.0042
  746POPS   CNO11299   6.304   4.656   5.784 -0.2839  0.0683  0.0920
  746POPS   PO411300   5.956   4.842   5.592 -0.1654  0.0264  0.0557
  746POPS   GL111301   5.853   5.057   5.945 -0.1214 -0.1402  0.1806
  746POPS   GL211302   6.178   5.056   6.055  0.2550  0.0365 -0.2811
  746POPS   C1A11303   5.697   5.091   6.423 -0.3523 -0.1163 -0.4378
  746POPS   D2A11304   5.707   5.239   6.790  0.2769 -0.0247  0.0416
  746POPS   C3A11305   5.782   5.523   7.107 -0.0887 -0.2499  0.1548
  746POPS   C4A11306   5.498   5.863   7.243  0.3036 -0.0799  0.0797
  746POPS   C1B11307   6.612   4.994   6.205  0.3969 -0.1259  0.2243
  746POPS   C2B11308   6.970   5.066   6.499  0.0863  0.1316  0.1993
  746POPS   C3B11309   7.161   5.149   6.907 -0.0868  0.1031  0.1663
  746POPS   C4B11310   7.024   5.470   7.183  0.0297 -0.1616 -0.0948
  747POPS   CNO11311  16.763   9.264   5.732  0.0718  0.1327  0.0836
  747POPS   PO411312  16.592   8.913   5.563  0.3565  0.2093  0.0029
  747POPS   GL111313  16.587   8.683   6.014 -0.0099  0.0693 -0.0896
  747POPS   GL211314  16.410   8.408   6.115 -0.0219 -0.1060  0.0217
  747POPS   C1A11315  16.694   8.787   6.452  0.0764  0.2679 -0.3192
  747POPS   D2A11316  16.620   8.668   6.874  0.1465 -0.0723 -0.1404
  747POPS   C3A11317  16.621   9.058   7.249 -0.2088  0.1361  0.3912
  747POPS   C4A11318  16.289   9.296   7.511  0.1322  0.1989 -0.1522
  747POPS   C1B11319  16.401   8.243   6.576 -0.0430 -0.0559  0.1298
  747POPS   C2B11320  16.252   8.282   6.993 -0.0762 -0.1166 -0.0064
  747POPS   C3B11321  15.898   8.330   7.311  0.2212 -0.0613 -0.1569
  747POPS   C4B11322  15.463   8.172   7.298 -0.0596 -0.1322 -0.2520
  748POPS   CNO11323  16.293  15.285   5.440  0.0678  0.2872  0.3558
  748POPS   PO411324  16.192  15.428   5.831 -0.0853  0.3135 -0.1860
  748POPS   GL111325  16.274  15.379   6.188 -0.2552  0.0624  0.0284
  748POPS   GL211326  16.526  15.194   6.333  0.1886  0.0945 -0.0138
  748POPS   C1A11327  16.370  15.721   6.519  0.2625  0.0739 -0.0112
  748POPS   D2A11328  16.585  15.989   6.763  0.2190 -0.2303  0.1746
  748POPS   C3A11329  16.719  16.061   7.110  0.2014 -0.2508  0.0629
  748POPS   C4A11330  16.551  16.004   7.468  0.1896  0.4096 -0.0487
  748POPS   C1B11331  16.453  15.247   6.768 -0.2426 -0.1105  0.0007
  748POPS   C2B11332  16.227  15.283   7.139  0.3205 -0.3480  0.2127
  748POPS   C3B11333  16.156  15.241   7.573 -0.2994 -0.0237 -0.2405
  748POPS   C4B11334  15.811  15.005   7.676 -0.0382  0.0122  0.1084
  749POPS   CNO11335   3.468   1.936   5.829  0.2517 -0.0201 -0.2470
  749POPS   PO411336   3.424   2.432   5.568 -0.1876 -0.0544 -0.1950
  749POPS   GL111337   3.478   2.526   5.976  0.6811  0.0071 -0.1270
  749POPS   GL211338   3.513   2.300   6.218  0.0146  0.2520  0.0407
  749POPS   C1A11339   3.723   2.740   6.247 -0.0487  0.1338 -0.2827
  749POPS   D2A11340   3.917   2.698   6.625  0.1397  0.2484 -0.1855
  749POPS   C3A11341   3.828   2.957   6.967 -0.0085  0.4487 -0.4302
  749POPS   C4A11342   3.496   3.091   7.331 -0.0346  0.3681  0.0149
  749POPS   C1B11343   3.149   2.255   6.395  0.2421  0.0334  0.0415
  749POPS   C2B11344   3.005   2.374   6.750  0.0824 -0.2055 -0.1363
  749POPS   C3B11345   2.944   2.346   7.251  0.0697  0.1327 -0.0967
  749POPS   C4B11346   2.674   2.113   7.483  0.1226 -0.0651 -0.1648
  750POPS   CNO11347   9.436   6.378   5.209  0.1017 -0.2051 -0.3773
  750POPS   PO411348   9.157   5.995   5.386 -0.2215  0.1574  0.3751
  750POPS   GL111349   9.199   5.961   5.870  0.0740  0.0333  0.0092
  750POPS   GL211350   9.356   5.740   6.191  0.1862 -0.2338  0.1413
  750POPS   C1A11351   8.825   5.935   6.211  0.0794  0.0426 -0.1520
  750POPS   D2A11352   8.794   6.081   6.580 -0.1213  0.1474 -0.3822
  750POPS   C3A11353   8.515   5.919   6.864  0.3714  0.1983 -0.0683
  750POPS   C4A11354   8.441   5.571   7.129 -0.4152  0.0790 -0.0406
  750POPS   C1B11355   9.555   5.729   6.546  0.0763 -0.0708  0.2183
  750POPS   C2B11356  10.007   5.839   6.788 -0.1097 -0.4599  0.3788
  750POPS   C3B11357  10.031   5.723   7.277  0.0167 -0.1071 -0.0809
  750POPS   C4B11358  10.162   5.751   7.722  0.2361 -0.1166  0.1597
  751POPS   CNO11359   8.272  11.938   5.964 -0.1189 -0.0668 -0.1080
  751POPS   PO411360   7.874  12.085   5.884  0.0384 -0.0304  0.1605
  751POPS   GL111361   7.959  12.339   6.143  0.1370  0.5091 -0.1531
  751POPS   GL211362   8.194  12.241   6.372  0.0147  0.2069  0.2048
  751POPS   C1A11363   7.879  12.606   6.475 -0.0266 -0.2209 -0.2626
  751POPS   D2A11364   7.998  12.993   6.641  0.2254  0.1393  0.0891
  751POPS   C3A11365   8.235  13.128   6.903  0.1305  0.0231  0.0404
  751POPS   C4A11366   8.112  13.084   7.318  0.2484 -0.0904 -0.0546
  751POPS   C1B11367   8.333  12.082   6.815 -0.0884  0.2986  0.1172
  751POPS   C2B11368   8.339  11.751   7.113  0.0499  0.1281  0.0337
  751POPS   C3B11369   8.688  11.725   7.387  0.1005 -0.1026  0.0610
  751POPS   C4B11370   8.953  11.950   7.456  0.1088  0.0732  0.0351
  752POPS   CNO11371   5.277  14.083   5.191 -0.0705 -0.1979 -0.1214
  752POPS   PO411372   5.588  13.805   5.291  0.0702  0.0770  0.0622
  752POPS   GL111373   5.869  13.826   5.712  0.2882  0.1441  0.1184
  752POPS   GL211374   5.750  13.482   5.763  0.2500  0.0013 -0.0222
  752POPS   C1A11375   6.213  13.823   5.955 -0.0905  0.0625 -0.1460
  752POPS   D2A11376   6.441  14.081   6.274  0.2737 -0.1528  0.1509
  752POPS   C3A11377   6.517  13.982   6.702 -0.1607 -0.2991 -0.1152
  752POPS   C4A11378   6.300  13.855   7.094 -0.1341 -0.0994 -0.2287
  752POPS   C1B11379   5.423  13.638   6.074 -0.2371  0.1493 -0.0499
  752POPS   C2B11380   5.331  13.784   6.526  0.0047  0.1455 -0.1577
  752POPS   C3B11381   5.379  13.772   6.993  0.0064 -0.0429  0.1881
  752POPS   C4B11382   5.095  13.948   7.243  0.0680  0.0994  0.2291
  753POPS   CNO11383   7.738   4.392   5.551  0.0382  0.1921 -0.1181
  753POPS   PO411384   7.592   4.087   5.335  0.0619  0.1456  0.1606
  753POPS   GL111385   7.464   3.835   5.648  0.1926 -0.0858 -0.0813
  753POPS   GL211386   7.723   3.863   5.874  0.2190 -0.1877 -0.0307
  753POPS   C1A11387   7.202   3.823   5.995 -0.0023 -0.1367  0.3409
  753POPS   D2A11388   7.253   3.661   6.439 -0.5090  0.0893  0.0708
  753POPS   C3A11389   7.116   3.415   6.776 -0.2002  0.0184 -0.4154
  753POPS   C4A11390   7.138   3.670   7.118 -0.2816 -0.0753  0.4851
  753POPS   C1B11391   7.930   4.160   5.996 -0.0527  0.0114 -0.0970
  753POPS   C2B11392   8.212   4.144   6.293  0.1328  0.0537 -0.3204
  753POPS   C3B11393   8.616   4.160   6.335 -0.0123 -0.3251 -0.3625
  753POPS   C4B11394   8.803   4.420   6.592 -0.1946 -0.1334 -0.1794
  754POPS   CNO11395   0.312   2.053   5.697  0.2577  0.0153 -0.1785
  754POPS   PO411396   0.271   1.633   5.873 -0.3462 -0.1500  0.0351
  754POPS   GL111397   0.615   1.699   6.222 -0.2268  0.2905 -0.2466
  754POPS   GL211398   0.727   1.341   6.188 -0.0890 -0.1071 -0.0844
  754POPS   C1A11399   0.835   1.733   6.616 -0.1182 -0.2564  0.4324
  754POPS   D2A11400   0.971   1.543   6.966  0.3272 -0.0470 -0.1999
  754POPS   C3A11401   1.250   1.583   7.241 -0.3709  0.1264  0.2049
  754POPS   C4A11402   1.553   1.645   7.555 -0.0892 -0.0291 -0.1456
  754POPS   C1B11403   0.508   1.320   6.566  0.0980 -0.1170 -0.2486
  754POPS   C2B11404   0.513   1.299   7.011 -0.0713 -0.0023  0.0356
  754POPS   C3B11405   0.691   1.414   7.389  0.1645 -0.0482  0.1000
  754POPS   C4B11406   0.842   1.862   7.614 -0.0043  0.2078 -0.0910
  755POPS   CNO11407   2.505  14.384   5.248  0.0618  0.2404 -0.0393
  755POPS   PO411408   2.357  14.738   5.404 -0.2485 -0.0299 -0.0779
  755POPS   GL111409   2.337  14.637   5.855  0.1548  0.0188  0.0862
  755POPS   GL211410   2.436  14.855   6.036 -0.1051  0.3085  0.1271
  755POPS   C1A11411   2.363  14.396   6.080 -0.2190  0.1468  0.0657
  755POPS   D2A11412   2.516  14.071   6.151  0.3003  0.0089  0.1392
  755POPS   C3A11413   2.096  13.830   6.186 -0.1987 -0.2065  0.0736
  755POPS   C4A11414   1.558  13.955   5.956  0.0385 -0.3077  0.1815
  755POPS   C1B11415   2.505  15.016   6.465  0.0484  0.2689 -0.0181
  755POPS   C2B11416   2.897  14.855   6.745 -0.0359  0.2565 -0.2234
  755POPS   C3B11417   2.945  14.782   7.162 -0.0346 -0.1978  0.1404
  755POPS   C4B11418   2.494  14.759   7.392  0.0852 -0.0936  0.0553
  756POPS   CNO11419  13.024   6.509   5.531  0.3027  0.1816 -0.0473
  756POPS   PO411420  12.742   6.850   5.493 -0.2510 -0.2191  0.0096
  756POPS   GL111421  12.622   6.607   5.921 -0.2489  0.0366  0.0630
  756POPS   GL211422  12.817   6.424   6.065 -0.0293 -0.0561  0.0518
  756POPS   C1A11423  12.389   6.478   6.240  0.2085  0.0963  0.2455
  756POPS   D2A11424  12.561   6.507   6.644  0.0107  0.1418 -0.3567
  756POPS   C3A11425  12.890   6.756   6.783 -0.1277  0.0194  0.2537
  756POPS   C4A11426  13.088   7.187   6.903 -0.0846  0.1094  0.5390
  756POPS   C1B11427  13.048   6.572   6.275  0.0185  0.1048  0.0642
  756POPS   C2B11428  13.251   6.921   6.375 -0.2126  0.2306  0.1458
  756POPS   C3B11429  13.310   7.357   6.144  0.0334 -0.2396  0.0645
  756POPS   C4B11430  13.445   7.652   5.997  0.3806 -0.1002  0.1657
  757POPS   CNO11431   5.415   5.721   5.843 -0.1024  0.1533  0.0119
  757POPS   PO411432   5.836   5.767   5.532 -0.2257  0.1108  0.1932
  757POPS   GL111433   5.936   5.555   5.900 -0.0309 -0.1463  0.0761
  757POPS   GL211434   5.707   5.541   6.167  0.1934  0.0202  0.2710
  757POPS   C1A11435   6.169   5.461   6.294  0.0912 -0.2495  0.0595
  757POPS   D2A11436   6.219   5.229   6.608  0.2626  0.0455 -0.0792
  757POPS   C3A11437   6.175   5.163   7.033 -0.1733  0.0454  0.0881
  757POPS   C4A11438   6.211   4.996   7.523  0.1859  0.0298 -0.0050
  757POPS   C1B11439   5.746   5.694   6.537  0.0813  0.1764  0.1897
  757POPS   C2B11440   5.853   5.933   6.866 -0.3616  0.0647 -0.0649
  757POPS   C3B11441   6.214   6.081   7.090  0.1605  0.1746 -0.1331
  757POPS   C4B11442   6.239   6.508   7.277  0.0793 -0.0247  0.1075
  758POPS   CNO11443   4.432  11.006   5.290 -0.2495  0.1701  0.1145
  758POPS   PO411444   4.358  10.623   5.182  0.1556  0.2452  0.1498
  758POPS   GL111445   4.239  10.710   5.642 -0.0199  0.0205 -0.1417
  758POPS   GL211446   3.972  10.916   5.711  0.2361  0.1472  0.2223
  758POPS   C1A11447   4.390  10.705   5.959 -0.1359  0.0233  0.0015
  758POPS   D2A11448   4.760  10.768   6.164 -0.1207  0.1037  0.2696
  758POPS   C3A11449   4.868  10.579   6.584  0.0161 -0.1241  0.0899
  758POPS   C4A11450   4.867  10.711   7.047  0.0325  0.3317  0.3560
  758POPS   C1B11451   3.915  11.108   6.088 -0.2312  0.2162 -0.1777
  758POPS   C2B11452   3.838  11.248   6.490  0.1454 -0.2871 -0.1846
  758POPS   C3B11453   3.832  11.321   6.922  0.3897 -0.0598 -0.2631
  758POPS   C4B11454   3.582  11.091   7.160  0.0028 -0.2206  0.2333
  759POPS   CNO11455   9.851   1.138   5.620  0.0344 -0.0421  0.3352
  759POPS   PO411456   9.961   0.971   5.868 -0.0136 -0.1427  0.2204
  759POPS   GL111457  10.089   0.815   6.170  0.1764  0.0233 -0.0274
  759POPS   GL211458  10.350   1.001   6.426 -0.2036 -0.1829  0.0916
  759POPS   C1A11459   9.962   0.843   6.704 -0.0785  0.1472 -0.3081
  759POPS   D2A11460   9.870   0.865   7.089 -0.0642  0.2039 -0.0528
  759POPS   C3A11461  10.163   1.077   7.393 -0.1391 -0.1930 -0.3033
  759POPS   C4A11462  10.461   1.251   7.611  0.5452 -0.1212 -0.0666
  759POPS   C1B11463  10.266   1.228   6.888 -0.1505 -0.3748  0.0892
  759POPS   C2B11464  10.523   1.520   7.147 -0.0436 -0.2807  0.2087
  759POPS   C3B11465  10.267   1.670   7.470  0.0961  0.0838  0.1813
  759POPS   C4B11466  10.087   1.923   7.905  0.1165 -0.0501  0.0655
  760POPS   CNO11467  15.080   5.275   5.382  0.0087 -0.0696 -0.1657
  760POPS   PO411468  14.668   5.602   5.340 -0.1090 -0.0390 -0.2314
  760POPS   GL111469  14.380   5.285   5.536  0.0851 -0.0119 -0.0039
  760POPS   GL211470  14.522   5.045   5.546  0.1219  0.2582  0.1019
  760POPS   C1A11471  14.216   5.313   5.993 -0.0409  0.1303 -0.2650
  760POPS   D2A11472  14.446   5.213   6.396 -0.0710  0.4475 -0.2352
  760POPS   C3A11473  14.850   5.172   6.454 -0.0063  0.0023  0.3639
  760POPS   C4A11474  15.268   5.173   6.671  0.0799  0.0534 -0.1696
  760POPS   C1B11475  14.389   4.834   5.950 -0.1896 -0.0830 -0.0404
  760POPS   C2B11476  14.594   4.746   6.253  0.1313 -0.1168  0.1736
  760POPS   C3B11477  14.713   4.680   6.717 -0.2693 -0.1463  0.0563
  760POPS   C4B11478  14.616   4.548   7.048  0.2308  0.1416 -0.0522
  761POPS   CNO11479  11.983  16.253   6.027  0.1947 -0.0871 -0.0196
  761POPS   PO411480  11.947  15.835   5.887  0.4033  0.0585 -0.0831
  761POPS   GL111481  11.739  15.815   6.382 -0.0082 -0.3902  0.1740
  761POPS   GL211482  11.726  16.136   6.529  0.1270 -0.1547  0.1109
  761POPS   C1A11483  11.393  15.816   6.670  0.1684 -0.3284 -0.1362
  761POPS   D2A11484  10.931  15.949   6.722 -0.1488  0.1941  0.1737
  761POPS   C3A11485  10.646  15.585   6.838  0.0176  0.1805 -0.1068
  761POPS   C4A11486  10.551  15.331   7.155  0.0492  0.0561 -0.0292
  761POPS   C1B11487  11.739  16.056   6.952 -0.1101  0.2415 -0.2257
  761POPS   C2B11488  11.602  15.735   7.339 -0.0083 -0.2466 -0.0846
  761POPS   C3B11489  11.219  15.579   7.579  0.2555 -0.1001  0.0194
  761POPS   C4B11490  10.889  15.808   7.751 -0.1157  0.0260  0.2302
  762POPS   CNO11491   8.937   9.680   5.470 -0.2981  0.1191  0.0469
  762POPS   PO411492   9.145   9.377   5.588 -0.1421 -0.5620 -0.2591
  762POPS   GL111493   9.055   9.459   5.971 -0.0771 -0.0196 -0.0543
  762POPS   GL211494   8.732   9.605   5.991  0.0919  0.0332 -0.2090
  762POPS   C1A11495   9.012   9.439   6.430 -0.1244  0.1616 -0.0266
  762POPS   D2A11496   9.000   9.441   6.967 -0.0364 -0.1649  0.1248
  762POPS   C3A11497   9.297   9.626   7.296 -0.4336 -0.0066  0.2956
  762POPS   C4A11498   9.405  10.017   7.482 -0.1553 -0.1551  0.0491
  762POPS   C1B11499   8.638   9.794   6.353  0.0419  0.4255  0.0309
  762POPS   C2B11500   8.683   9.912   6.734  0.4448 -0.0431 -0.0234
  762POPS   C3B11501   8.645   9.770   7.136 -0.0154 -0.2018 -0.2349
  762POPS   C4B11502   8.784   9.509   7.516 -0.0432  0.2860 -0.1102
  763POPS   CNO11503   5.091  12.801   4.953  0.0098 -0.1601  0.0485
  763POPS   PO411504   4.713  12.639   5.126 -0.0011 -0.1856  0.1592
  763POPS   GL111505   4.876  12.634   5.505  0.0362 -0.0183 -0.0112
  763POPS   GL211506   4.703  12.312   5.595 -0.0885 -0.0640 -0.3230
  763POPS   C1A11507   4.881  12.880   5.920  0.2371 -0.0987  0.2323
  763POPS   D2A11508   4.794  13.022   6.297  0.3571  0.3865 -0.1030
  763POPS   C3A11509   4.504  12.886   6.464 -0.0626 -0.2142  0.1465
  763POPS   C4A11510   4.165  13.191   6.654  0.1422  0.0710  0.2634
  763POPS   C1B11511   4.641  11.990   5.924 -0.0411 -0.0975 -0.0113
  763POPS   C2B11512   4.474  11.557   5.946 -0.2244 -0.2081 -0.2088
  763POPS   C3B11513   4.331  11.222   6.296 -0.2927 -0.1484 -0.2077
  763POPS   C4B11514   4.211  10.806   6.549  0.1814  0.1228 -0.0930
  764POPS   CNO11515   1.868   8.542   5.468 -0.0677  0.2276  0.2948
  764POPS   PO411516   1.631   8.761   5.228 -0.1732  0.1944  0.0221
  764POPS   GL111517   1.740   9.038   5.583  0.2732  0.0667 -0.2535
  764POPS   GL211518   1.682   8.848   5.809  0.1812 -0.1448  0.0439
  764POPS   C1A11519   1.862   9.296   5.903 -0.0341 -0.0221  0.2324
  764POPS   D2A11520   1.760   9.487   6.284  0.1678  0.0998  0.1661
  764POPS   C3A11521   1.316   9.472   6.407 -0.0079 -0.2345  0.4753
  764POPS   C4A11522   1.015   9.870   6.423 -0.1947  0.0377  0.3658
  764POPS   C1B11523   1.636   8.735   6.242  0.2726  0.2702  0.1835
  764POPS   C2B11524   1.847   9.059   6.692  0.0998 -0.3114 -0.1095
  764POPS   C3B11525   1.991   9.291   6.995 -0.1506 -0.1526  0.1773
  764POPS   C4B11526   1.788   9.538   7.327  0.1107  0.0710  0.0674
  765POPS   CNO11527   4.464   8.878   5.663  0.2188  0.0392  0.1289
  765POPS   PO411528   4.693   8.486   5.584 -0.0075  0.1969 -0.1348
  765POPS   GL111529   4.436   8.428   5.960 -0.2368 -0.0695 -0.1114
  765POPS   GL211530   4.188   8.444   5.732  0.0263 -0.3409 -0.2344
  765POPS   C1A11531   4.342   8.606   6.273 -0.1402  0.0230 -0.3385
  765POPS   D2A11532   4.006   8.678   6.433  0.1738 -0.2168  0.1400
  765POPS   C3A11533   3.929   8.398   6.754  0.1440 -0.1502  0.2891
  765POPS   C4A11534   3.923   8.420   7.204  0.1921  0.2182  0.1642
  765POPS   C1B11535   3.976   8.313   6.099 -0.2136 -0.0543  0.0226
  765POPS   C2B11536   4.276   8.173   6.517 -0.1587 -0.0819  0.0807
  765POPS   C3B11537   4.349   8.212   7.005 -0.3062 -0.2180  0.3791
  765POPS   C4B11538   4.371   8.049   7.437 -0.0143  0.1312  0.6147
  766POPS   CNO11539   4.019   3.747   4.780  0.1903  0.0869  0.1705
  766POPS   PO411540   3.911   3.775   5.238 -0.1132 -0.1807 -0.2011
  766POPS   GL111541   3.836   4.037   5.652 -0.2538 -0.1778  0.1861
  766POPS   GL211542   4.001   4.320   5.654  0.1340 -0.1259 -0.0404
  766POPS   C1A11543   3.851   3.871   6.052 -0.1573 -0.0258 -0.1828
  766POPS   D2A11544   4.095   3.756   6.426 -0.1621 -0.0940 -0.0253
  766POPS   C3A11545   3.909   3.822   6.802 -0.2092 -0.1516 -0.3744
  766POPS   C4A11546   3.563   3.937   7.039 -0.3539 -0.2257 -0.1313
  766POPS   C1B11547   4.138   4.268   6.113  0.0830 -0.0047 -0.0461
  766POPS   C2B11548   4.175   4.260   6.583  0.1721  0.0132  0.2642
  766POPS   C3B11549   4.126   4.198   7.053 -0.2675  0.0972 -0.0312
  766POPS   C4B11550   4.331   4.377   7.450 -0.1040  0.0063  0.0617
  767POPS   CNO11551   8.387   6.168   5.076  0.2560  0.1962 -0.2878
  767POPS   PO411552   8.350   5.987   5.493  0.1453 -0.0774 -0.1471
  767POPS   GL111553   8.401   5.810   5.973  0.1415  0.0989 -0.0409
  767POPS   GL211554   8.497   5.496   6.014 -0.1459  0.4840  0.4385
  767POPS   C1A11555   8.084   5.668   6.196 -0.0625 -0.2091  0.2494
  767POPS   D2A11556   7.804   5.452   6.465  0.0239 -0.1754  0.0034
  767POPS   C3A11557   7.486   5.504   6.848  0.0697 -0.3202 -0.0789
  767POPS   C4A11558   7.545   5.581   7.318 -0.1757 -0.3302 -0.1336
  767POPS   C1B11559   8.500   5.624   6.478 -0.2111 -0.2564 -0.1977
  767POPS   C2B11560   8.279   5.335   6.741  0.0698 -0.0723 -0.1300
  767POPS   C3B11561   8.241   5.132   7.097  0.0472  0.2886  0.0824
  767POPS   C4B11562   8.254   5.107   7.532 -0.1089 -0.0374  0.0335
  768POPS   CNO11563   4.239  18.487   5.462 -0.2608  0.0369 -0.0767
  768POPS   PO411564   4.303  18.918   5.479  0.0213  0.1576 -0.0749
  768POPS   GL111565   4.379  19.242   5.827  0.0076 -0.1179 -0.4068
  768POPS   GL211566   4.705  19.409   5.835 -0.0113  0.4097  0.2180
  768POPS   C1A11567   4.389  19.448   6.233  0.3544 -0.1187 -0.3127
  768POPS   D2A11568   4.241  19.529   6.560  0.1190  0.2311 -0.1310
  768POPS   C3A11569   3.878  19.549   6.716  0.1824 -0.1904  0.1130
  768POPS   C4A11570   3.522  19.600   6.543 -0.1539  0.0171 -0.0433
  768POPS   C1B11571   4.606  19.814   6.072  0.0086  0.0488  0.1787
  768POPS   C2B11572   4.773  20.187   6.291  0.0551 -0.1923 -0.0508
  768POPS   C3B11573   5.069  20.453   6.551 -0.0258  0.3702 -0.2130
  768POPS   C4B11574   5.388  20.329   6.883 -0.1184 -0.1236 -0.0594
  769POPS   CNO11575  10.965   1.914   5.405 -0.3820 -0.1431  0.1051
  769POPS   PO411576  10.895   1.960   5.829 -0.0375 -0.0147  0.0743
  769POPS   GL111577  10.681   2.115   6.102  0.4044  0.0355 -0.3209
  769POPS   GL211578  10.684   2.422   6.093 -0.0613 -0.0571 -0.0154
  769POPS   C1A11579  10.495   2.008   6.455 -0.1259  0.1323  0.2457
  769POPS   D2A11580  10.582   1.934   6.816  0.1274 -0.0070 -0.0252
  769POPS   C3A11581  10.382   2.059   7.163 -0.0130  0.4205  0.0997
  769POPS   C4A11582  10.427   2.232   7.574  0.3308  0.2802 -0.0497
  769POPS   C1B11583  10.664   2.475   6.507  0.1718 -0.0996  0.0663
  769POPS   C2B11584  10.712   2.503   6.966 -0.5090  0.0617 -0.1385
  769POPS   C3B11585  10.855   2.289   7.316  0.0580  0.1463 -0.0998
  769POPS   C4B11586  11.104   2.134   7.633  0.0206 -0.3255  0.0340
  770POPS   CNO11587   7.904  16.862   5.508 -0.1383 -0.1904  0.5884
  770POPS   PO411588   7.780  17.174   5.787 -0.0606  0.3214 -0.0528
  770POPS   GL111589   7.849  17.026   6.224  0.0628  0.0491 -0.2008
  770POPS   GL211590   7.686  16.860   6.281 -0.0236 -0.1596 -0.1252
  770POPS   C1A11591   7.927  16.928   6.739 -0.0610  0.2304  0.0582
  770POPS   D2A11592   8.054  16.560   6.942  0.0294  0.0071 -0.1779
  770POPS   C3A11593   7.970  16.341   7.167 -0.1421  0.2609  0.3789
  770POPS   C4A11594   8.068  16.000   7.565 -0.0888  0.0550  0.1286
  770POPS   C1B11595   7.275  17.004   6.159 -0.2743 -0.0510 -0.0036
  770POPS   C2B11596   6.798  17.108   6.131 -0.2379 -0.0444 -0.2734
  770POPS   C3B11597   6.392  16.909   6.022  0.0289 -0.0054  0.0944
  770POPS   C4B11598   5.976  17.011   6.010  0.0715 -0.2652  0.0254
  771YOPS   CNO11599   5.406  15.386   5.884 -0.2793  0.1095 -0.2756
  771YOPS   PO411600   5.379  14.957   5.844 -0.0452  0.1722 -0.2871
  771YOPS   GL111601   5.622  14.704   6.113 -0.1628  0.0455  0.2174
  771YOPS   GL211602   5.860  14.591   5.874 -0.0089  0.0206  0.2511
  771YOPS   C1A11603   5.651  14.466   6.449 -0.0328  0.1657 -0.1880
  771YOPS   D2A11604   5.755  14.511   6.908 -0.0247  0.2460 -0.0216
  771YOPS   C3A11605   5.993  14.198   7.214 -0.0933 -0.0140  0.0392
  771YOPS   C4A11606   6.388  14.202   7.437  0.2694 -0.1925 -0.2010
  771YOPS   C1B11607   6.053  14.471   6.129  0.0205 -0.0899 -0.3320
  771YOPS   C2B11608   6.182  14.405   6.614  0.5296 -0.2989 -0.1196
  771YOPS   D3B11609   6.432  14.401   6.952 -0.1541 -0.1443  0.0974
  771YOPS   C4B11610   6.290  14.638   7.253 -0.2377  0.0321 -0.0264
  772YOPS   CNO11611   1.535   4.563   5.268 -0.0713  0.1198 -0.0507
  772YOPS   PO411612   1.376   4.183   5.421  0.2495 -0.0511  0.2288
  772YOPS   GL111613   1.210   4.081   5.829  0.1107  0.1236  0.2337
  772YOPS   GL211614   1.558   4.264   5.867  0.1456 -0.1468  0.1365
  772YOPS   C1A11615   1.028   3.814   6.217  0.1988 -0.3343  0.0837
  772YOPS   D2A11616   0.941   3.615   6.535  0.1737  0.3345 -0.1794
  772YOPS   C3A11617   0.947   3.359   6.884  0.1382  0.2333  0.0920
  772YOPS   C4A11618   1.089   3.257   7.265  0.0527  0.2997 -0.0546
  772YOPS   C1B11619   1.431   4.019   6.234 -0.1594 -0.2436  0.1938
  772YOPS   C2B11620   1.200   4.019   6.626 -0.2883 -0.0539  0.4898
  772YOPS   D3B11621   0.944   4.267   6.762 -0.3800  0.0362  0.0459
  772YOPS   C4B11622   0.775   4.796   6.707 -0.0230  0.2672  0.2629
  773YOPS   CNO11623  10.994   5.864   5.771  0.1775  0.1193 -0.0221
  773YOPS   PO411624  11.010   6.191   5.419  0.2259 -0.1586 -0.1729
  773YOPS   GL111625  11.138   6.320   5.835 -0.0280  0.1308  0.1513
  773YOPS   GL211626  11.455   6.534   5.999 -0.1416  0.0165  0.1954
  773YOPS   C1A11627  11.044   6.435   6.361  0.2457  0.1325 -0.1000
  773YOPS   D2A11628  11.170   6.332   6.796  0.1799  0.1664 -0.1836
  773YOPS   C3A11629  11.037   6.161   7.209 -0.0136  0.2117  0.0373
  773YOPS   C4A11630  10.912   5.787   7.131 -0.1673  0.1594 -0.1257
  773YOPS   C1B11631  11.730   6.674   6.235  0.0055  0.0517  0.1974
  773YOPS   C2B11632  11.632   6.475   6.576 -0.3689 -0.3795 -0.1336
  773YOPS   D3B11633  11.914   6.354   7.026  0.2463  0.0805  0.2120
  773YOPS   C4B11634  11.984   5.889   7.158 -0.0602  0.0949  0.1504
  774YOPS   CNO11635  15.794   5.729   5.606 -0.1771  0.4018  0.1744
  774YOPS   PO411636  15.466   5.544   5.496  0.3882 -0.2276 -0.0393
  774YOPS   GL111637  15.328   5.298   5.814 -0.0491 -0.0208  0.0015
  774YOPS   GL211638  15.503   4.978   5.803  0.3183  0.0272 -0.0489
  774YOPS   C1A11639  15.176   5.542   6.231 -0.0485  0.2870 -0.1253
  774YOPS   D2A11640  15.297   5.672   6.612 -0.2046 -0.0959 -0.1629
  774YOPS   C3A11641  15.211   5.745   7.038  0.1045  0.3591  0.0625
  774YOPS   C4A11642  14.948   5.303   7.033  0.1779  0.0743 -0.2155
  774YOPS   C1B11643  15.809   5.182   6.063 -0.1587 -0.3868  0.1301
  774YOPS   C2B11644  15.768   5.302   6.528 -0.0949 -0.3781  0.1604
  774YOPS   D3B11645  15.820   4.995   6.797  0.5227  0.0040  0.3151
  774YOPS   C4B11646  16.115   4.939   7.031  0.0988  0.0506 -0.2582
  775YOPS   CNO11647   9.728  11.348   5.616  0.1059  0.2159  0.2547
  775YOPS   PO411648   9.897  10.936   5.660  0.0635  0.0718  0.0744
  775YOPS   GL111649   9.693  10.811   6.024  0.2104  0.0309  0.3169
  775YOPS   GL211650   9.960  10.576   5.963 -0.2825  0.0607  0.3027
  775YOPS   C1A11651   9.735  10.822   6.498  0.1995  0.1434  0.3198
  775YOPS   D2A11652   9.751  10.902   6.947  0.0603  0.0823 -0.0667
  775YOPS   C3A11653   9.717  11.017   7.417 -0.1509  0.1137  0.2402
  775YOPS   C4A11654   9.934  11.011   7.776 -0.1786  0.3242 -0.1284
  775YOPS   C1B11655  10.056  10.402   6.380 -0.2648  0.2883 -0.0599
  775YOPS   C2B11656   9.864  10.422   6.867  0.1405  0.0886 -0.1373
  775YOPS   D3B11657   9.811  10.071   7.180  0.0704  0.0092 -0.0408
  775YOPS   C4B11658   9.907  10.016   7.640 -0.2023  0.1770  0.3026
  776YOPS   CNO11659  16.956  12.134   5.617 -0.0789 -0.1976 -0.0220
  776YOPS   PO411660  16.862  11.819   5.774 -0.1105 -0.2202  0.1933
  776YOPS   GL111661  16.916  12.095   6.160  0.1567  0.2331  0.1981
  776YOPS   GL211662  16.997  12.408   6.392  0.0576  0.1635  0.0219
  776YOPS   C1A11663  16.912  11.935   6.604  0.0191  0.0373 -0.0273
  776YOPS   D2A11664  16.913  11.947   7.078 -0.0433  0.0145 -0.4057
  776YOPS   C3A11665  16.807  11.597   7.362 -0.0918 -0.2053  0.1170
  776YOPS   C4A11666  16.890  11.592   7.740 -0.1307  0.2156 -0.0915
  776YOPS   C1B11667  17.038  12.403   6.884  0.1322  0.2607  0.2183
  776YOPS   C2B11668  17.083  12.439   7.287  0.0267 -0.0115 -0.5173
  776YOPS   D3B11669  17.021  12.142   7.547 -0.1559  0.0428 -0.1575
  776YOPS   C4B11670  17.305  11.998   7.864 -0.2493  0.1195 -0.2437
  777YOPS   CNO11671  15.867   6.743   5.206 -0.1555  0.0533  0.4614
  777YOPS   PO411672  15.651   6.765   5.579 -0.0555  0.1343  0.2666
  777YOPS   GL111673  15.755   6.413   5.949  0.1981 -0.1367 -0.0645
  777YOPS   GL211674  15.882   6.147   5.869  0.3733  0.1405 -0.0206
  777YOPS   C1A11675  15.880   6.332   6.412 -0.1727  0.2092  0.0106
  777YOPS   D2A11676  15.975   6.413   6.874 -0.0601 -0.3109  0.2557
  777YOPS   C3A11677  16.069   6.901   6.954  0.0892 -0.0333  0.1208
  777YOPS   C4A11678  15.781   7.044   6.937  0.0838 -0.0577 -0.2914
  777YOPS   C1B11679  16.188   6.247   6.035 -0.3389  0.2756  0.0507
  777YOPS   C2B11680  16.506   6.320   6.320 -0.1005 -0.2132 -0.1377
  777YOPS   D3B11681  16.590   6.192   6.759  0.1785  0.3898 -0.3212
  777YOPS   C4B11682  16.550   5.739   6.846  0.1247  0.1341  0.0629
  778YOPS   CNO11683  10.289   6.596   5.565  0.1105 -0.1459 -0.3470
  778YOPS   PO411684  10.088   6.144   5.500  0.0185  0.0022 -0.0719
  778YOPS   GL111685  10.083   6.268   5.924  0.3150 -0.0788  0.1868
  778YOPS   GL211686  10.084   5.990   5.999  0.1347  0.1590 -0.0115
  778YOPS   C1A11687  10.227   6.544   6.090  0.1245 -0.2021  0.1877
  778YOPS   D2A11688  10.389   6.814   6.331 -0.1814  0.0885  0.2322
  778YOPS   C3A11689  10.661   6.558   6.650 -0.1495  0.0686 -0.0372
  778YOPS   C4A11690  10.504   6.503   7.075 -0.0936  0.1209 -0.2426
  778YOPS   C1B11691   9.882   6.057   6.346 -0.1831 -0.0537 -0.0586
  778YOPS   C2B11692   9.777   6.397   6.639  0.0339 -0.1890 -0.1090
  778YOPS   D3B11693   9.607   6.651   6.941  0.0903  0.1228 -0.3066
  778YOPS   C4B11694   9.863   6.698   7.298 -0.0493 -0.2207  0.0819
  779YOPS   CNO11695  14.317   5.703   5.030 -0.3728  0.0389  0.1284
  779YOPS   PO411696  14.148   5.718   5.438  0.0020  0.0369  0.0927
  779YOPS   GL111697  14.481   5.692   5.849  0.0483 -0.0829  0.1516
  779YOPS   GL211698  14.659   5.827   6.002 -0.0049 -0.0460  0.0340
  779YOPS   C1A11699  14.791   5.297   5.935 -0.0356  0.1439 -0.5081
  779YOPS   D2A11700  15.054   4.926   6.045 -0.3752 -0.1662 -0.3441
  779YOPS   C3A11701  15.339   4.490   5.922 -0.2172  0.0074 -0.0364
  779YOPS   C4A11702  15.532   4.328   6.286  0.1516 -0.0429 -0.1268
  779YOPS   C1B11703  14.612   5.734   6.359  0.0184  0.5198  0.0727
  779YOPS   C2B11704  14.764   5.609   6.760 -0.0186 -0.0311 -0.1524
  779YOPS   D3B11705  14.645   5.627   7.181 -0.1506 -0.3503  0.0063
  779YOPS   C4B11706  14.294   5.485   7.283 -0.0572  0.2984 -0.1423
  780YOPS   CNO11707  10.403  14.803   6.306 -0.1289  0.0396 -0.3003
  780YOPS   PO411708  10.284  15.192   6.035 -0.2105  0.0233 -0.0494
  780YOPS   GL111709  10.133  15.220   6.350  0.3500 -0.0532 -0.0374
  780YOPS   GL211710   9.952  15.055   6.476  0.0644 -0.3367 -0.1465
  780YOPS   C1A11711  10.149  15.574   6.832  0.2131  0.0497 -0.0580
  780YOPS   D2A11712  10.088  15.361   7.236 -0.0545 -0.2077 -0.2150
  780YOPS   C3A11713   9.895  15.575   7.654 -0.3327 -0.4044 -0.0380
  780YOPS   C4A11714  10.248  15.666   7.941  0.0555 -0.2181 -0.4133
  780YOPS   C1B11715   9.952  15.010   6.904  0.3952  0.0803  0.2608
  780YOPS   C2B11716   9.920  14.885   7.233 -0.0368  0.2520  0.0481
  780YOPS   D3B11717   9.802  15.091   7.628  0.0712  0.4641 -0.1908
  780YOPS   C4B11718   9.659  14.857   7.930 -0.0850 -0.1691 -0.0940
  781YOPS   CNO11719   5.691   6.920   5.164 -0.2376 -0.0402 -0.3283
  781YOPS   PO411720   5.918   6.685   5.396  0.1098 -0.2795  0.2717
  781YOPS   GL111721   5.780   6.812   5.800  0.1708  0.0878 -0.4059
  781YOPS   GL211722   5.624   6.583   5.889  0.1008 -0.0795  0.1710
  781YOPS   C1A11723   5.709   7.091   6.189  0.1351  0.0727 -0.0359
  781YOPS   D2A11724   5.593   7.001   6.584 -0.1073 -0.0929 -0.3232
  781YOPS   C3A11725   5.659   6.678   6.903 -0.1173  0.1243  0.1124
  781YOPS   C4A11726   5.989   6.467   6.749  0.1429  0.2892 -0.3211
  781YOPS   C1B11727   5.372   6.714   6.187  0.1860  0.0995 -0.1119
  781YOPS   C2B11728   5.189   6.693   6.598 -0.1473 -0.1055  0.2244
  781YOPS   D3B11729   5.105   6.838   7.084 -0.1192 -0.3645 -0.2600
  781YOPS   C4B11730   5.021   7.125   7.382 -0.1384 -0.2246  0.0371
  782YOPS   CNO11731   8.818   4.995   5.213 -0.3637 -0.4156 -0.0081
  782YOPS   PO411732   8.928   5.173   5.638  0.0093  0.3015 -0.0097
  782YOPS   GL111733   8.694   4.929   5.864  0.0744 -0.0846 -0.2419
  782YOPS   GL211734   8.895   4.673   5.911 -0.1093 -0.4509 -0.1647
  782YOPS   C1A11735   8.615   5.051   6.296 -0.1961 -0.1197  0.3838
  782YOPS   D2A11736   8.706   5.120   6.694  0.1021  0.0227  0.1882
  782YOPS   C3A11737   8.801   5.251   7.040  0.0123  0.0463  0.1250
  782YOPS   C4A11738   8.750   5.055   7.442 -0.0164  0.0944 -0.0980
  782YOPS   C1B11739   9.011   4.824   6.383 -0.2136 -0.0622 -0.2435
  782YOPS   C2B11740   9.117   4.822   6.818  0.1609 -0.0054  0.1173
  782YOPS   D3B11741   9.473   5.024   7.124 -0.1277 -0.2525  0.0489
  782YOPS   C4B11742  10.012   4.929   7.160 -0.0239 -0.0018  0.2450
  783YOPS   CNO11743  17.662   4.365   4.754 -0.0354 -0.1541 -0.1301
  783YOPS   PO411744  17.292   4.321   5.070 -0.1838 -0.0246 -0.5570
  783YOPS   GL111745  17.159   4.196   5.458 -0.3239  0.1479  0.3804
  783YOPS   GL211746  17.443   4.122   5.556 -0.0173  0.1842  0.0733
  783YOPS   C1A11747  16.985   4.370   5.778  0.0765 -0.0273  0.0508
  783YOPS   D2A11748  16.838   4.766   5.929  0.0371  0.2976 -0.2235
  783YOPS   C3A11749  16.816   5.158   6.141  0.1054 -0.0286  0.2235
  783YOPS   C4A11750  16.688   5.406   6.433  0.3158 -0.1242  0.1068
  783YOPS   C1B11751  17.480   4.471   5.849 -0.3323 -0.2778  0.1743
  783YOPS   C2B11752  17.361   4.450   6.183  0.3431  0.3363  0.2604
  783YOPS   D3B11753  17.371   4.670   6.638  0.2683 -0.1879 -0.1356
  783YOPS   C4B11754  17.086   4.589   6.877  0.0834 -0.1185 -0.3312
  784YOPS   CNO11755  13.248   2.622   5.282 -0.3268 -0.1497 -0.2425
  784YOPS   PO411756  13.549   2.300   5.461 -0.1030 -0.1196  0.1209
  784YOPS   GL111757  13.345   2.022   5.864 -0.4360 -0.2047 -0.0675
  784YOPS   GL211758  13.609   1.941   6.126 -0.3182  0.1602 -0.4094
  784YOPS   C1A11759  13.079   1.932   6.215 -0.0281  0.0807  0.1685
  784YOPS   D2A11760  13.081   2.053   6.651  0.1991 -0.0508 -0.1744
  784YOPS   C3A11761  13.341   1.722   6.883 -0.2275 -0.2667  0.3093
  784YOPS   C4A11762  13.470   1.870   7.204  0.1200 -0.1375  0.4428
  784YOPS   C1B11763  13.517   1.490   6.345 -0.1562 -0.0365 -0.0519
  784YOPS   C2B11764  13.306   1.221   6.675  0.2654  0.1005 -0.0648
  784YOPS   D3B11765  13.296   1.169   7.105  0.0392  0.0492  0.1234
  784YOPS   C4B11766  13.363   1.420   7.419  0.2754  0.0014 -0.1869
  785YOPS   CNO11767   0.836   7.933   5.433 -0.0067 -0.1470 -0.2311
  785YOPS   PO411768   0.792   8.341   5.176 -0.1607  0.0649 -0.0819
  785YOPS   GL111769   0.663   8.373   5.497 -0.1985  0.0037  0.1619
  785YOPS   GL211770   0.629   8.686   5.592 -0.2821  0.0178  0.2683
  785YOPS   C1A11771   0.886   8.272   5.907  0.3042  0.0344  0.0938
  785YOPS   D2A11772   1.027   8.349   6.265  0.2246 -0.2784 -0.0143
  785YOPS   C3A11773   1.206   8.506   6.512 -0.2383  0.1282 -0.1347
  785YOPS   C4A11774   0.973   8.354   6.791 -0.0985 -0.2794  0.1461
  785YOPS   C1B11775   0.612   8.765   6.047  0.0930  0.0717  0.1770
  785YOPS   C2B11776   0.762   8.839   6.414 -0.0981 -0.0371  0.2391
  785YOPS   D3B11777   0.688   8.736   6.905  0.1298  0.0064  0.1371
  785YOPS   C4B11778   0.746   8.470   7.294 -0.3763  0.2696  0.1816
  786YOPS   CNO11779   9.548  17.373   5.574  0.1301 -0.0396 -0.0407
  786YOPS   PO411780   9.389  17.451   5.928 -0.0634 -0.1449 -0.2575
  786YOPS   GL111781   9.185  17.414   6.354  0.0086  0.1740 -0.0701
  786YOPS   GL211782   9.302  17.496   6.620 -0.0145  0.2809 -0.2575
  786YOPS   C1A11783   8.751  17.485   6.524 -0.2328  0.0601 -0.1995
  786YOPS   D2A11784   8.675  17.442   6.880 -0.0181 -0.2276  0.0711
  786YOPS   C3A11785   8.587  17.574   7.211  0.1211  0.2363 -0.1683
  786YOPS   C4A11786   8.470  17.333   7.503 -0.2543 -0.0136 -0.0663
  786YOPS   C1B11787   9.202  17.444   7.055  0.0417  0.2048  0.0003
  786YOPS   C2B11788   8.926  17.205   7.285 -0.2520 -0.3759 -0.0925
  786YOPS   D3B11789   9.246  17.017   7.615  0.0155  0.1074  0.2224
  786YOPS   C4B11790   9.242  16.624   7.733 -0.0832 -0.0569  0.3420
  787YOPS   CNO11791   7.502   5.373   4.641 -0.2066 -0.0556 -0.0217
  787YOPS   PO411792   7.579   5.533   5.006 -0.1307  0.1632 -0.0360
  787YOPS   GL111793   7.575   5.486   5.521  0.1997  0.0005 -0.1275
  787YOPS   GL211794   7.355   5.215   5.723 -0.2717 -0.2499 -0.2316
  787YOPS   C1A11795   7.421   5.703   5.838 -0.2288 -0.1481 -0.0756
  787YOPS   D2A11796   7.398   5.905   6.211  0.3150  0.5052  0.1500
  787YOPS   C3A11797   7.664   6.048   6.540  0.1968  0.0694 -0.3235
  787YOPS   C4A11798   7.648   5.934   7.004 -0.0539  0.1364  0.0727
  787YOPS   C1B11799   7.431   5.209   6.178 -0.0025  0.1801  0.4663
  787YOPS   C2B11800   7.521   5.052   6.576 -0.1406  0.1254 -0.0279
  787YOPS   D3B11801   7.631   4.911   6.940  0.2706 -0.0438  0.0098
  787YOPS   C4B11802   7.563   4.514   7.181  0.1387  0.2603 -0.0772
  788YOPS   CNO11803  14.886  16.257   5.781  0.0841  0.0825  0.0853
  788YOPS   PO411804  15.306  16.360   5.756 -0.0418  0.0117 -0.1179
  788YOPS   GL111805  15.396  16.535   6.297  0.0124 -0.2060  0.3376
  788YOPS   GL211806  15.396  16.352   6.643 -0.0785 -0.2414 -0.2313
  788YOPS   C1A11807  15.631  16.800   6.547 -0.0890  0.4075  0.2290
  788YOPS   D2A11808  16.002  17.100   6.458  0.4676  0.2039 -0.4088
  788YOPS   C3A11809  16.136  17.453   6.285  0.2335  0.0661  0.0379
  788YOPS   C4A11810  16.141  17.730   6.557 -0.1061  0.3778  0.0064
  788YOPS   C1B11811  15.355  16.663   7.036  0.0320 -0.0329 -0.1710
  788YOPS   C2B11812  15.315  16.993   7.410  0.1059  0.1498 -0.0557
  788YOPS   D3B11813  15.240  17.346   7.742 -0.2340  0.0445 -0.2207
  788YOPS   C4B11814  15.404  17.152   8.105 -0.0522  0.0095  0.0090
  789YOPS   CNO11815   0.882  15.344   5.437 -0.1231 -0.1595  0.0832
  789YOPS   PO411816   1.349  15.361   5.494 -0.1771 -0.0617 -0.1738
  789YOPS   GL111817   1.566  15.236   5.872  0.0387  0.2258  0.2729
  789YOPS   GL211818   1.862  15.021   5.976 -0.3399  0.3137  0.3445
  789YOPS   C1A11819   1.452  14.907   6.202  0.0841  0.5263  0.2581
  789YOPS   D2A11820   1.314  14.868   6.564 -0.0061  0.6117  0.0002
  789YOPS   C3A11821   1.282  14.529   6.871  0.1987  0.0544  0.2825
  789YOPS   C4A11822   1.554  14.673   7.252 -0.1104 -0.0906  0.2162
  789YOPS   C1B11823   1.831  14.588   6.096 -0.0796  0.0467 -0.1706
  789YOPS   C2B11824   1.974  14.287   6.351 -0.2450  0.0219  0.1535
  789YOPS   D3B11825   2.349  14.082   6.613 -0.1209 -0.1130 -0.0449
  789YOPS   C4B11826   2.663  14.414   6.912  0.3978 -0.1800 -0.2767
  790YOPS   CNO11827  13.805   5.081   5.598 -0.2210  0.1521  0.2228
  790YOPS   PO411828  13.381   5.231   5.528 -0.1256  0.0282  0.0787
  790YOPS   GL111829  13.308   5.110   5.852  0.1536 -0.0960 -0.1584
  790YOPS   GL211830  13.100   5.218   6.097  0.1005  0.0306  0.0230
  790YOPS   C1A11831  13.613   4.888   6.038  0.0400  0.1702  0.2142
  790YOPS   D2A11832  14.015   4.886   6.257 -0.1850 -0.0066 -0.0339
  790YOPS   C3A11833  14.119   4.871   6.615 -0.1659  0.1346  0.0990
  790YOPS   C4A11834  14.196   4.591   6.832 -0.1870 -0.0832 -0.0488
  790YOPS   C1B11835  13.147   5.216   6.570 -0.1137  0.0822 -0.2881
  790YOPS   C2B11836  13.277   5.566   6.938 -0.2316 -0.2934  0.4776
  790YOPS   D3B11837  13.091   5.789   7.245 -0.2359 -0.0360  0.1820
  790YOPS   C4B11838  12.722   5.711   7.438 -0.1283 -0.0042 -0.1269
  791YOPS   CNO11839   9.113   8.479   5.405 -0.0314 -0.0103 -0.1909
  791YOPS   PO411840   9.554   8.316   5.552  0.0443 -0.0583  0.0132
  791YOPS   GL111841   9.627   8.574   5.942  0.1466  0.4140 -0.2247
  791YOPS   GL211842   9.740   8.947   6.059  0.1140 -0.0070  0.1421
  791YOPS   C1A11843   9.492   8.542   6.318 -0.3841 -0.0332 -0.1827
  791YOPS   D2A11844   9.131   8.633   6.612  0.1372 -0.2946  0.0247
  791YOPS   C3A11845   9.103   8.968   6.930  0.0655  0.2549  0.2334
  791YOPS   C4A11846   9.049   8.998   7.415 -0.0678 -0.0224 -0.3724
  791YOPS   C1B11847   9.874   8.892   6.477  0.0843 -0.0127 -0.0610
  791YOPS   C2B11848   9.875   8.990   6.812 -0.3156  0.1226 -0.1403
  791YOPS   D3B11849  10.144   9.213   7.009  0.2111  0.5363 -0.4063
  791YOPS   C4B11850  10.533   8.945   7.062 -0.1412  0.0109 -0.2406
  792YOPS   CNO11851  12.616   5.089   5.259 -0.0668 -0.3020  0.0460
  792YOPS   PO411852  12.465   4.845   5.586 -0.1449 -0.0033 -0.4786
  792YOPS   GL111853  12.731   4.866   5.909 -0.1701 -0.1192 -0.4322
  792YOPS   GL211854  12.507   4.683   6.066 -0.0812 -0.3515  0.0125
  792YOPS   C1A11855  12.681   5.028   6.301  0.0367  0.2154  0.0735
  792YOPS   D2A11856  12.578   5.151   6.676 -0.0825 -0.0787  0.1225
  792YOPS   C3A11857  12.387   5.097   7.090 -0.0568  0.3020 -0.2903
  792YOPS   C4A11858  12.239   5.182   7.627  0.1064  0.0360  0.0570
  792YOPS   C1B11859  12.477   4.654   6.507 -0.1471  0.0220 -0.2897
  792YOPS   C2B11860  12.461   4.639   6.962  0.0549 -0.2304  0.0540
  792YOPS   D3B11861  12.335   4.493   7.349 -0.0574  0.0635 -0.0841
  792YOPS   C4B11862  12.298   4.018   7.365 -0.2303  0.0760 -0.0135
  793YOPS   CNO11863  14.406  16.416   5.635  0.0439  0.1993 -0.1521
  793YOPS   PO411864  14.597  16.649   6.025 -0.0507 -0.2028  0.0348
  793YOPS   GL111865  14.463  16.675   6.450  0.2489 -0.0483  0.1950
  793YOPS   GL211866  14.276  16.937   6.508 -0.0589 -0.2582 -0.0449
  793YOPS   C1A11867  14.735  16.729   6.916 -0.1151  0.2025  0.1161
  793YOPS   D2A11868  14.740  16.732   7.380  0.0883  0.6676 -0.4337
  793YOPS   C3A11869  14.610  16.521   7.792 -0.2116 -0.0627 -0.0722
  793YOPS   C4A11870  14.330  16.136   8.018  0.0207  0.0706 -0.1188
  793YOPS   C1B11871  14.314  17.054   7.032  0.3240  0.2151 -0.1294
  793YOPS   C2B11872  14.384  17.224   7.343 -0.0188  0.0559 -0.2322
  793YOPS   D3B11873  14.133  17.529   7.603 -0.0414  0.0358  0.2076
  793YOPS   C4B11874  14.049  17.608   8.023 -0.0395  0.0518 -0.2453
  794YOPS   CNO11875   4.561  17.426   5.007  0.4802  0.2723  0.1863
  794YOPS   PO411876   4.610  17.117   5.342  0.3396 -0.1771  0.3333
  794YOPS   GL111877   4.562  17.188   5.787  0.0142  0.3150  0.2684
  794YOPS   GL211878   4.812  16.852   5.940 -0.4622 -0.0112  0.0889
  794YOPS   C1A11879   4.471  17.264   6.151  0.0646  0.1375  0.1822
  794YOPS   D2A11880   4.421  17.363   6.640  0.0458 -0.2381  0.1183
  794YOPS   C3A11881   4.714  17.272   6.954 -0.0832 -0.1174  0.2214
  794YOPS   C4A11882   4.829  17.629   7.222  0.0544  0.0751 -0.0823
  794YOPS   C1B11883   4.687  16.554   6.321 -0.2495 -0.1488 -0.4804
  794YOPS   C2B11884   4.501  16.436   6.652  0.1109 -0.0007 -0.0500
  794YOPS   D3B11885   4.288  16.138   6.803 -0.0502  0.2107 -0.3023
  794YOPS   C4B11886   3.936  16.040   7.036 -0.1379 -0.0849  0.0263
  795YOPS   CNO11887   2.055  12.696   5.359  0.0760 -0.1277 -0.1337
  795YOPS   PO411888   2.111  13.242   5.326  0.0789  0.1474  0.1149
  795YOPS   GL111889   2.167  13.084   5.750  0.1371 -0.0983 -0.4666
  795YOPS   GL211890   1.804  13.004   5.884 -0.3832  0.0406 -0.0435
  795YOPS   C1A11891   2.219  13.266   6.197  0.2214  0.0890  0.0317
  795YOPS   D2A11892   2.431  13.196   6.576  0.2947  0.0675  0.0216
  795YOPS   C3A11893   2.467  13.240   7.026 -0.2119  0.0149 -0.0276
  795YOPS   C4A11894   2.672  13.174   7.468  0.0862 -0.0185  0.1128
  795YOPS   C1B11895   1.693  13.001   6.299 -0.2526 -0.1989  0.4549
  795YOPS   C2B11896   1.905  13.294   6.634  0.2955 -0.1491 -0.0922
  795YOPS   D3B11897   2.180  13.688   6.867 -0.2821  0.1698 -0.0472
  795YOPS   C4B11898   2.413  13.903   7.213 -0.1325 -0.1449  0.2998
  796YOPS   CNO11899   2.040  18.223   5.132 -0.1028 -0.0389  0.3301
  796YOPS   PO411900   2.258  18.030   5.438 -0.0640 -0.0237 -0.4074
  796YOPS   GL111901   2.125  18.208   5.850  0.2343 -0.1767  0.0742
  796YOPS   GL211902   2.351  18.465   6.020  0.0100  0.1099 -0.3018
  796YOPS   C1A11903   1.873  18.193   6.126 -0.2593  0.0987  0.2026
  796YOPS   D2A11904   1.536  18.394   6.381 -0.2523 -0.0300  0.0978
  796YOPS   C3A11905   1.455  18.451   6.830  0.2603  0.0058  0.3184
  796YOPS   C4A11906   0.991  18.217   6.977  0.0618 -0.0036  0.0181
  796YOPS   C1B11907   2.409  18.389   6.378 -0.1237 -0.0530  0.3138
  796YOPS   C2B11908   2.469  18.442   6.740  0.4738  0.3138  0.1701
  796YOPS   D3B11909   2.523  18.581   7.149 -0.2026  0.0729  0.0144
  796YOPS   C4B11910   2.850  18.857   7.339 -0.1590 -0.1256  0.0119
  797YOPS   CNO11911  13.548  10.549   5.029  0.5013 -0.2256 -0.0234
  797YOPS   PO411912  13.746  10.788   5.393 -0.1777 -0.2891 -0.0868
  797YOPS   GL111913  13.881  10.634   5.790 -0.1679  0.1142  0.2070
  797YOPS   GL211914  14.095  10.431   5.722 -0.0670 -0.2158  0.0819
  797YOPS   C1A11915  13.693  10.635   6.137 -0.0383 -0.1563 -0.1609
  797YOPS   D2A11916  13.505  10.734   6.482  0.0843 -0.1268  0.0742
  797YOPS   C3A11917  13.571  10.739   6.998  0.0651 -0.0939  0.1087
  797YOPS   C4A11918  14.032  10.538   7.081  0.2615 -0.0200  0.2404
  797YOPS   C1B11919  14.218  10.423   6.159  0.2658 -0.2864  0.2598
  797YOPS   C2B11920  14.423  10.233   6.490  0.0849  0.1273 -0.0955
  797YOPS   D3B11921  14.446  10.149   6.860 -0.2418  0.2105 -0.2620
  797YOPS   C4B11922  14.087  10.001   6.973 -0.3059 -0.1474 -0.1265
  798YOPS   CNO11923   9.847  17.766   5.859  0.2380 -0.1155 -0.0054
  798YOPS   PO411924   9.835  18.240   5.977 -0.0619 -0.0605  0.0918
  798YOPS   GL111925   9.587  18.122   6.238  0.2017  0.3754  0.1296
  798YOPS   GL211926   9.505  17.829   6.292 -0.0203 -0.0114 -0.0459
  798YOPS   C1A11927   9.276  18.357   6.448  0.1464  0.1557  0.0646
  798YOPS   D2A11928   9.078  18.530   6.802  0.0402 -0.0659  0.0051
  798YOPS   C3A11929   9.168  18.448   7.300 -0.0966 -0.0279 -0.3020
  798YOPS   C4A11930   9.053  18.513   7.723 -0.0890 -0.1982 -0.3072
  798YOPS   C1B11931   9.581  17.877   6.759  0.1465 -0.1437 -0.1351
  798YOPS   C2B11932   9.563  18.180   7.004 -0.1150  0.1338 -0.0903
  798YOPS   D3B11933   9.849  18.455   7.233 -0.0096  0.1814  0.1855
  798YOPS   C4B11934  10.038  18.264   7.600 -0.2479  0.0954 -0.2356
  799YOPS   CNO11935   3.524  12.171   5.158  0.2870  0.0595 -0.3566
  799YOPS   PO411936   3.854  12.190   5.500  0.2125  0.1720 -0.2159
  799YOPS   GL111937   3.900  12.412   5.805  0.1296 -0.0267 -0.0009
  799YOPS   GL211938   3.970  12.853   5.760  0.1479 -0.0346 -0.1359
  799YOPS   C1A11939   3.938  12.532   6.128  0.1123  0.0350  0.2083
  799YOPS   D2A11940   4.046  12.705   6.467  0.1869 -0.2264  0.0506
  799YOPS   C3A11941   3.726  12.654   6.781 -0.0460 -0.1104  0.0882
  799YOPS   C4A11942   3.355  12.813   6.719  0.2459 -0.0599 -0.1433
  799YOPS   C1B11943   4.120  13.049   6.025 -0.0194 -0.3209  0.2430
  799YOPS   C2B11944   4.297  13.303   6.181 -0.1634 -0.3401  0.0504
  799YOPS   D3B11945   4.562  13.449   6.493  0.1847  0.0933  0.0351
  799YOPS   C4B11946   4.613  13.213   6.939 -0.2171  0.1590 -0.3098
  800YOPS   CNO11947   2.716  11.411   5.685  0.2935  0.1338  0.3660
  800YOPS   PO411948   2.492  11.718   5.502 -0.0157 -0.0501 -0.0100
  800YOPS   GL111949   2.388  12.018   5.866  0.0033 -0.1411  0.0006
  800YOPS   GL211950   2.423  12.302   6.182 -0.0532 -0.0633 -0.1807
  800YOPS   C1A11951   2.005  12.053   6.127 -0.1055  0.0448  0.0684
  800YOPS   D2A11952   2.001  12.085   6.512  0.1772  0.1101 -0.0590
  800YOPS   C3A11953   1.867  11.952   6.953 -0.4466 -0.0362 -0.1594
  800YOPS   C4A11954   2.284  11.886   7.287  0.0080 -0.0321  0.1288
  800YOPS   C1B11955   2.472  12.212   6.607 -0.1269 -0.0428  0.5412
  800YOPS   C2B11956   2.597  12.233   7.042 -0.1017  0.2850 -0.0723
  800YOPS   D3B11957   2.625  12.165   7.497 -0.0145 -0.0699 -0.0405
  800YOPS   C4B11958   2.780  12.624   7.565 -0.0669 -0.0558 -0.1003
  801POPE   NH311959  14.149   6.906   5.561 -0.2696 -0.1726 -0.0021
  801POPE   PO411960  14.259   6.542   5.584  0.1534 -0.0431 -0.0701
  801POPE   GL111961  14.216   6.292   5.889  0.0144  0.0637  0.0532
  801POPE   GL211962  14.081   5.948   5.900 -0.0488 -0.1415  0.0894
  801POPE   C1A11963  13.942   6.350   6.376  0.1389 -0.1835  0.0082
  801POPE   D2A11964  13.830   6.330   6.758  0.4259  0.2020 -0.0172
  801POPE   C3A11965  14.099   6.397   7.056  0.2061  0.1405  0.1471
  801POPE   C4A11966  14.565   6.508   6.917  0.1723 -0.0264  0.2636
  801POPE   C1B11967  14.103   5.836   6.352  0.1047 -0.1629  0.2292
  801POPE   C2B11968  13.873   5.864   6.532  0.1325  0.2089 -0.1115
  801POPE   C3B11969  13.820   5.873   6.939 -0.0439  0.0971  0.0604
  801POPE   C4B11970  13.630   5.829   7.240 -0.2095  0.4463  0.0435
  802POPE   NH311971  17.096   7.768   5.798  0.2036 -0.0363  0.2316
  802POPE   PO411972  17.038   7.389   5.508  0.2597 -0.0476  0.0953
  802POPE   GL111973  17.266   7.139   5.874  0.0524 -0.0369  0.1834
  802POPE   GL211974  17.541   6.958   5.671 -0.3940  0.0632 -0.0722
  802POPE   C1A11975  17.569   7.118   6.118 -0.1468 -0.4137 -0.0010
  802POPE   D2A11976  17.877   6.823   6.266  0.0365 -0.2760 -0.0428
  802POPE   C3A11977  17.909   6.970   6.736  0.2485 -0.0201  0.0346
  802POPE   C4A11978  17.910   7.265   7.137  0.2820 -0.0720 -0.2958
  802POPE   C1B11979  17.439   6.646   5.854 -0.0617  0.1706 -0.0592
  802POPE   C2B11980  17.665   6.393   6.243 -0.0507 -0.1574  0.1753
  802POPE   C3B11981  17.830   6.501   6.688 -0.1023 -0.1741 -0.3542
  802POPE   C4B11982  17.864   6.294   7.044  0.1446 -0.1310 -0.1002
  803POPE   NH311983  16.838   1.312   5.890  0.2846 -0.0560 -0.0844
  803POPE   PO411984  16.418   1.182   5.673  0.0023  0.1573 -0.2318
  803POPE   GL111985  16.392   1.361   6.131  0.3405  0.0066 -0.1146
  803POPE   GL211986  16.551   1.606   6.370  0.1215  0.3529 -0.0345
  803POPE   C1A11987  16.054   1.298   6.393 -0.2531  0.1596  0.0497
  803POPE   D2A11988  16.019   1.446   6.778 -0.2759 -0.0402  0.2934
  803POPE   C3A11989  15.947   1.268   7.260  0.0595 -0.2592  0.1291
  803POPE   C4A11990  15.887   0.933   7.360  0.1991 -0.0174  0.3235
  803POPE   C1B11991  16.512   1.515   6.716 -0.0486  0.1221 -0.0890
  803POPE   C2B11992  16.479   1.572   7.048 -0.0388  0.1491  0.0186
  803POPE   C3B11993  16.633   1.391   7.447 -0.4854 -0.0835 -0.0716
  803POPE   C4B11994  16.977   1.468   7.499  0.2528  0.0573  0.0885
  804POPE   NH311995  12.854   3.405   5.724 -0.0800  0.2302 -0.0567
  804POPE   PO411996  12.772   3.811   5.884 -0.1436  0.2057 -0.3284
  804POPE   GL111997  12.851   3.759   6.363  0.0777  0.0333  0.0898
  804POPE   GL211998  12.762   3.471   6.359 -0.4653 -0.2588  0.0302
  804POPE   C1A11999  13.096   3.805   6.709  0.0902 -0.1295 -0.3826
  804POPE   D2A12000  13.152   3.603   7.034 -0.1349 -0.1467  0.1983
  804POPE   C3A12001  13.142   3.660   7.496 -0.3803 -0.1277 -0.2287
  804POPE   C4A12002  13.450   3.495   7.767  0.1445  0.2664  0.1082
  804POPE   C1B12003  12.912   3.234   6.819 -0.1204  0.0290  0.0152
  804POPE   C2B12004  12.967   3.235   7.307 -0.3176 -0.0386  0.0031
  804POPE   C3B12005  12.998   3.168   7.731  0.3143 -0.2126 -0.0289
  804POPE   C4B12006  12.963   3.163   8.246  0.0608 -0.1069  0.2245
  805POPE   NH312007   3.642  13.854   5.066  0.3525  0.0492  0.4994
  805POPE   PO412008   3.344  13.961   5.261 -0.0262 -0.3909  0.2556
  805POPE   GL112009   3.198  13.834   5.700  0.0688  0.0988  0.0355
  805POPE   GL212010   3.478  13.852   5.862 -0.1525  0.0988  0.5012
  805POPE   C1A12011   2.916  13.839   6.077  0.0471  0.0726 -0.3949
  805POPE   D2A12012   2.592  13.644   6.394 -0.2343 -0.0692  0.0731
  805POPE   C3A12013   2.726  13.595   6.835  0.1616 -0.3578  0.1537
  805POPE   C4A12014   2.870  13.481   7.176  0.2030 -0.1020 -0.1513
  805POPE   C1B12015   3.343  13.967   6.312 -0.2411  0.0782 -0.2742
  805POPE   C2B12016   3.320  13.944   6.764 -0.0360  0.0763 -0.1619
  805POPE   C3B12017   3.408  13.755   7.183  0.0881  0.0629 -0.1570
  805POPE   C4B12018   3.720  14.135   7.522 -0.3837  0.2488  0.1161
  806POPE   NH312019  17.862  13.922   5.435  0.1749  0.1345  0.2493
  806POPE   PO412020  18.123  13.842   5.765 -0.3087 -0.1810  0.1468
  806POPE   GL112021  18.038  13.854   6.200  0.2042 -0.1277 -0.0714
  806POPE   GL212022  18.181  14.076   6.306  0.1930 -0.3296  0.0193
  806POPE   C1A12023  18.301  13.653   6.609 -0.1493  0.4489  0.1057
  806POPE   D2A12024  18.424  13.605   7.048 -0.2000 -0.1308  0.1619
  806POPE   C3A12025  18.024  13.523   7.252  0.0978 -0.2447  0.0989
  806POPE   C4A12026  17.829  13.259   7.565  0.0999 -0.2122 -0.0593
  806POPE   C1B12027  18.355  14.143   6.654  0.0443  0.0434 -0.0511
  806POPE   C2B12028  18.614  14.335   6.969  0.2852  0.2533  0.2341
  806POPE   C3B12029  18.744  14.682   7.286 -0.1764 -0.1435  0.0649
  806POPE   C4B12030  18.604  15.042   7.534  0.1670 -0.1204  0.3326
  807POPE   NH312031   6.123  15.589   5.479  0.0604  0.0636 -0.0969
  807POPE   PO412032   6.639  15.639   5.581  0.1731 -0.2837 -0.1792
  807POPE   GL112033   6.491  15.790   5.949  0.2786  0.0834 -0.2990
  807POPE   GL212034   6.466  16.107   5.957 -0.0511  0.0088 -0.2620
  807POPE   C1A12035   6.558  15.719   6.365 -0.0901 -0.0868 -0.2616
  807POPE   D2A12036   6.682  15.688   6.825 -0.0588 -0.0309  0.1403
  807POPE   C3A12037   6.916  15.342   6.881  0.0902  0.0732 -0.1975
  807POPE   C4A12038   7.094  15.110   7.233 -0.3204  0.1667  0.2236
  807POPE   C1B12039   6.779  16.195   6.236  0.0921  0.0453 -0.1603
  807POPE   C2B12040   6.741  16.215   6.693 -0.2793 -0.1002 -0.4096
  807POPE   C3B12041   6.683  16.556   6.893  0.1135 -0.0082 -0.0298
  807POPE   C4B12042   6.635  16.831   7.249 -0.1812 -0.1943 -0.1691
  808POPE   NH312043   1.506  11.942   5.449  0.0836  0.0986  0.0959
  808POPE   PO412044   1.726  12.310   5.419  0.0766  0.0433  0.1343
  808POPE   GL112045   1.657  12.216   5.818 -0.1959  0.3746  0.0600
  808POPE   GL212046   1.547  12.613   5.941  0.0064  0.2666 -0.3853
  808POPE   C1A12047   1.563  12.180   6.290  0.1431  0.3327 -0.0547
  808POPE   D2A12048   1.511  12.166   6.695  0.0046 -0.0567  0.0899
  808POPE   C3A12049   1.627  12.444   7.006 -0.3195 -0.0368 -0.0344
  808POPE   C4A12050   1.709  12.823   7.223  0.0429 -0.0956 -0.1172
  808POPE   C1B12051   1.244  12.803   6.158 -0.1004  0.3724 -0.0251
  808POPE   C2B12052   1.004  12.875   6.544 -0.1883 -0.0713 -0.0372
  808POPE   C3B12053   1.013  13.191   6.733  0.1587  0.2282  0.0469
  808POPE   C4B12054   1.195  13.270   7.131 -0.2596 -0.3410  0.0224
  809POPE   NH312055   3.388  14.317   5.592 -0.0871 -0.2077  0.2127
  809POPE   PO412056   3.359  14.736   5.490 -0.1143 -0.2147 -0.1822
  809POPE   GL112057   3.271  14.797   5.958  0.2103  0.1929 -0.1448
  809POPE   GL212058   3.578  14.951   6.062  0.0572  0.4714  0.0537
  809POPE   C1A12059   2.915  14.767   6.230  0.0481 -0.3359  0.0546
  809POPE   D2A12060   2.736  14.414   6.421  0.0797 -0.2325 -0.3954
  809POPE   C3A12061   2.842  14.034   6.551 -0.0598  0.1291 -0.1190
  809POPE   C4A12062   2.862  14.036   7.033  0.0304  0.0584 -0.0888
  809POPE   C1B12063   3.340  14.973   6.507 -0.0949  0.0700  0.2372
  809POPE   C2B12064   3.512  14.980   6.932  0.3298 -0.1346 -0.0507
  809POPE   C3B12065   3.805  15.219   7.173 -0.1512 -0.0569  0.2809
  809POPE   C4B12066   4.206  15.211   7.230  0.3062  0.2218  0.0064
  810POPE   NH312067   8.812  12.544   5.654  0.0254 -0.2138 -0.0142
  810POPE   PO412068   9.127  12.938   5.720  0.3032 -0.1223  0.1978
  810POPE   GL112069   9.095  12.594   6.054 -0.1819 -0.0893  0.1036
  810POPE   GL212070   9.003  12.693   6.380  0.0258  0.1295 -0.1071
  810POPE   C1A12071   9.259  12.154   6.421  0.2151  0.1857  0.0053
  810POPE   D2A12072   9.442  11.799   6.400 -0.0482  0.1444 -0.1304
  810POPE   C3A12073   9.643  11.637   6.832  0.3007 -0.1922  0.1311
  810POPE   C4A12074   9.493  11.325   7.120 -0.1689 -0.1795 -0.0257
  810POPE   C1B12075   9.150  12.521   6.807  0.0969 -0.0074 -0.0456
  810POPE   C2B12076   9.290  12.500   7.288 -0.0384  0.1190 -0.0922
  810POPE   C3B12077   9.309  12.343   7.714  0.1263  0.2688  0.2014
  810POPE   C4B12078   9.196  12.231   8.218 -0.4279 -0.1841 -0.0344
  811POPE   NH312079   4.178   6.068   5.606  0.2314  0.1886 -0.3403
  811POPE   PO412080   4.584   6.049   5.608  0.0594 -0.0901 -0.2884
  811POPE   GL112081   4.511   6.307   5.967 -0.0295  0.0289 -0.0359
  811POPE   GL212082   4.126   6.473   5.948 -0.0507  0.0760 -0.0473
  811POPE   C1A12083   4.451   6.027   6.350  0.2192  0.1738  0.2042
  811POPE   D2A12084   4.353   5.859   6.811  0.1438  0.1757 -0.1326
  811POPE   C3A12085   4.366   5.511   7.041 -0.1301  0.1788 -0.0293
  811POPE   C4A12086   4.280   5.059   7.246  0.2363  0.2162  0.0999
  811POPE   C1B12087   4.263   6.585   6.392  0.0517  0.0786  0.1932
  811POPE   C2B12088   4.212   6.771   6.901 -0.1946  0.0907  0.1076
  811POPE   C3B12089   4.247   6.860   7.304  0.0000  0.1933 -0.0923
  811POPE   C4B12090   4.617   6.920   7.592  0.0329  0.2135  0.2438
  812POPE   NH312091   5.729  11.150   5.718 -0.4129  0.0977 -0.1246
  812POPE   PO412092   5.765  11.523   5.604 -0.0571  0.2488  0.1281
  812POPE   GL112093   5.410  11.606   5.689  0.1846  0.1634  0.0646
  812POPE   GL212094   5.437  11.503   6.016  0.0111 -0.2158 -0.0755
  812POPE   C1A12095   5.174  11.883   5.934  0.0371 -0.1291  0.1338
  812POPE   D2A12096   4.972  11.911   6.317  0.2432 -0.1936  0.0911
  812POPE   C3A12097   5.188  12.088   6.677  0.0312  0.0894 -0.0967
  812POPE   C4A12098   5.389  12.393   6.986  0.2399  0.0517 -0.0112
  812POPE   C1B12099   5.623  11.246   6.317  0.1552 -0.0311  0.3349
  812POPE   C2B12100   5.683  11.048   6.636  0.0729 -0.1898  0.1564
  812POPE   C3B12101   5.394  11.075   6.905 -0.3410 -0.1407  0.2003
  812POPE   C4B12102   5.236  10.947   7.318 -0.0276  0.0980  0.3425
  813POPE   NH312103  13.121   4.840   5.448 -0.1777 -0.0018 -0.3292
  813POPE   PO412104  13.031   4.464   5.662 -0.3702  0.0624 -0.1017
  813POPE   GL112105  13.204   4.642   6.014 -0.1700  0.2080  0.1094
  813POPE   GL212106  13.404   4.462   6.202  0.1581 -0.0131  0.1849
  813POPE   C1A12107  13.054   4.689   6.400 -0.0240  0.2668  0.0695
  813POPE   D2A12108  12.906   4.732   6.781  0.2491 -0.0090 -0.2261
  813POPE   C3A12109  13.156   5.015   7.013 -0.2505  0.2459 -0.2597
  813POPE   C4A12110  13.479   5.179   7.182 -0.2278 -0.0928 -0.0145
  813POPE   C1B12111  13.511   4.741   6.541 -0.1056  0.2242 -0.3320
  813POPE   C2B12112  13.604   4.695   6.955 -0.3862  0.1531  0.1905
  813POPE   C3B12113  13.725   4.756   7.283 -0.2897 -0.1808 -0.0601
  813POPE   C4B12114  13.727   4.521   7.629 -0.1439 -0.2116 -0.1825
  814POPE   NH312115  14.546   1.823   5.600 -0.1106 -0.1209 -0.0744
  814POPE   PO412116  14.486   2.164   5.248 -0.2188  0.1224 -0.1520
  814POPE   GL112117  14.432   2.269   5.740  0.1204 -0.0883  0.0202
  814POPE   GL212118  14.548   2.611   5.742 -0.0264  0.0222 -0.1211
  814POPE   C1A12119  14.336   2.442   6.191 -0.2037  0.2375 -0.1560
  814POPE   D2A12120  14.464   2.642   6.669 -0.2771 -0.2118  0.0369
  814POPE   C3A12121  14.737   2.453   6.965 -0.1570 -0.2694 -0.0093
  814POPE   C4A12122  15.000   2.111   7.062 -0.0686  0.0488 -0.4551
  814POPE   C1B12123  14.223   2.908   6.024  0.0611  0.0200  0.0911
  814POPE   C2B12124  14.248   3.006   6.406  0.3825  0.2462  0.1675
  814POPE   C3B12125  14.343   3.119   6.780  0.1199 -0.0768 -0.3154
  814POPE   C4B12126  14.311   3.285   7.253  0.1073  0.1358  0.0622
  815POPE   NH312127   2.305  10.660   5.519 -0.0060  0.1311  0.1161
  815POPE   PO412128   1.909  10.682   5.560 -0.0794 -0.2261  0.0008
  815POPE   GL112129   1.991  10.657   5.965  0.2470 -0.1478  0.1833
  815POPE   GL212130   2.084  10.903   6.138 -0.2100 -0.0765 -0.4278
  815POPE   C1A12131   2.003  10.374   6.310 -0.0837  0.1659  0.0925
  815POPE   D2A12132   1.831  10.592   6.619 -0.0474  0.0282 -0.1239
  815POPE   C3A12133   1.617  10.530   7.043 -0.0797  0.0959 -0.2180
  815POPE   C4A12134   1.148  10.416   7.082 -0.0216  0.0328  0.1814
  815POPE   C1B12135   1.998  11.071   6.523 -0.0562  0.0119 -0.0024
  815POPE   C2B12136   1.680  11.233   6.731 -0.0784  0.0871  0.1689
  815POPE   C3B12137   1.290  11.289   6.686 -0.3492 -0.0389  0.0589
  815POPE   C4B12138   1.025  11.352   7.065 -0.0842 -0.2108  0.2766
  816POPE   NH312139  14.329  12.698   5.778 -0.4218  0.1885 -0.2943
  816POPE   PO412140  14.742  12.549   5.851 -0.1507 -0.3365 -0.0581
  816POPE   GL112141  14.597  12.453   6.258  0.1520 -0.0466 -0.1252
  816POPE   GL212142  14.482  12.190   6.265  0.1379 -0.1454 -0.1660
  816POPE   C1A12143  14.476  12.323   6.796 -0.2833  0.1076  0.1885
  816POPE   D2A12144  14.362  12.287   7.181 -0.0588  0.0471 -0.1712
  816POPE   C3A12145  14.239  12.268   7.592  0.0616  0.0737 -0.2444
  816POPE   C4A12146  14.107  12.538   7.935  0.1638  0.0902  0.1872
  816POPE   C1B12147  14.389  11.866   6.477 -0.0279 -0.0786 -0.4011
  816POPE   C2B12148  14.438  11.445   6.735  0.1513 -0.2319  0.2788
  816POPE   C3B12149  14.142  11.278   7.066  0.1576 -0.3348 -0.1785
  816POPE   C4B12150  14.225  11.366   7.456 -0.1347 -0.3981 -0.1979
  817POPE   NH312151  15.590   7.220   5.429  0.2245 -0.1872  0.1691
  817POPE   PO412152  15.288   7.036   5.214  0.4682  0.0809  0.4504
  817POPE   GL112153  15.163   7.192   5.696 -0.2104  0.2681 -0.1107
  817POPE   GL212154  15.269   7.394   5.903  0.0591  0.2513 -0.0873
  817POPE   C1A12155  14.827   7.141   5.992 -0.0281  0.4358  0.1201
  817POPE   D2A12156  14.877   7.096   6.391 -0.3267 -0.1883  0.0899
  817POPE   C3A12157  14.686   7.003   6.800 -0.3227 -0.1934  0.4253
  817POPE   C4A12158  14.746   6.999   7.199 -0.3165 -0.0317 -0.0467
  817POPE   C1B12159  15.376   7.292   6.388  0.0986 -0.2022  0.1567
  817POPE   C2B12160  15.382   7.069   6.665  0.2923  0.0343 -0.2579
  817POPE   C3B12161  15.202   6.841   7.063  0.0623  0.1856 -0.0889
  817POPE   C4B12162  15.060   6.627   7.373  0.0260  0.3668  0.0088
  818POPE   NH312163  13.825   4.550   5.113 -0.1183 -0.0020  0.2446
  818POPE   PO412164  13.735   4.284   5.272  0.0327 -0.0523 -0.0505
  818POPE   GL112165  13.668   4.071   5.714  0.0178  0.3440 -0.1806
  818POPE   GL212166  13.350   4.135   5.885  0.2193 -0.0759 -0.1152
  818POPE   C1A12167  13.798   3.768   6.033  0.0228 -0.1678  0.1142
  818POPE   D2A12168  13.790   3.622   6.321 -0.4988  0.1231  0.0163
  818POPE   C3A12169  14.113   3.614   6.669 -0.1874  0.2268  0.0342
  818POPE   C4A12170  14.097   3.827   7.103 -0.2285  0.0906  0.1282
  818POPE   C1B12171  13.351   3.906   6.280 -0.1258 -0.0703 -0.1859
  818POPE   C2B12172  13.571   3.849   6.738  0.3561 -0.1419 -0.1751
  818POPE   C3B12173  13.626   3.773   7.123 -0.1775  0.0947  0.1197
  818POPE   C4B12174  13.821   3.798   7.518  0.0803 -0.5317 -0.0586
  819POPE   NH312175  16.978   6.879   5.051  0.1800 -0.0120  0.1101
  819POPE   PO412176  17.338   6.568   5.076  0.3954 -0.1470  0.0309
  819POPE   GL112177  17.623   6.298   5.409  0.0390 -0.0302  0.4198
  819POPE   GL212178  17.564   6.007   5.352  0.4143 -0.2478 -0.1392
  819POPE   C1A12179  17.690   6.046   5.893 -0.0491  0.0971 -0.2674
  819POPE   D2A12180  17.498   5.847   6.234  0.1340  0.1418  0.0909
  819POPE   C3A12181  17.381   6.027   6.623  0.2815 -0.3934 -0.1747
  819POPE   C4A12182  17.461   5.759   7.080  0.1130  0.1948  0.2310
  819POPE   C1B12183  17.373   5.708   5.680 -0.1381  0.1676 -0.0398
  819POPE   C2B12184  17.218   5.264   5.800 -0.1261 -0.0035  0.0891
  819POPE   C3B12185  17.230   4.917   6.155 -0.2284  0.4866  0.2787
  819POPE   C4B12186  16.911   4.651   6.383 -0.0846 -0.1799 -0.1684
  820POPE   NH312187   4.833   5.465   5.168  0.1624 -0.0104  0.1775
  820POPE   PO412188   5.139   5.288   5.429 -0.0081  0.2163  0.0261
  820POPE   GL112189   5.304   5.131   5.798  0.3643  0.2029 -0.1381
  820POPE   GL212190   5.131   5.381   6.067 -0.0232  0.0093  0.1344
  820POPE   C1A12191   5.285   4.874   6.292 -0.1143 -0.2112 -0.0346
  820POPE   D2A12192   5.538   4.638   6.600 -0.4265  0.3755  0.2770
  820POPE   C3A12193   5.331   4.728   6.918 -0.1722  0.1731 -0.0817
  820POPE   C4A12194   5.146   4.554   7.296 -0.0897  0.0647  0.1814
  820POPE   C1B12195   5.273   5.654   6.398  0.0292 -0.0210  0.0220
  820POPE   C2B12196   5.332   5.689   6.794 -0.2424 -0.0988  0.0763
  820POPE   C3B12197   5.205   5.473   7.270  0.0204 -0.1042 -0.0272
  820POPE   C4B12198   5.325   5.217   7.146  0.0403 -0.1562 -0.0772
  821POPE   NH312199  17.385  12.038   5.901  0.0237  0.0311  0.2222
  821POPE   PO412200  17.835  12.149   5.545 -0.0067 -0.3169 -0.0968
  821POPE   GL112201  17.920  12.000   5.911  0.0189 -0.0956 -0.1022
  821POPE   GL212202  18.160  11.869   5.866 -0.0371 -0.0716  0.3162
  821POPE   C1A12203  17.971  12.064   6.299  0.4354  0.0182 -0.4212
  821POPE   D2A12204  18.190  12.323   6.619  0.1436 -0.3499  0.1433
  821POPE   C3A12205  18.426  12.140   6.943 -0.1634 -0.0841 -0.2065
  821POPE   C4A12206  18.672  12.076   7.455 -0.0372 -0.1576  0.1029
  821POPE   C1B12207  18.082  11.582   6.244  0.0352 -0.2628 -0.1180
  821POPE   C2B12208  18.016  11.304   6.699  0.0867  0.0705 -0.2508
  821POPE   C3B12209  17.979  11.135   7.092 -0.1532  0.0974  0.1095
  821POPE   C4B12210  18.045  10.786   7.415 -0.0222  0.2334 -0.0261
  822POPE   NH312211   1.854  14.588   5.412 -0.0789 -0.2546 -0.3004
  822POPE   PO412212   1.475  14.739   5.481  0.1633 -0.1612 -0.0242
  822POPE   GL112213   1.129  14.899   5.807 -0.1093  0.1153 -0.0714
  822POPE   GL212214   0.921  15.245   5.918 -0.1559  0.2512  0.1263
  822POPE   C1A12215   0.936  14.799   6.239 -0.0020  0.2658  0.2752
  822POPE   D2A12216   0.819  14.836   6.686  0.2010 -0.3332  0.0979
  822POPE   C3A12217   0.782  14.591   7.096 -0.1612 -0.1184 -0.2557
  822POPE   C4A12218   0.900  14.608   7.492  0.1456 -0.0395  0.5785
  822POPE   C1B12219   0.990  15.277   6.352 -0.0859  0.0583  0.1369
  822POPE   C2B12220   1.292  15.386   6.622 -0.1468 -0.0323  0.2385
  822POPE   C3B12221   1.513  15.656   6.905  0.2209 -0.0334  0.0272
  822POPE   C4B12222   1.782  15.493   7.276 -0.1209 -0.4022 -0.1802
  823POPE   NH312223  17.211  11.452   5.683  0.0916  0.2693  0.0242
  823POPE   PO412224  17.707  11.620   5.701  0.1177 -0.1213  0.1599
  823POPE   GL112225  17.578  11.644   6.136  0.0165  0.0835  0.3186
  823POPE   GL212226  17.244  11.573   6.177  0.1418 -0.0545  0.1937
  823POPE   C1A12227  17.718  11.662   6.588  0.3429  0.4658 -0.2777
  823POPE   D2A12228  18.136  11.785   6.731 -0.3794  0.0114  0.0552
  823POPE   C3A12229  18.356  11.614   7.115  0.0977  0.1265  0.1452
  823POPE   C4A12230  18.360  11.274   7.398 -0.0406 -0.1853  0.1323
  823POPE   C1B12231  17.229  11.494   6.540 -0.2457 -0.0869 -0.0130
  823POPE   C2B12232  17.329  11.612   6.951 -0.2509 -0.0308  0.3891
  823POPE   C3B12233  17.287  11.701   7.360 -0.0923  0.1175  0.0885
  823POPE   C4B12234  17.366  11.503   7.633  0.5139 -0.0608 -0.0228
  824POPE   NH312235   3.616  16.458   5.399 -0.2015 -0.0533  0.0398
  824POPE   PO412236   3.377  16.368   5.815 -0.4049  0.0298  0.1489
  824POPE   GL112237   3.638  16.414   6.235 -0.1548  0.0215 -0.2030
  824POPE   GL212238   3.746  16.743   6.330  0.1953  0.1553 -0.0934
  824POPE   C1A12239   3.771  16.370   6.657 -0.5189 -0.2264 -0.0056
  824POPE   D2A12240   3.978  16.582   6.957  0.1437 -0.0599 -0.1654
  824POPE   C3A12241   3.869  16.637   7.390 -0.0736 -0.2158 -0.1108
  824POPE   C4A12242   3.912  16.351   7.640  0.3422 -0.0511 -0.1875
  824POPE   C1B12243   4.142  16.803   6.524 -0.0584  0.0627 -0.1038
  824POPE   C2B12244   4.343  16.897   6.863 -0.1149  0.3583 -0.0133
  824POPE   C3B12245   4.329  16.794   7.238 -0.1683  0.0851  0.2623
  824POPE   C4B12246   4.377  16.585   7.640 -0.1440  0.0913  0.0264
  825POPE   NH312247  11.591   4.210   5.618 -0.1131 -0.0847 -0.0278
  825POPE   PO412248  11.540   4.624   5.833 -0.2543  0.2175 -0.3493
  825POPE   GL112249  11.200   4.735   6.100 -0.0030  0.5277 -0.2551
  825POPE   GL212250  10.993   4.984   6.029 -0.0397 -0.3316 -0.0113
  825POPE   C1A12251  10.987   4.714   6.554 -0.0731 -0.3955 -0.1286
  825POPE   D2A12252  10.666   4.976   6.803  0.1763  0.2049  0.1221
  825POPE   C3A12253  10.467   4.726   7.126  0.2956 -0.1077 -0.0010
  825POPE   C4A12254  10.667   4.538   7.518  0.0604 -0.0155  0.1437
  825POPE   C1B12255  10.894   5.266   6.469  0.2231 -0.1842 -0.1112
  825POPE   C2B12256  10.989   5.349   6.817 -0.2026 -0.1578 -0.3899
  825POPE   C3B12257  11.085   5.254   7.260 -0.1433 -0.1422 -0.0603
  825POPE   C4B12258  11.360   5.247   7.662 -0.1652 -0.2136 -0.1069
  826POPE   NH312259   3.120  16.286   5.397  0.2075  0.0936 -0.1016
  826POPE   PO412260   2.794  16.048   5.584  0.0906  0.2008  0.0060
  826POPE   GL112261   2.691  16.226   5.907  0.0710  0.0575 -0.3488
  826POPE   GL212262   2.947  16.523   5.934 -0.0858 -0.3204  0.0756
  826POPE   C1A12263   2.801  16.288   6.388 -0.0617  0.0761  0.2953
  826POPE   D2A12264   2.769  16.385   6.752  0.1653 -0.0395  0.1039
  826POPE   C3A12265   3.084  16.412   6.985  0.0060  0.1511 -0.0167
  826POPE   C4A12266   3.551  16.347   7.163 -0.0103  0.2113 -0.1194
  826POPE   C1B12267   2.846  16.821   6.264  0.1988  0.0161  0.0069
  826POPE   C2B12268   2.896  16.836   6.774 -0.0730 -0.0705  0.0304
  826POPE   C3B12269   3.007  16.917   7.149 -0.1250 -0.0120 -0.2217
  826POPE   C4B12270   3.307  16.712   7.372 -0.2953 -0.3104  0.1121
  827POPE   NH312271  18.011  17.643   5.709  0.1919 -0.0580  0.0563
  827POPE   PO412272  18.377  17.311   5.722 -0.0266  0.2138  0.2477
  827POPE   GL112273  18.197  17.375   6.200 -0.0104  0.0668  0.4277
  827POPE   GL212274  18.184  17.719   6.186 -0.0303 -0.0003 -0.1157
  827POPE   C1A12275  18.005  17.436   6.688  0.2065  0.2841  0.1540
  827POPE   D2A12276  17.659  17.649   6.858 -0.4724 -0.0773 -0.2042
  827POPE   C3A12277  17.333  17.505   7.118  0.0730  0.1761 -0.1222
  827POPE   C4A12278  16.893  17.585   7.105  0.0449  0.4467 -0.2214
  827POPE   C1B12279  17.880  17.941   6.482  0.0899 -0.3904 -0.5778
  827POPE   C2B12280  18.069  17.905   6.931 -0.4040 -0.1628 -0.0798
  827POPE   C3B12281  18.109  17.654   7.225  0.1477 -0.3984 -0.1041
  827POPE   C4B12282  18.156  17.330   7.584  0.1203 -0.1337  0.3200
  828POPE   NH312283   5.608  18.228   5.755 -0.4288  0.0203  0.0664
  828POPE   PO412284   5.385  18.548   5.432 -0.2260  0.2332 -0.0549
  828POPE   GL112285   5.151  18.490   5.801 -0.2929  0.0714  0.1085
  828POPE   GL212286   4.811  18.312   5.954 -0.0274  0.1584 -0.2516
  828POPE   C1A12287   5.012  18.602   6.262  0.0702  0.0531  0.0021
  828POPE   D2A12288   5.131  18.798   6.534 -0.0393 -0.1397 -0.1225
  828POPE   C3A12289   5.158  18.706   6.911  0.1565 -0.1715  0.2792
  828POPE   C4A12290   5.431  18.393   7.052 -0.1315  0.1941 -0.0179
  828POPE   C1B12291   4.740  18.148   6.320 -0.1486  0.0229  0.0399
  828POPE   C2B12292   4.583  17.898   6.659 -0.0884 -0.2234  0.4486
  828POPE   C3B12293   4.483  17.924   6.991 -0.0692  0.0180  0.1659
  828POPE   C4B12294   4.576  18.103   7.440  0.3013 -0.1387  0.0951
  829POPE   NH312295  11.191   2.284   6.075  0.1689  0.1960  0.2481
  829POPE   PO412296  11.189   2.767   5.903 -0.2488  0.2923  0.2266
  829POPE   GL112297  10.984   2.889   6.233  0.2420 -0.0546 -0.0609
  829POPE   GL212298  10.583   2.967   6.206 -0.0045 -0.0318  0.0781
  829POPE   C1A12299  10.865   2.894   6.739 -0.1435 -0.1066 -0.0300
  829POPE   D2A12300  10.620   3.035   7.143  0.3013  0.1115 -0.2156
  829POPE   C3A12301  10.396   3.125   7.467 -0.0919  0.1124  0.0005
  829POPE   C4A12302  10.173   3.310   7.691 -0.0356 -0.0966  0.1634
  829POPE   C1B12303  10.374   2.910   6.657 -0.0444  0.2814  0.1154
  829POPE   C2B12304  10.086   3.138   6.912 -0.0282 -0.0670 -0.2009
  829POPE   C3B12305   9.863   3.019   7.349 -0.0224  0.0196  0.1414
  829POPE   C4B12306   9.631   3.108   7.752 -0.1288  0.0699  0.2591
  830POPE   NH312307  18.164  16.924   5.430  0.0414  0.1136  0.0912
  830POPE   PO412308  17.856  17.168   5.550 -0.0371 -0.2065 -0.0122
  830POPE   GL112309  17.853  17.203   5.918  0.1280  0.2420 -0.1898
  830POPE   GL212310  17.711  17.449   6.088 -0.0262 -0.2093  0.1809
  830POPE   C1A12311  17.932  16.981   6.328 -0.2899 -0.1633 -0.1967
  830POPE   D2A12312  17.546  16.755   6.498  0.0995 -0.0941  0.0205
  830POPE   C3A12313  17.412  16.591   6.921  0.1387 -0.0369 -0.2337
  830POPE   C4A12314  17.101  16.377   7.186 -0.0550 -0.1890 -0.1124
  830POPE   C1B12315  17.522  17.312   6.482 -0.0452 -0.4108  0.0707
  830POPE   C2B12316  17.627  17.151   6.791  0.0985  0.4131  0.4510
  830POPE   C3B12317  17.601  17.077   7.202  0.3138 -0.0499  0.0825
  830POPE   C4B12318  17.731  17.084   7.491  0.0998 -0.1272  0.4265
  831YOPE   NH312319   0.539  15.814   5.754 -0.0365  0.1854  0.2257
  831YOPE   PO412320   0.210  16.160   5.659 -0.2655  0.0794 -0.0091
  831YOPE   GL112321   0.260  16.126   6.114 -0.0016 -0.1342 -0.1129
  831YOPE   GL212322   0.152  16.395   6.311  0.0825  0.0337 -0.0166
  831YOPE   C1A12323   0.391  15.961   6.455 -0.3815 -0.0063  0.2082
  831YOPE   D2A12324   0.741  16.083   6.812 -0.1998  0.0628 -0.3817
  831YOPE   C3A12325   0.913  15.898   7.114  0.2183  0.1686 -0.2880
  831YOPE   C4A12326   1.047  15.785   7.476  0.0552 -0.1183 -0.1125
  831YOPE   C1B12327  -0.173  16.624   6.130  0.0616  0.3158 -0.2798
  831YOPE   C2B12328  -0.377  17.010   6.321  0.1930 -0.0026  0.2580
  831YOPE   D3B12329  -0.634  17.004   6.690  0.1365  0.1985 -0.0092
  831YOPE   C4B12330  -0.990  16.745   6.866 -0.1195 -0.1587 -0.2271
  832YOPE   NH312331  10.178  17.513   6.096  0.0688 -0.0670  0.2826
  832YOPE   PO412332   9.930  17.210   5.970  0.0353 -0.2675 -0.3212
  832YOPE   GL112333   9.705  17.334   6.292 -0.0066  0.0114 -0.1083
  832YOPE   GL212334   9.852  17.492   6.510  0.0862 -0.1292 -0.2411
  832YOPE   C1A12335   9.493  17.032   6.540 -0.2360  0.0133  0.1368
  832YOPE   D2A12336   9.257  16.640   6.768  0.2204 -0.0892 -0.0026
  832YOPE   C3A12337   9.076  16.585   7.129  0.0488 -0.2529  0.1883
  832YOPE   C4A12338   8.873  16.250   7.330 -0.1780 -0.1793  0.1120
  832YOPE   C1B12339   9.721  17.366   6.813 -0.0640  0.0893  0.0051
  832YOPE   C2B12340   9.637  17.592   7.182  0.4747 -0.0956 -0.0307
  832YOPE   D3B12341   9.537  17.962   7.494 -0.1742  0.4090  0.1812
  832YOPE   C4B12342   9.602  17.944   7.880 -0.0750 -0.0611 -0.1027
  833YOPE   NH312343   0.609   3.307   5.357  0.0999 -0.1623 -0.2121
  833YOPE   PO412344   0.700   2.830   5.494  0.3653  0.0759  0.1414
  833YOPE   GL112345   0.899   2.841   5.963 -0.3081 -0.6856 -0.1217
  833YOPE   GL212346   1.108   2.633   5.968 -0.2462 -0.0875 -0.1661
  833YOPE   C1A12347   0.755   2.702   6.373  0.1798  0.0731 -0.3350
  833YOPE   D2A12348   0.475   2.756   6.662  0.4988 -0.1792  0.1795
  833YOPE   C3A12349   0.416   2.408   7.054 -0.4169  0.2234  0.0921
  833YOPE   C4A12350   0.116   2.305   7.436 -0.0531 -0.0096 -0.2225
  833YOPE   C1B12351   1.421   2.864   5.934 -0.3770 -0.4002  0.2745
  833YOPE   C2B12352   1.792   3.002   6.027  0.2264  0.1582 -0.3740
  833YOPE   D3B12353   2.250   3.149   6.160  0.1226 -0.2158 -0.0345
  833YOPE   C4B12354   2.696   2.925   6.237  0.2764 -0.2944 -0.0944
  834YOPE   NH312355  11.628   7.864   5.780  0.0420  0.3626 -0.0869
  834YOPE   PO412356  11.889   8.221   5.718  0.2544  0.0788 -0.0455
  834YOPE   GL112357  11.526   8.387   5.868  0.1820  0.0939  0.3246
  834YOPE   GL212358  11.179   8.206   5.880 -0.0134 -0.1442 -0.4337
  834YOPE   C1A12359  11.365   8.661   6.071 -0.2652 -0.3690 -0.2841
  834YOPE   D2A12360  11.076   8.967   6.251  0.4023 -0.2237 -0.1312
  834YOPE   C3A12361  10.751   9.006   6.539 -0.1675 -0.1190  0.0751
  834YOPE   C4A12362  10.313   9.129   6.555 -0.2772  0.1888  0.0513
  834YOPE   C1B12363  11.065   8.344   6.308  0.1027  0.1748 -0.0395
  834YOPE   C2B12364  10.947   8.603   6.661 -0.0971  0.0430 -0.0678
  834YOPE   D3B12365  11.036   8.927   6.960 -0.0698  0.2359  0.0175
  834YOPE   C4B12366  10.952   9.366   7.178 -0.3176 -0.2194  0.1188
  835YOPE   NH312367   1.949   5.592   5.349  0.1893 -0.0701 -0.0176
  835YOPE   PO412368   2.216   5.315   5.318  0.0655  0.1518  0.0494
  835YOPE   GL112369   2.389   5.549   5.649 -0.0193  0.1017 -0.0996
  835YOPE   GL212370   2.675   5.648   5.765  0.2269 -0.1570 -0.1054
  835YOPE   C1A12371   2.307   5.519   6.100 -0.0470  0.0725  0.1730
  835YOPE   D2A12372   2.415   5.617   6.419 -0.1034 -0.1762  0.2192
  835YOPE   C3A12373   2.823   5.493   6.612  0.1464  0.3095 -0.1009
  835YOPE   C4A12374   3.139   5.757   6.743 -0.1784 -0.0739  0.1652
  835YOPE   C1B12375   2.809   5.623   6.128  0.0096 -0.1558 -0.1200
  835YOPE   C2B12376   2.829   6.008   6.503  0.3213  0.2275  0.2610
  835YOPE   D3B12377   2.658   5.895   6.840 -0.0209  0.1572  0.2777
  835YOPE   C4B12378   2.536   6.114   7.294 -0.0375  0.1285 -0.0286
  836YOPE   NH312379  15.289   8.672   5.300 -0.3095  0.1166  0.2729
  836YOPE   PO412380  15.655   8.433   5.475 -0.0892  0.2265  0.2840
  836YOPE   GL112381  15.497   8.174   5.779  0.3574 -0.1431  0.0038
  836YOPE   GL212382  15.317   7.904   5.802  0.4227 -0.0149 -0.1298
  836YOPE   C1A12383  15.073   8.182   6.107 -0.1434  0.1177 -0.1618
  836YOPE   D2A12384  15.044   8.255   6.560  0.1322  0.0056 -0.1883
  836YOPE   C3A12385  15.396   8.193   6.808  0.1597 -0.4087  0.0082
  836YOPE   C4A12386  15.892   8.062   6.739 -0.1712 -0.3753 -0.0529
  836YOPE   C1B12387  15.431   7.805   6.175 -0.0776 -0.1083 -0.4715
  836YOPE   C2B12388  15.507   7.807   6.564  0.0607 -0.0491  0.2288
  836YOPE   D3B12389  15.479   7.705   7.086  0.1589  0.0418  0.2018
  836YOPE   C4B12390  15.525   7.326   7.316 -0.0282  0.4322 -0.0185
  837YOPE   NH312391  14.471   6.090   5.466 -0.3880  0.1315  0.1990
  837YOPE   PO412392  14.886   6.240   5.510 -0.0250 -0.1270 -0.0698
  837YOPE   GL112393  14.698   6.386   5.871  0.0025  0.0964  0.0299
  837YOPE   GL212394  14.623   6.728   5.849  0.2227  0.3373 -0.0124
  837YOPE   C1A12395  14.490   6.209   6.317 -0.0993  0.1951 -0.1147
  837YOPE   D2A12396  14.356   6.038   6.743 -0.0669 -0.3305 -0.0481
  837YOPE   C3A12397  14.255   5.560   6.803  0.1959  0.0436 -0.0414
  837YOPE   C4A12398  14.364   5.159   6.889 -0.0218  0.0906  0.0250
  837YOPE   C1B12399  14.454   6.700   6.203 -0.4795 -0.0072  0.0143
  837YOPE   C2B12400  14.259   6.737   6.623  0.1480  0.1871  0.0673
  837YOPE   D3B12401  14.302   6.882   7.003 -0.1338 -0.1679  0.1274
  837YOPE   C4B12402  14.283   7.049   7.380  0.0454 -0.2933 -0.0343
  838YOPE   NH312403  10.771  15.016   5.863 -0.2016 -0.1256  0.0052
  838YOPE   PO412404  11.218  15.215   5.770  0.0372  0.0391  0.1596
  838YOPE   GL112405  11.052  15.370   6.183  0.1585 -0.1927 -0.2015
  838YOPE   GL212406  10.671  15.296   6.336  0.1040  0.1944  0.1892
  838YOPE   C1A12407  11.045  15.434   6.600 -0.1792 -0.0541 -0.2682
  838YOPE   D2A12408  11.189  15.553   7.063  0.0705  0.1809 -0.2101
  838YOPE   C3A12409  10.857  15.703   7.262 -0.0384 -0.0005 -0.1541
  838YOPE   C4A12410  10.451  15.636   7.530 -0.2928  0.1760 -0.1045
  838YOPE   C1B12411  10.458  15.068   6.683 -0.0680 -0.0400 -0.2307
  838YOPE   C2B12412  10.440  14.823   7.067  0.0960 -0.2393  0.1860
  838YOPE   D3B12413  10.345  14.471   7.422  0.1781  0.0761 -0.0714
  838YOPE   C4B12414  10.587  14.402   7.812  0.1217  0.1052 -0.2172
  839YOPE   NH312415   3.910  16.246   5.841 -0.3047  0.0404 -0.0231
  839YOPE   PO412416   3.684  15.917   5.536  0.5608 -0.0071  0.1717
  839YOPE   GL112417   3.580  15.776   5.898 -0.0963 -0.2210 -0.0099
  839YOPE   GL212418   3.304  15.570   6.004 -0.0641  0.1182 -0.0285
  839YOPE   C1A12419   3.517  15.924   6.349 -0.0510 -0.1712  0.2012
  839YOPE   D2A12420   3.532  15.959   6.751 -0.0974 -0.1954 -0.1254
  839YOPE   C3A12421   3.241  15.948   6.961 -0.0750 -0.1667  0.1159
  839YOPE   C4A12422   3.091  16.113   7.438 -0.1217  0.2172  0.5028
  839YOPE   C1B12423   3.540  15.379   6.335  0.3261 -0.2106 -0.3271
  839YOPE   C2B12424   3.451  15.476   6.903  0.1157 -0.1229 -0.0998
  839YOPE   D3B12425   3.583  15.686   7.239  0.2897  0.2501 -0.3965
  839YOPE   C4B12426   3.568  15.976   7.514  0.1972  0.0086  0.0168
  840YOPE   NH312427  17.626  13.726   5.893  0.0826  0.1325  0.1551
  840YOPE   PO412428  17.717  13.437   5.483 -0.0130 -0.1167 -0.1805
  840YOPE   GL112429  17.924  13.129   5.817  0.1364  0.1726 -0.2161
  840YOPE   GL212430  17.921  13.364   6.071 -0.0104 -0.0200  0.0031
  840YOPE   C1A12431  18.144  12.776   6.042  0.0318  0.0655 -0.2041
  840YOPE   D2A12432  18.146  12.790   6.529 -0.1741  0.0676  0.2493
  840YOPE   C3A12433  17.874  12.726   6.812  0.2761  0.1325 -0.0098
  840YOPE   C4A12434  17.405  12.751   6.928 -0.0991  0.0245 -0.2082
  840YOPE   C1B12435  18.178  13.256   6.320  0.1678  0.0262  0.0665
  840YOPE   C2B12436  18.282  13.156   6.805  0.1014 -0.0022 -0.0694
  840YOPE   D3B12437  18.325  12.757   7.046  0.2486  0.0702  0.4094
  840YOPE   C4B12438  18.665  12.554   7.205  0.0612  0.0400 -0.1592
  841YOPE   NH312439   1.282  10.930   4.967  0.1173  0.2074 -0.1154
  841YOPE   PO412440   0.986  10.700   5.130  0.1103 -0.0464  0.1297
  841YOPE   GL112441   0.898  10.828   5.468  0.1459  0.2116 -0.1210
  841YOPE   GL212442   1.052  10.815   5.732 -0.0226 -0.0096 -0.0104
  841YOPE   C1A12443   0.665  11.119   5.746  0.0630 -0.2973  0.0684
  841YOPE   D2A12444   0.592  11.492   5.979  0.2295  0.0329 -0.2870
  841YOPE   C3A12445   0.491  11.527   6.396  0.0435 -0.2918  0.1188
  841YOPE   C4A12446   0.782  11.366   6.667 -0.4692  0.0964 -0.2226
  841YOPE   C1B12447   0.963  10.700   6.106 -0.0028 -0.4469  0.0370
  841YOPE   C2B12448   0.936  10.749   6.513 -0.1535  0.0472 -0.2079
  841YOPE   D3B12449   0.905  10.842   6.917 -0.1615  0.0261  0.0342
  841YOPE   C4B12450   0.553  10.992   7.224  0.2109 -0.2447  0.1447
  842YOPE   NH312451  15.936  14.499   6.023 -0.1213 -0.1269  0.2660
  842YOPE   PO412452  16.351  14.462   6.083 -0.0172 -0.0484  0.0293
  842YOPE   GL112453  16.145  14.322   6.430  0.0823 -0.0701 -0.0230
  842YOPE   GL212454  15.833  14.472   6.482  0.0931  0.1074  0.0003
  842YOPE   C1A12455  16.039  14.184   6.888 -0.1177 -0.1834  0.0764
  842YOPE   D2A12456  16.016  14.050   7.327  0.1104  0.1628 -0.2481
  842YOPE   C3A12457  15.960  13.680   7.437  0.1464 -0.1320 -0.0392
  842YOPE   C4A12458  15.509  13.642   7.522  0.4688 -0.2365  0.0897
  842YOPE   C1B12459  16.303  14.627   6.715  0.0845  0.1503  0.0789
  842YOPE   C2B12460  16.397  14.424   7.140  0.1532  0.0071  0.1991
  842YOPE   D3B12461  16.544  14.518   7.557 -0.2868 -0.3463  0.2005
  842YOPE   C4B12462  16.493  14.477   7.965 -0.0512  0.3863 -0.0227
  843YOPE   NH312463  13.294   0.511   5.992  0.2519  0.2436 -0.3551
  843YOPE   PO412464  13.467   0.155   5.997 -0.2618 -0.0484 -0.1048
  843YOPE   GL112465  13.474   0.105   6.389 -0.0781  0.0890  0.0049
  843YOPE   GL212466  13.577   0.398   6.445  0.0174  0.2908 -0.0702
  843YOPE   C1A12467  13.587  -0.170   6.854  0.1055  0.1016 -0.1901
  843YOPE   D2A12468  13.867  -0.377   7.076 -0.3102 -0.1579  0.0102
  843YOPE   C3A12469  14.205  -0.286   7.381  0.0533 -0.0053 -0.0388
  843YOPE   C4A12470  14.530  -0.222   7.776 -0.1266 -0.3257 -0.0775
  843YOPE   C1B12471  13.679   0.463   6.854  0.0872  0.3620 -0.1374
  843YOPE   C2B12472  13.657   0.557   7.323  0.2593  0.0165  0.0594
  843YOPE   D3B12473  13.962   0.423   7.679 -0.0939 -0.1609  0.3532
  843YOPE   C4B12474  14.151   0.072   7.945 -0.2334  0.0010  0.1890
  844YOPE   NH312475  11.169   5.512   5.456 -0.1218 -0.0714  0.5530
  844YOPE   PO412476  10.892   5.365   5.664  0.2331 -0.0612  0.2088
  844YOPE   GL112477  10.707   5.488   6.054 -0.2973 -0.4494  0.0959
  844YOPE   GL212478  10.461   5.672   6.113  0.0306 -0.0456 -0.0734
  844YOPE   C1A12479  10.908   5.794   6.283 -0.0125 -0.1286 -0.0983
  844YOPE   D2A12480  10.997   5.879   6.665 -0.0638  0.1344  0.3036
  844YOPE   C3A12481  10.681   6.054   6.831  0.2207  0.3539  0.3320
  844YOPE   C4A12482  10.453   5.973   7.156 -0.1564 -0.1576  0.2499
  844YOPE   C1B12483  10.473   5.696   6.541 -0.0714  0.0628 -0.0126
  844YOPE   C2B12484  10.547   5.468   6.946  0.2047  0.0839  0.2901
  844YOPE   D3B12485  10.401   5.235   7.289 -0.3066 -0.2434  0.1395
  844YOPE   C4B12486  10.370   5.264   7.744 -0.1550 -0.3522 -0.2364
  845YOPE   NH312487   8.377  11.621   5.552  0.1895  0.0781 -0.1297
  845YOPE   PO412488   8.670  11.373   5.633  0.0907 -0.0191 -0.0660
  845YOPE   GL112489   8.951  11.372   6.002  0.0623 -0.2769 -0.1291
  845YOPE   GL212490   9.350  11.241   6.105 -0.3358  0.1247 -0.0817
  845YOPE   C1A12491   8.989  11.641   6.421  0.0136  0.1722  0.0256
  845YOPE   D2A12492   9.187  11.435   6.739 -0.3925 -0.1910 -0.0059
  845YOPE   C3A12493   9.043  11.447   7.124  0.1756 -0.2251 -0.1208
  845YOPE   C4A12494   9.257  11.472   7.524  0.0272 -0.0354 -0.1298
  845YOPE   C1B12495   9.572  11.268   6.412 -0.2511 -0.2652 -0.0992
  845YOPE   C2B12496   9.943  11.238   6.678 -0.1860  0.1182 -0.2106
  845YOPE   D3B12497  10.055  11.397   7.097 -0.0079 -0.4151  0.0502
  845YOPE   C4B12498  10.178  11.340   7.487  0.0742  0.1009 -0.0562
  846YOPE   NH312499  15.055   5.781   5.669 -0.1625  0.0715 -0.1392
  846YOPE   PO412500  15.321   6.144   5.727 -0.0958  0.1012 -0.1562
  846YOPE   GL112501  15.140   6.150   6.169  0.3367  0.3496 -0.1094
  846YOPE   GL212502  15.425   6.180   6.344 -0.3715 -0.1579  0.2076
  846YOPE   C1A12503  14.954   6.013   6.598  0.2138 -0.0756  0.2233
  846YOPE   D2A12504  14.778   6.078   7.107 -0.0445  0.3106  0.0790
  846YOPE   C3A12505  14.302   5.954   7.217  0.0614  0.3449  0.0690
  846YOPE   C4A12506  14.068   6.248   7.585  0.0575  0.2939 -0.1862
  846YOPE   C1B12507  15.559   6.120   6.801  0.0367 -0.0387 -0.2834
  846YOPE   C2B12508  15.701   5.973   7.196 -0.0776  0.1221  0.1113
  846YOPE   D3B12509  15.858   5.984   7.465  0.1445 -0.1760  0.3922
  846YOPE   C4B12510  16.232   5.993   7.647  0.0638  0.1196 -0.0230
  847YOPE   NH312511   4.572  10.415   4.770  0.2703 -0.3673  0.0423
  847YOPE   PO412512   4.689  10.165   5.134 -0.2331 -0.0484 -0.1739
  847YOPE   GL112513   4.480  10.250   5.542  0.1730  0.1577 -0.0777
  847YOPE   GL212514   4.301   9.960   5.722 -0.1417  0.2445 -0.0338
  847YOPE   C1A12515   4.727  10.291   5.995  0.0134 -0.1026  0.1235
  847YOPE   D2A12516   5.069  10.097   6.129 -0.3389  0.1495  0.1513
  847YOPE   C3A12517   5.513  10.082   5.946  0.2395  0.0536 -0.2478
  847YOPE   C4A12518   5.852   9.923   5.789  0.3072  0.4026 -0.0875
  847YOPE   C1B12519   4.559   9.846   6.027  0.0430  0.0198 -0.1977
  847YOPE   C2B12520   4.686   9.847   6.521 -0.0329  0.2369  0.2682
  847YOPE   D3B12521   4.750  10.159   6.821 -0.2536  0.0135  0.0637
  847YOPE   C4B12522   4.802  10.259   7.305  0.0833  0.1108  0.1821
  848YOPE   NH312523  17.812  15.625   5.250  0.2086  0.4127  0.2807
  848YOPE   PO412524  17.503  15.890   5.472 -0.0547 -0.2023 -0.2888
  848YOPE   GL112525  17.680  15.919   5.845 -0.1554  0.2349 -0.0580
  848YOPE   GL212526  17.323  15.788   6.107  0.0290 -0.0788 -0.3689
  848YOPE   C1A12527  17.925  15.935   6.153  0.3125 -0.0144 -0.3612
  848YOPE   D2A12528  18.283  15.847   6.507  0.1396  0.2737  0.1374
  848YOPE   C3A12529  18.396  15.870   6.935 -0.0882  0.1605 -0.0050
  848YOPE   C4A12530  18.686  16.031   7.176  0.0996 -0.5398 -0.0775
  848YOPE   C1B12531  17.490  15.922   6.502  0.0337  0.1457 -0.0250
  848YOPE   C2B12532  17.496  16.022   6.962  0.0541 -0.2537  0.0811
  848YOPE   D3B12533  17.668  16.261   7.209  0.0508 -0.1822 -0.1908
  848YOPE   C4B12534  17.821  16.589   7.377 -0.2986 -0.0826 -0.0308
  849YOPE   NH312535   1.073  13.281   5.333  0.0646  0.2005 -0.2703
  849YOPE   PO412536   0.984  12.800   5.330  0.2590 -0.2553 -0.2542
  849YOPE   GL112537   1.002  12.786   5.728 -0.2197  0.0887 -0.0116
  849YOPE   GL212538   1.296  13.050   5.755 -0.1163  0.0888  0.0647
  849YOPE   C1A12539   0.749  12.705   6.103  0.1053 -0.0875  0.0608
  849YOPE   D2A12540   0.480  12.502   6.391  0.2228  0.0883  0.0460
  849YOPE   C3A12541   0.675  12.497   6.736 -0.2662  0.0286 -0.4533
  849YOPE   C4A12542   0.681  12.485   7.233 -0.1142 -0.1936 -0.0712
  849YOPE   C1B12543   1.451  13.396   5.958 -0.2583 -0.2018  0.1040
  849YOPE   C2B12544   1.804  13.473   6.209 -0.1258 -0.3174 -0.1586
  849YOPE   D3B12545   1.682  13.820   6.459  0.3336  0.0152  0.1502
  849YOPE   C4B12546   1.768  14.069   6.868  0.1723  0.1354  0.1220
  850YOPE   NH312547  10.240  14.323   6.133  0.2605 -0.0593 -0.3854
  850YOPE   PO412548   9.868  14.146   6.377  0.0845  0.1428  0.2793
  850YOPE   GL112549   9.970  13.768   6.629  0.1585 -0.1486 -0.3205
  850YOPE   GL212550   9.621  13.786   6.626  0.1734  0.1154  0.1157
  850YOPE   C1A12551   9.794  13.721   7.136 -0.1364 -0.3158 -0.1118
  850YOPE   D2A12552   9.559  14.123   7.379  0.2026  0.2762 -0.0952
  850YOPE   C3A12553   9.730  14.513   7.586  0.2396  0.0673  0.3921
  850YOPE   C4A12554  10.088  14.439   7.880 -0.0399 -0.0905  0.0373
  850YOPE   C1B12555   9.457  14.059   6.867  0.1079  0.0563  0.0527
  850YOPE   C2B12556   9.075  13.921   7.150  0.0738  0.1576  0.2572
  850YOPE   D3B12557   8.958  13.886   7.513 -0.1398  0.1560 -0.2713
  850YOPE   C4B12558   9.180  13.977   7.829  0.3835 -0.4036 -0.3532
  851YOPE   NH312559  10.631   0.402   5.725  0.0101 -0.0214  0.1592
  851YOPE   PO412560  10.535   0.732   6.010 -0.0360 -0.0043  0.2127
  851YOPE   GL112561  10.783   0.567   6.255  0.3262 -0.1466  0.0772
  851YOPE   GL212562  10.957   0.339   6.133 -0.0137 -0.1353 -0.2816
  851YOPE   C1A12563  10.882   0.853   6.632  0.1650 -0.0126  0.0724
  851YOPE   D2A12564  10.778   1.151   6.908  0.3113  0.0568  0.1611
  851YOPE   C3A12565  11.187   1.409   6.912 -0.0233 -0.2088 -0.0017
  851YOPE   C4A12566  11.512   1.847   6.878  0.1650 -0.0403 -0.1313
  851YOPE   C1B12567  10.885   0.327   6.648 -0.0562  0.0657 -0.1694
  851YOPE   C2B12568  10.911   0.534   7.057  0.2193  0.1026  0.1127
  851YOPE   D3B12569  10.950   0.578   7.481 -0.0865 -0.3376 -0.1768
  851YOPE   C4B12570  11.410   0.571   7.636  0.0575 -0.0692  0.0128
  852YOPE   NH312571  18.037   1.776   5.748 -0.0961  0.0455  0.1789
  852YOPE   PO412572  18.187   1.408   5.811  0.1874 -0.0148  0.4135
  852YOPE   GL112573  18.469   1.485   6.145 -0.1123  0.0905 -0.0669
  852YOPE   GL212574  18.299   1.757   6.182 -0.5310 -0.1599  0.1061
  852YOPE   C1A12575  18.492   1.672   6.633  0.0505 -0.1322 -0.0530
  852YOPE   D2A12576  18.545   1.589   6.996  0.0787  0.2969  0.1299
  852YOPE   C3A12577  18.360   1.546   7.313  0.4253  0.1129 -0.1460
  852YOPE   C4A12578  18.332   1.636   7.666  0.0672 -0.2238  0.0713
  852YOPE   C1B12579  18.075   1.982   6.583  0.1578  0.1151 -0.1110
  852YOPE   C2B12580  18.009   1.789   6.921  0.0394 -0.0074  0.1059
  852YOPE   D3B12581  18.101   1.337   6.892 -0.0351  0.4059 -0.1896
  852YOPE   C4B12582  17.978   0.962   6.742  0.1532 -0.1682 -0.2913
  853YOPE   NH312583   0.874  16.950   6.103  0.1275  0.1151 -0.1330
  853YOPE   PO412584   0.559  17.070   5.846 -0.1732 -0.2988 -0.1651
  853YOPE   GL112585   0.365  16.927   6.229 -0.2157 -0.1501  0.0217
  853YOPE   GL212586   0.099  17.001   6.372 -0.0563 -0.4411  0.1923
  853YOPE   C1A12587   0.463  16.828   6.684 -0.2491  0.1012  0.1104
  853YOPE   D2A12588   0.444  16.907   7.059 -0.0350 -0.0564  0.2680
  853YOPE   C3A12589   0.472  16.531   7.200  0.2163  0.3022  0.1019
  853YOPE   C4A12590   0.424  16.113   7.210  0.0339  0.3018  0.0147
  853YOPE   C1B12591  -0.051  16.732   6.633  0.2655  0.4544 -0.2993
  853YOPE   C2B12592  -0.237  16.822   7.015  0.1756 -0.0028  0.0108
  853YOPE   D3B12593  -0.007  16.953   7.270 -0.1139  0.0140 -0.2766
  853YOPE   C4B12594   0.109  16.680   7.666 -0.2029  0.1578 -0.2220
  854YOPE   NH312595   8.773   3.232   5.655 -0.2396  0.0801  0.2546
  854YOPE   PO412596   9.207   3.455   5.716  0.3083  0.0120  0.0921
  854YOPE   GL112597   9.190   3.229   6.155 -0.5375 -0.3678  0.2682
  854YOPE   GL212598   8.951   3.011   6.130  0.3859 -0.0414  0.3718
  854YOPE   C1A12599   9.213   3.292   6.592  0.2071 -0.1269  0.0409
  854YOPE   D2A12600   9.224   3.612   6.843 -0.1140  0.2292  0.1629
  854YOPE   C3A12601   9.248   3.832   7.161  0.2534 -0.2416 -0.3641
  854YOPE   C4A12602   9.132   3.873   7.571 -0.0910  0.3185 -0.0358
  854YOPE   C1B12603   9.013   2.869   6.475  0.2670 -0.0592 -0.1621
  854YOPE   C2B12604   9.121   2.916   6.925 -0.1009  0.3048  0.1100
  854YOPE   D3B12605   8.953   2.824   7.285 -0.0727 -0.2844  0.0358
  854YOPE   C4B12606   9.149   2.843   7.702  0.1631  0.1543  0.0641
  855YOPE   NH312607   7.717   9.686   5.756  0.3026  0.3136 -0.2490
  855YOPE   PO412608   7.951  10.122   5.879 -0.1411 -0.1571  0.0440
  855YOPE   GL112609   7.774   9.997   6.271  0.2659  0.1221 -0.4239
  855YOPE   GL212610   7.807  10.214   6.538  0.0042  0.3614  0.0170
  855YOPE   C1A12611   7.263   9.865   6.441 -0.0812 -0.0030 -0.1172
  855YOPE   D2A12612   7.006   9.553   6.695 -0.1599 -0.1348  0.3833
  855YOPE   C3A12613   6.592   9.536   6.671  0.1572  0.1701  0.1429
  855YOPE   C4A12614   6.201   9.304   6.583 -0.0555 -0.2159  0.0122
  855YOPE   C1B12615   7.664   9.918   6.745  0.1063 -0.0793 -0.1183
  855YOPE   C2B12616   7.311   9.923   6.985  0.1139 -0.1170  0.0250
  855YOPE   D3B12617   7.032   9.690   7.272  0.0760  0.1348 -0.2109
  855YOPE   C4B12618   6.997   9.673   7.641  0.0073 -0.5332 -0.2615
  856YOPE   NH312619   3.735   3.319   5.287 -0.0251 -0.1393  0.0294
  856YOPE   PO412620   4.172   3.239   5.409  0.0596  0.2500 -0.1085
  856YOPE   GL112621   4.000   3.260   5.726 -0.0517  0.2686  0.0873
  856YOPE   GL212622   4.140   2.961   5.875 -0.0816 -0.1363  0.0834
  856YOPE   C1A12623   3.834   3.377   6.203 -0.0805  0.0480  0.1084
  856YOPE   D2A12624   3.644   3.220   6.596 -0.5284  0.2936 -0.2850
  856YOPE   C3A12625   3.595   3.444   6.962 -0.1795 -0.1143  0.1025
  856YOPE   C4A12626   3.696   3.538   7.385  0.0346  0.0059  0.3946
  856YOPE   C1B12627   4.204   2.985   6.346  0.0021  0.0819  0.3149
  856YOPE   C2B12628   4.336   2.865   6.756  0.0097  0.1597 -0.0629
  856YOPE   D3B12629   4.268   2.835   7.170 -0.1989  0.0550 -0.0037
  856YOPE   C4B12630   3.957   2.920   7.485 -0.0378  0.1263 -0.1427
  857YOPE   NH312631  13.165   2.516   5.805 -0.1460  0.0010  0.0933
  857YOPE   PO412632  13.470   2.699   5.748 -0.3343  0.0918 -0.1925
  857YOPE   GL112633  13.475   2.581   6.222  0.0565 -0.2041  0.0237
  857YOPE   GL212634  13.319   2.371   6.285 -0.0101 -0.2287 -0.1539
  857YOPE   C1A12635  13.499   2.621   6.697 -0.0671 -0.1417 -0.1249
  857YOPE   D2A12636  13.429   2.363   7.017  0.0587 -0.0954 -0.3266
  857YOPE   C3A12637  13.589   2.355   7.334 -0.0221 -0.0906 -0.4252
  857YOPE   C4A12638  13.949   2.358   7.579  0.1670  0.0335 -0.1962
  857YOPE   C1B12639  13.554   2.133   6.572 -0.0442 -0.1700 -0.1411
  857YOPE   C2B12640  13.802   2.095   6.858 -0.3952  0.1878 -0.3513
  857YOPE   D3B12641  13.960   1.886   7.227 -0.1125 -0.2439  0.0059
  857YOPE   C4B12642  13.793   1.618   7.578  0.2413  0.0071 -0.1889
  858YOPE   NH312643  17.166   1.679   5.751 -0.3468  0.0378  0.1168
  858YOPE   PO412644  17.639   1.487   5.709  0.2451  0.0652  0.0156
  858YOPE   GL112645  17.697   1.645   6.077 -0.0439 -0.2823 -0.0487
  858YOPE   GL212646  17.499   1.790   6.240  0.1573 -0.3653 -0.0793
  858YOPE   C1A12647  17.958   1.449   6.413  0.1513 -0.0800  0.0118
  858YOPE   D2A12648  18.099   1.068   6.239  0.1127 -0.1905  0.0580
  858YOPE   C3A12649  17.825   0.691   6.352 -0.0749  0.2022 -0.1207
  858YOPE   C4A12650  17.587   0.380   6.505 -0.2312  0.0790  0.0741
  858YOPE   C1B12651  17.604   1.763   6.581  0.1093  0.0991 -0.1322
  858YOPE   C2B12652  17.552   1.814   7.057 -0.6112  0.2363 -0.0853
  858YOPE   D3B12653  17.413   1.701   7.514  0.1777 -0.0402 -0.0790
  858YOPE   C4B12654  17.581   2.032   7.840  0.0856 -0.3398  0.3338
  859YOPE   NH312655  16.567   0.448   5.639  0.3371 -0.1875  0.1128
  859YOPE   PO412656  16.304   0.236   5.850 -0.4298  0.0468 -0.5241
  859YOPE   GL112657  16.033   0.329   6.187  0.1324 -0.1936 -0.1472
  859YOPE   GL212658  15.803   0.600   6.062 -0.1184 -0.0480  0.0449
  859YOPE   C1A12659  16.021   0.254   6.624 -0.1061 -0.4284  0.1430
  859YOPE   D2A12660  15.728   0.058   6.858 -0.3823  0.0069  0.0671
  859YOPE   C3A12661  15.732  -0.395   6.791  0.0700 -0.3020 -0.1742
  859YOPE   C4A12662  15.703  -0.652   7.252  0.0483  0.2550  0.0349
  859YOPE   C1B12663  15.767   0.691   6.560  0.0750  0.0681  0.1481
  859YOPE   C2B12664  15.761   0.560   7.043 -0.1076 -0.1682  0.1271
  859YOPE   D3B12665  15.637   0.382   7.434  0.1947  0.2195 -0.2168
  859YOPE   C4B12666  15.274   0.451   7.889 -0.1024 -0.1251  0.0676
  860YOPE   NH312667   3.094  10.164   5.376 -0.4156  0.1268 -0.2177
  860YOPE   PO412668   3.443  10.397   5.569  0.2112 -0.2647  0.2665
  860YOPE   GL112669   3.469  10.503   6.068  0.0565  0.0378 -0.2006
  860YOPE   GL212670   3.484  10.842   6.045  0.2171 -0.0911  0.1087
  860YOPE   C1A12671   3.257  10.384   6.513  0.1134 -0.2888  0.0282
  860YOPE   D2A12672   3.308  10.568   6.960 -0.2642  0.1236 -0.0742
  860YOPE   C3A12673   3.091  10.957   7.151  0.1455  0.1260  0.2272
  860YOPE   C4A12674   2.803  11.024   7.358  0.0148  0.0294  0.0556
  860YOPE   C1B12675   3.499  10.813   6.441 -0.0510  0.1746 -0.1542
  860YOPE   C2B12676   3.771  10.776   6.734 -0.0078  0.1725  0.2642
  860YOPE   D3B12677   3.930  10.598   7.115  0.1125  0.1540 -0.2351
  860YOPE   C4B12678   4.253  10.519   7.367  0.0517  0.5665 -0.1617
  861YOPE   NH312679  12.080  11.908   5.807  0.0405  0.1685 -0.1249
  861YOPE   PO412680  12.092  11.505   5.886 -0.6527  0.0161 -0.0481
  861YOPE   GL112681  12.197  11.460   6.263 -0.4524  0.1303  0.1389
  861YOPE   GL212682  12.239  11.164   6.370  0.1110  0.0344  0.4397
  861YOPE   C1A12683  12.089  11.743   6.620 -0.2219 -0.0148  0.0828
  861YOPE   D2A12684  12.055  12.033   7.019 -0.6184 -0.1104 -0.1159
  861YOPE   C3A12685  12.229  11.887   7.349  0.2158  0.2525  0.0161
  861YOPE   C4A12686  12.076  11.693   7.691 -0.0247  0.0572  0.0372
  861YOPE   C1B12687  12.268  11.281   6.800  0.1581 -0.2936 -0.1112
  861YOPE   C2B12688  12.594  11.176   7.143  0.1161 -0.1724 -0.2677
  861YOPE   D3B12689  12.872  11.195   7.605 -0.2817 -0.2755 -0.2076
  861YOPE   C4B12690  12.945  11.159   8.056  0.0088 -0.0736 -0.1428
  862YOPE   NH312691  18.345   6.920   5.300  0.0516 -0.1145 -0.0483
  862YOPE   PO412692  18.447   7.393   5.331  0.0020 -0.2878 -0.0222
  862YOPE   GL112693  18.357   7.363   5.705 -0.0645  0.0587 -0.2023
  862YOPE   GL212694  18.539   7.045   5.749 -0.0499 -0.0464  0.0320
  862YOPE   C1A12695  18.271   7.217   6.180  0.1777  0.0694 -0.0059
  862YOPE   D2A12696  18.418   7.191   6.576 -0.0648  0.0505  0.0394
  862YOPE   C3A12697  18.394   7.286   7.021 -0.2387  0.2972 -0.3799
  862YOPE   C4A12698  18.572   7.738   7.216 -0.1349  0.0415 -0.1751
  862YOPE   C1B12699  18.421   6.770   6.097  0.1564 -0.2207  0.0730
  862YOPE   C2B12700  18.695   6.600   6.369 -0.0126 -0.1389 -0.3030
  862YOPE   D3B12701  18.767   6.401   6.703  0.0765  0.4375 -0.0810
  862YOPE   C4B12702  18.563   6.345   7.099  0.0115  0.0103  0.3706
  863YOPE   NH312703   1.241  17.907   5.340  0.1676  0.1225  0.1822
  863YOPE   PO412704   0.925  17.947   5.686 -0.0647 -0.0039 -0.1058
  863YOPE   GL112705   0.856  18.020   6.114  0.0174  0.2950 -0.1768
  863YOPE   GL212706   0.475  18.222   5.958 -0.1680  0.0017  0.1922
  863YOPE   C1A12707   0.922  17.864   6.571  0.1174  0.2332  0.1723
  863YOPE   D2A12708   0.969  17.628   6.889  0.1096  0.1688 -0.2243
  863YOPE   C3A12709   1.225  17.741   7.152 -0.2481 -0.0771  0.1718
  863YOPE   C4A12710   1.515  17.794   7.476  0.1393 -0.3037 -0.2806
  863YOPE   C1B12711   0.416  18.277   6.429  0.0191 -0.1249 -0.1518
  863YOPE   C2B12712   0.312  18.362   6.876  0.0470 -0.1123  0.0094
  863YOPE   D3B12713   0.378  18.267   7.343  0.1178 -0.3368  0.2420
  863YOPE   C4B12714   0.482  18.531   7.697 -0.2153 -0.2184  0.1558
  864YOPE   NH312715   9.889   1.736   5.693 -0.2842  0.0992  0.0707
  864YOPE   PO412716   9.631   2.051   5.697 -0.2458  0.1020 -0.0692
  864YOPE   GL112717   9.757   1.860   6.149 -0.0617  0.3160  0.0240
  864YOPE   GL212718   9.499   1.806   6.289 -0.2884 -0.1524 -0.2430
  864YOPE   C1A12719   9.974   1.905   6.486  0.0756  0.2147  0.0208
  864YOPE   D2A12720  10.064   1.808   6.874  0.0098  0.3769  0.0231
  864YOPE   C3A12721   9.974   1.618   7.091  0.0364  0.3120  0.0002
  864YOPE   C4A12722   9.816   1.489   7.491 -0.2175  0.3631 -0.1519
  864YOPE   C1B12723   9.593   1.635   6.677 -0.0555  0.1053 -0.0384
  864YOPE   C2B12724   9.553   1.340   6.953 -0.0223 -0.2431 -0.1556
  864YOPE   D3B12725   9.366   1.327   7.297 -0.0060  0.2107  0.3746
  864YOPE   C4B12726   9.158   1.179   7.811  0.0138  0.3187  0.2400
  865YOPE   NH312727   3.198   3.448   5.295 -0.1785  0.0223  0.1112
  865YOPE   PO412728   2.706   3.502   5.212 -0.2749 -0.1056  0.1057
  865YOPE   GL112729   2.810   3.518   5.613  0.1735 -0.1256  0.0199
  865YOPE   GL212730   3.010   3.390   5.794 -0.0588  0.2219  0.2123
  865YOPE   C1A12731   2.693   3.918   5.856 -0.2561 -0.2479  0.0428
  865YOPE   D2A12732   2.946   4.268   5.935  0.2858 -0.1810  0.1621
  865YOPE   C3A12733   3.024   4.332   6.358  0.1024  0.1980  0.1190
  865YOPE   C4A12734   3.216   4.258   6.766 -0.1920 -0.1155  0.1876
  865YOPE   C1B12735   2.726   3.491   6.117 -0.1181  0.2355  0.0012
  865YOPE   C2B12736   2.634   3.500   6.544  0.1909  0.1116  0.0328
  865YOPE   D3B12737   2.307   3.664   6.863 -0.1440 -0.1653  0.1287
  865YOPE   C4B12738   2.212   3.963   7.231 -0.0614  0.0978  0.2109
  866YOPE   NH312739  15.984   8.720   5.657 -0.2221 -0.0448  0.1286
  866YOPE   PO412740  15.963   9.131   5.672 -0.0992 -0.1258 -0.0668
  866YOPE   GL112741  16.016   8.986   6.070  0.0791 -0.2621 -0.0849
  866YOPE   GL212742  16.391   9.133   6.053  0.0461 -0.1034  0.0459
  866YOPE   C1A12743  16.180   8.691   6.440  0.1680 -0.1875  0.1842
  866YOPE   D2A12744  16.061   8.752   6.874  0.0368 -0.2747  0.0352
  866YOPE   C3A12745  16.079   9.187   7.077 -0.0206 -0.0985 -0.1912
  866YOPE   C4A12746  16.191   9.589   7.101 -0.0094 -0.1770  0.1886
  866YOPE   C1B12747  16.410   9.205   6.510  0.0465  0.3170  0.2281
  866YOPE   C2B12748  16.490   9.307   6.848 -0.1042 -0.1259 -0.2551
  866YOPE   D3B12749  16.812   9.466   7.093 -0.3540 -0.2646  0.3335
  866YOPE   C4B12750  16.634   9.879   7.391 -0.1511 -0.0820 -0.1788
  867YOPE   NH312751  10.629   7.427   5.727 -0.0424 -0.0946  0.1653
  867YOPE   PO412752  11.006   7.216   5.562 -0.0318 -0.0278  0.1465
  867YOPE   GL112753  11.121   7.215   5.993 -0.5272  0.1653 -0.0508
  867YOPE   GL212754  11.386   7.024   6.111 -0.0079  0.2821  0.1695
  867YOPE   C1A12755  11.168   7.487   6.302  0.1058 -0.0273  0.0133
  867YOPE   D2A12756  10.845   7.478   6.574  0.3208 -0.0915 -0.1845
  867YOPE   C3A12757  10.827   7.700   6.968  0.5762  0.1486 -0.0447
  867YOPE   C4A12758  10.535   7.641   7.325 -0.0386 -0.0164 -0.2343
  867YOPE   C1B12759  11.381   6.879   6.490  0.2630 -0.2112 -0.4114
  867YOPE   C2B12760  11.523   6.873   6.902  0.0781  0.0728  0.0173
  867YOPE   D3B12761  11.473   6.635   7.278 -0.1741  0.1246 -0.0942
  867YOPE   C4B12762  11.300   6.318   7.576 -0.1557  0.2179  0.2215
  868YOPE   NH312763  10.100  16.769   6.051  0.2459  0.1532 -0.1363
  868YOPE   PO412764  10.422  17.028   6.147  0.0259  0.0836 -0.2411
  868YOPE   GL112765  10.210  17.141   6.526  0.1511  0.1722  0.0981
  868YOPE   GL212766   9.982  16.983   6.518  0.2541 -0.1356  0.1715
  868YOPE   C1A12767  10.269  17.285   6.856 -0.3536  0.4172  0.0897
  868YOPE   D2A12768  10.381  17.357   7.324 -0.0412 -0.1071  0.0319
  868YOPE   C3A12769  10.401  17.188   7.690  0.0285 -0.0538  0.0205
  868YOPE   C4A12770  10.135  16.980   8.057 -0.2348 -0.0606 -0.2338
  868YOPE   C1B12771   9.976  16.959   7.047  0.2426  0.0981  0.3357
  868YOPE   C2B12772  10.026  16.768   7.417 -0.1588  0.1525 -0.0834
  868YOPE   D3B12773   9.975  16.448   7.645 -0.2174  0.1680 -0.1201
  868YOPE   C4B12774   9.918  16.068   7.801 -0.4070  0.2983 -0.2776
  869YOPE   NH312775  16.971   6.358   5.330 -0.4189 -0.2499 -0.0707
  869YOPE   PO412776  16.688   6.063   5.077 -0.1770  0.2248  0.0525
  869YOPE   GL112777  16.536   6.152   5.485 -0.0829  0.4311  0.0038
  869YOPE   GL212778  16.215   5.969   5.456  0.1570 -0.0169  0.0839
  869YOPE   C1A12779  16.692   6.091   5.810  0.0853  0.0656 -0.0379
  869YOPE   D2A12780  17.111   6.166   5.938  0.2548 -0.0716 -0.1467
  869YOPE   C3A12781  17.163   6.352   6.295  0.2988  0.0763 -0.0598
  869YOPE   C4A12782  17.029   6.369   6.698 -0.2249 -0.1350 -0.0113
  869YOPE   C1B12783  16.264   5.799   5.855 -0.3494 -0.3117 -0.0951
  869YOPE   C2B12784  16.506   5.837   6.297  0.2153 -0.2242 -0.0726
  869YOPE   D3B12785  16.861   5.963   6.441  0.1965 -0.0140  0.0389
  869YOPE   C4B12786  17.039   5.707   6.760  0.1412 -0.0757 -0.0042
  870YOPE   NH312787   6.167  12.359   5.197 -0.0807  0.0530  0.0284
  870YOPE   PO412788   5.684  12.471   5.276  0.0965 -0.0388 -0.0908
  870YOPE   GL112789   5.872  12.252   5.648  0.2170  0.2768  0.1566
  870YOPE   GL212790   5.727  11.965   5.860 -0.1462 -0.0842  0.0246
  870YOPE   C1A12791   6.077  12.594   5.919  0.0630  0.1381 -0.1256
  870YOPE   D2A12792   6.446  12.776   6.046 -0.1660  0.0803 -0.2831
  870YOPE   C3A12793   6.775  12.561   6.004 -0.0226  0.0914 -0.0559
  870YOPE   C4A12794   6.871  12.038   6.072  0.0378  0.1393 -0.3475
  870YOPE   C1B12795   5.508  11.909   6.300  0.0537 -0.0332 -0.1774
  870YOPE   C2B12796   5.366  11.618   6.560  0.3223 -0.3846 -0.0258
  870YOPE   D3B12797   5.043  11.494   6.859  0.2175  0.1772  0.2840
  870YOPE   C4B12798   4.813  11.166   7.132  0.1514  0.1223  0.3958
  871YOPE   NH312799   8.957  13.135   6.162  0.0915  0.0988  0.1419
  871YOPE   PO412800   9.433  13.191   6.104  0.1291 -0.1149  0.1424
  871YOPE   GL112801   9.447  13.247   6.486 -0.1999  0.0524  0.2638
  871YOPE   GL212802   9.202  13.130   6.636  0.1974  0.1023  0.0023
  871YOPE   C1A12803   9.466  13.374   6.941  0.0159  0.1393  0.1456
  871YOPE   D2A12804   9.659  13.200   7.335 -0.0423  0.0939  0.0473
  871YOPE   C3A12805   9.573  12.774   7.643  0.0774  0.0197 -0.0971
  871YOPE   C4A12806   9.508  12.646   8.090  0.1369 -0.2139 -0.3056
  871YOPE   C1B12807   9.204  12.993   7.007  0.0448 -0.2702  0.1100
  871YOPE   C2B12808   9.094  12.948   7.415 -0.2556 -0.0635  0.1521
  871YOPE   D3B12809   9.056  12.803   7.881  0.0553  0.0301 -0.2280
  871YOPE   C4B12810   9.078  12.693   8.407  0.3302  0.1862 -0.1830
  872YOPE   NH312811   2.854  12.106   5.700 -0.0077  0.1417  0.2994
  872YOPE   PO412812   3.124  11.730   5.710  0.1669 -0.1750 -0.0948
  872YOPE   GL112813   2.838  11.689   6.071 -0.0523 -0.2913 -0.2600
  872YOPE   GL212814   2.814  11.921   6.258 -0.1366  0.2420  0.3193
  872YOPE   C1A12815   2.860  11.399   6.482 -0.0583 -0.1240  0.2320
  872YOPE   D2A12816   2.668  11.205   6.891  0.0203 -0.6148 -0.0764
  872YOPE   C3A12817   2.562  11.488   7.281 -0.0687 -0.3604 -0.2353
  872YOPE   C4A12818   2.226  11.539   7.632 -0.1250 -0.0328 -0.2156
  872YOPE   C1B12819   3.117  11.855   6.520 -0.3846 -0.2070 -0.2148
  872YOPE   C2B12820   3.299  11.852   6.887 -0.1534 -0.0576  0.1042
  872YOPE   D3B12821   3.470  12.092   7.244 -0.0705 -0.1132 -0.2168
  872YOPE   C4B12822   3.741  12.496   7.249  0.1013 -0.0904  0.3452
  873YOPE   NH312823  12.533  17.349   6.169  0.0280 -0.0577 -0.0327
  873YOPE   PO412824  12.423  17.866   6.342 -0.1357 -0.2955  0.3305
  873YOPE   GL112825  12.674  17.770   6.614 -0.0624  0.1103 -0.1980
  873YOPE   GL212826  12.585  17.514   6.753 -0.3137 -0.1902 -0.0885
  873YOPE   C1A12827  12.739  17.902   7.112  0.1424  0.1249  0.0804
  873YOPE   D2A12828  12.626  17.803   7.517  0.0947  0.0657 -0.1037
  873YOPE   C3A12829  12.449  17.490   7.292 -0.1676 -0.1492  0.1924
  873YOPE   C4A12830  12.125  17.555   6.911  0.1421 -0.1549 -0.0358
  873YOPE   C1B12831  12.848  17.404   7.022  0.1213  0.0486 -0.4199
  873YOPE   C2B12832  12.839  17.277   7.466 -0.1566 -0.2677  0.2682
  873YOPE   D3B12833  12.939  16.921   7.689 -0.2205 -0.0856  0.0451
  873YOPE   C4B12834  13.123  16.586   7.787  0.0193 -0.1449  0.0252
  874YOPE   NH312835   3.605  11.753   5.553  0.1118 -0.1863 -0.1180
  874YOPE   PO412836   3.662  11.356   5.575  0.1148  0.2389 -0.0956
  874YOPE   GL112837   3.376  11.337   5.914 -0.1226 -0.0693 -0.1712
  874YOPE   GL212838   3.098  11.103   5.861  0.1166 -0.1324  0.0948
  874YOPE   C1A12839   3.339  11.232   6.300  0.0262 -0.1597 -0.0715
  874YOPE   D2A12840   3.327  11.214   6.732 -0.1734 -0.0246  0.3393
  874YOPE   C3A12841   3.162  11.426   7.036 -0.0334  0.0450  0.0582
  874YOPE   C4A12842   3.291  11.443   7.490  0.0099 -0.0612  0.0358
  874YOPE   C1B12843   2.998  10.874   6.194  0.0310  0.0100 -0.1648
  874YOPE   C2B12844   2.965  10.898   6.655  0.4529  0.0875 -0.0048
  874YOPE   D3B12845   2.720  10.700   6.966 -0.0922 -0.0205  0.2025
  874YOPE   C4B12846   2.387  10.242   7.141 -0.0901 -0.0908  0.0227
  875YOPE   NH312847   3.423   6.747   5.224 -0.0547  0.1546 -0.3915
  875YOPE   PO412848   3.346   6.319   5.298 -0.0164  0.0092 -0.1435
  875YOPE   GL112849   3.290   6.518   5.666 -0.0212  0.0364 -0.0772
  875YOPE   GL212850   2.973   6.480   5.834  0.0937  0.0003 -0.2007
  875YOPE   C1A12851   3.405   6.535   6.158  0.1431 -0.1387  0.0893
  875YOPE   D2A12852   3.359   6.350   6.495  0.1025 -0.0798  0.1987
  875YOPE   C3A12853   3.580   6.417   6.945 -0.0739 -0.1775 -0.2166
  875YOPE   C4A12854   3.574   6.063   7.242  0.1530  0.4318  0.1751
  875YOPE   C1B12855   2.906   6.449   6.316  0.0752 -0.2135 -0.1606
  875YOPE   C2B12856   2.554   6.501   6.799  0.3036  0.5298  0.0148
  875YOPE   D3B12857   2.713   6.631   7.202 -0.1911  0.0926 -0.0729
  875YOPE   C4B12858   2.865   6.821   7.471  0.0430 -0.0586 -0.2383
  876YOPE   NH312859  11.183   1.443   5.797 -0.0884 -0.2219  0.1395
  876YOPE   PO412860  11.593   1.582   6.145  0.0818 -0.2511 -0.0696
  876YOPE   GL112861  11.826   1.668   6.404 -0.5217 -0.0859  0.3025
  876YOPE   GL212862  12.102   1.730   6.315 -0.0451 -0.0019  0.0664
  876YOPE   C1A12863  11.989   1.782   6.813 -0.2571  0.0989  0.1111
  876YOPE   D2A12864  12.029   1.969   7.191 -0.0066 -0.0542  0.0918
  876YOPE   C3A12865  12.080   2.392   7.301  0.2443 -0.0576 -0.3849
  876YOPE   C4A12866  12.083   2.848   7.383  0.4926  0.1805 -0.1921
  876YOPE   C1B12867  12.187   2.141   6.482  0.1474  0.3182  0.0505
  876YOPE   C2B12868  12.301   2.487   6.821  0.2405  0.1298 -0.2052
  876YOPE   D3B12869  12.496   2.795   7.185 -0.1631  0.1746 -0.1089
  876YOPE   C4B12870  12.468   3.106   7.598 -0.1037  0.0900  0.1176
  877YOPE   NH312871   1.079  14.062   5.315  0.0349  0.2081 -0.0709
  877YOPE   PO412872   0.812  14.451   5.334  0.2798  0.0792  0.1494
  877YOPE   GL112873   0.883  14.345   5.668 -0.0079 -0.4467  0.1828
  877YOPE   GL212874   1.233  14.276   5.779  0.0432 -0.0228 -0.0611
  877YOPE   C1A12875   0.748  14.330   6.099 -0.2503  0.1164 -0.1768
  877YOPE   D2A12876   0.919  14.350   6.532  0.2145  0.1158  0.3784
  877YOPE   C3A12877   0.877  14.156   6.908 -0.3010 -0.1112 -0.1035
  877YOPE   C4A12878   0.710  14.148   7.319  0.1063  0.0206 -0.0275
  877YOPE   C1B12879   1.284  14.439   6.079  0.0569 -0.1471 -0.3537
  877YOPE   C2B12880   1.499  14.389   6.451  0.1966 -0.0575 -0.1814
  877YOPE   D3B12881   1.814  14.633   6.816  0.3814 -0.0761  0.3120
  877YOPE   C4B12882   1.993  14.818   7.179  0.1072 -0.1001  0.2436
  878YOPE   NH312883  14.977  14.848   6.101  0.0086 -0.1321  0.2659
  878YOPE   PO412884  14.758  14.449   6.046 -0.1717 -0.4017  0.0597
  878YOPE   GL112885  14.646  14.354   6.427 -0.1060  0.2005  0.0322
  878YOPE   GL212886  14.854  14.568   6.562 -0.1150 -0.0138  0.1661
  878YOPE   C1A12887  14.202  14.181   6.604  0.4084  0.2190  0.0638
  878YOPE   D2A12888  14.010  13.881   6.785  0.0778  0.0202  0.2180
  878YOPE   C3A12889  14.153  13.680   7.222  0.1692 -0.2075 -0.2092
  878YOPE   C4A12890  14.496  13.693   7.478 -0.0102 -0.1764 -0.1448
  878YOPE   C1B12891  14.710  14.424   6.906 -0.0216  0.3440  0.0759
  878YOPE   C2B12892  14.587  14.558   7.338 -0.3338 -0.0523  0.0990
  878YOPE   D3B12893  14.466  14.567   7.790 -0.0862 -0.2578  0.0816
  878YOPE   C4B12894  14.304  14.831   8.080 -0.1224  0.0423  0.0332
  879YOPE   NH312895   2.534   7.206   5.047 -0.1469 -0.1159 -0.1319
  879YOPE   PO412896   2.134   7.149   5.130  0.1682 -0.0018 -0.0727
  879YOPE   GL112897   1.996   7.067   5.531  0.1130  0.1307  0.1040
  879YOPE   GL212898   2.014   7.479   5.674 -0.3043  0.1879  0.2641
  879YOPE   C1A12899   1.797   7.134   5.952  0.1122 -0.0301  0.0325
  879YOPE   D2A12900   1.668   7.319   6.451 -0.0826 -0.0218  0.0990
  879YOPE   C3A12901   1.747   6.975   6.786  0.2823 -0.2083 -0.0389
  879YOPE   C4A12902   1.640   6.618   7.005 -0.0366 -0.1677 -0.0589
  879YOPE   C1B12903   2.226   7.276   6.058  0.0810  0.0190  0.3742
  879YOPE   C2B12904   2.225   6.933   6.210  0.1629 -0.0288  0.0011
  879YOPE   D3B12905   2.075   6.665   6.566 -0.1730  0.1266  0.0893
  879YOPE   C4B12906   2.130   6.722   7.119  0.1212  0.2404 -0.2018
  880YOPE   NH312907   2.628  18.217   5.696  0.2168  0.0303 -0.1223
  880YOPE   PO412908   2.945  18.059   5.616  0.0269  0.2373 -0.0770
  880YOPE   GL112909   3.316  18.216   5.876 -0.0081  0.1250  0.0252
  880YOPE   GL212910   3.221  18.064   6.168 -0.2042 -0.1879  0.0302
  880YOPE   C1A12911   3.388  18.592   6.255 -0.0965  0.0671  0.3282
  880YOPE   D2A12912   3.538  18.677   6.697 -0.0181  0.3114 -0.1103
  880YOPE   C3A12913   3.251  18.927   6.992 -0.1217  0.1695 -0.0889
  880YOPE   C4A12914   3.275  19.127   7.385  0.0275 -0.0395  0.0025
  880YOPE   C1B12915   3.462  18.156   6.444 -0.0281  0.0849  0.2473
  880YOPE   C2B12916   3.697  18.168   6.823  0.1356  0.3425 -0.1733
  880YOPE   D3B12917   3.773  18.032   7.204  0.2556  0.0179  0.2001
  880YOPE   C4B12918   3.798  18.168   7.551  0.2377 -0.1172 -0.0522
  881YOPE   NH312919   7.094  18.557   5.514  0.1747  0.2028 -0.1644
  881YOPE   PO412920   6.753  18.263   5.644 -0.0037  0.2771  0.2124
  881YOPE   GL112921   6.752  18.130   6.052  0.2033 -0.2809  0.0435
  881YOPE   GL212922   6.596  18.403   6.160  0.1616 -0.0338 -0.2095
  881YOPE   C1A12923   6.731  17.955   6.513  0.0568  0.0928 -0.2256
  881YOPE   D2A12924   6.672  17.979   6.992 -0.0513 -0.0721 -0.3559
  881YOPE   C3A12925   6.392  18.113   7.309  0.1897  0.0605  0.0691
  881YOPE   C4A12926   6.122  18.300   7.640  0.0635 -0.1395  0.0131
  881YOPE   C1B12927   6.535  18.399   6.566 -0.1970  0.1850  0.2289
  881YOPE   C2B12928   6.264  18.413   6.914  0.0409 -0.0395  0.0294
  881YOPE   D3B12929   5.905  18.217   7.090  0.0106  0.0263  0.1743
  881YOPE   C4B12930   5.892  17.873   7.372 -0.1823  0.0117 -0.5289
  882YOPE   NH312931  16.600  14.913   5.931 -0.1614  0.3236 -0.0125
  882YOPE   PO412932  17.022  14.710   5.948  0.0426  0.1820 -0.2143
  882YOPE   GL112933  17.286  14.769   6.286  0.3304 -0.1959 -0.1515
  882YOPE   GL212934  17.244  14.477   6.368  0.0047 -0.0373  0.1091
  882YOPE   C1A12935  17.566  14.866   6.618  0.3197 -0.2083  0.0202
  882YOPE   D2A12936  17.380  14.891   7.032  0.0565 -0.0990  0.1580
  882YOPE   C3A12937  17.703  14.890   7.350  0.1916  0.1117 -0.1901
  882YOPE   C4A12938  17.884  14.663   7.704  0.1202  0.0552  0.0040
  882YOPE   C1B12939  17.193  14.537   6.748  0.0859 -0.2279 -0.1901
  882YOPE   C2B12940  16.897  14.639   6.978 -0.0832  0.2393  0.2363
  882YOPE   D3B12941  16.571  14.861   7.096  0.0574  0.2123  0.1078
  882YOPE   C4B12942  16.137  14.808   7.265  0.2030 -0.0161  0.0483
  883YOPE   NH312943   1.229   3.697   5.501 -0.0327  0.0296  0.2911
  883YOPE   PO412944   1.531   3.287   5.416  0.0147  0.0791 -0.4134
  883YOPE   GL112945   1.714   3.414   5.786 -0.0201 -0.1997  0.0758
  883YOPE   GL212946   1.433   3.597   5.989 -0.2350  0.1387  0.0484
  883YOPE   C1A12947   1.859   3.422   6.213  0.0334 -0.0234  0.1561
  883YOPE   D2A12948   2.089   3.277   6.619 -0.1340 -0.1702 -0.2428
  883YOPE   C3A12949   2.379   2.936   6.672  0.0626  0.1180  0.5514
  883YOPE   C4A12950   2.743   2.769   6.689 -0.0368 -0.3840 -0.1360
  883YOPE   C1B12951   1.356   3.505   6.414 -0.0799 -0.0586 -0.1665
  883YOPE   C2B12952   1.488   3.392   6.838 -0.0324 -0.2675 -0.2732
  883YOPE   D3B12953   1.492   3.433   7.155 -0.2406 -0.0029 -0.0039
  883YOPE   C4B12954   1.817   3.641   7.223 -0.1814 -0.4467 -0.0840
  884YOPE   NH312955   5.489  11.991   5.384 -0.0004 -0.0584 -0.1482
  884YOPE   PO412956   5.189  11.599   5.244 -0.1970  0.1523  0.1446
  884YOPE   GL112957   5.103  11.280   5.644 -0.0584 -0.0425 -0.0441
  884YOPE   GL212958   5.189  10.973   5.679 -0.2437 -0.1956  0.2916
  884YOPE   C1A12959   4.929  11.372   5.997 -0.1151  0.4828 -0.0176
  884YOPE   D2A12960   4.685  11.524   6.392 -0.3601  0.1045  0.1406
  884YOPE   C3A12961   4.395  11.815   6.390 -0.1811 -0.2032  0.0157
  884YOPE   C4A12962   4.086  12.033   6.051 -0.0293 -0.1099  0.1199
  884YOPE   C1B12963   5.251  10.998   6.098  0.0643  0.1680 -0.2041
  884YOPE   C2B12964   5.055  11.003   6.503 -0.3187 -0.0499  0.2026
  884YOPE   D3B12965   4.659  11.031   6.659 -0.2624  0.0045  0.2893
  884YOPE   C4B12966   4.323  11.402   6.781 -0.3236 -0.2968  0.3102
  885YOPE   NH312967   7.932  10.512   5.535  0.2189 -0.1119  0.3169
  885YOPE   PO412968   7.553  10.259   5.547 -0.1757 -0.1416 -0.3062
  885YOPE   GL112969   7.484  10.484   5.869 -0.0729 -0.1182 -0.0784
  885YOPE   GL212970   7.780  10.621   6.018  0.0458 -0.2346 -0.0255
  885YOPE   C1A12971   7.336  10.318   6.270  0.1094 -0.1962 -0.0269
  885YOPE   D2A12972   7.353  10.286   6.691 -0.0300  0.0423  0.0018
  885YOPE   C3A12973   7.154  10.552   6.945 -0.1438 -0.0357 -0.0320
  885YOPE   C4A12974   7.185  10.932   7.201 -0.1036 -0.0311  0.3885
  885YOPE   C1B12975   7.671  10.674   6.474  0.1430 -0.0343  0.1819
  885YOPE   C2B12976   7.693  10.598   6.919  0.1956  0.2308  0.0710
  885YOPE   D3B12977   8.016  10.341   7.090  0.0238 -0.3837 -0.0218
  885YOPE   C4B12978   7.867   9.907   7.236  0.1468  0.0193 -0.0396
  886YOPE   NH312979  10.897  17.165   6.104  0.0270 -0.0911 -0.0020
  886YOPE   PO412980  11.159  16.755   5.923 -0.2434  0.1315  0.0816
  886YOPE   GL112981  11.158  16.773   6.357 -0.0943 -0.1520  0.0596
  886YOPE   GL212982  11.281  16.969   6.506 -0.2963  0.1298  0.2269
  886YOPE   C1A12983  10.834  16.460   6.632  0.0518 -0.0218 -0.0760
  886YOPE   D2A12984  10.863  16.295   7.086 -0.1188 -0.1953 -0.2653
  886YOPE   C3A12985  10.960  16.435   7.513  0.1788  0.2502  0.3877
  886YOPE   C4A12986  11.194  16.739   7.634 -0.2112  0.1682 -0.0327
  886YOPE   C1B12987  11.695  16.725   6.625 -0.0840 -0.1458  0.1986
  886YOPE   C2B12988  11.893  16.581   6.905 -0.1173 -0.0859 -0.1244
  886YOPE   D3B12989  12.154  16.362   7.215  0.1829 -0.1460 -0.0836
  886YOPE   C4B12990  12.010  15.989   7.369 -0.0001  0.1522  0.3492
  887YOPE   NH312991   6.569   1.260   5.448  0.1686 -0.0408  0.2248
  887YOPE   PO412992   6.247   0.939   5.425 -0.1675  0.0911  0.1147
  887YOPE   GL112993   6.203   1.122   5.806 -0.1394 -0.1420  0.2315
  887YOPE   GL212994   6.566   1.022   5.927 -0.2340  0.2548 -0.0732
  887YOPE   C1A12995   5.835   1.234   6.084  0.1594  0.0538  0.1163
  887YOPE   D2A12996   5.543   1.521   6.227  0.0457  0.2510 -0.0884
  887YOPE   C3A12997   5.582   1.811   6.525 -0.2115 -0.2985  0.2976
  887YOPE   C4A12998   5.785   1.757   7.014  0.1717 -0.0108 -0.0417
  887YOPE   C1B12999   6.553   1.204   6.242  0.3866 -0.2096 -0.3096
  887YOPE   C2B13000   6.424   1.344   6.657  0.2824  0.1491 -0.1284
  887YOPE   D3B13001   6.201   1.703   6.798  0.2099 -0.3208  0.0409
  887YOPE   C4B13002   5.995   2.117   6.514 -0.0776  0.2719  0.0001
  888YOPE   NH313003   0.344   8.056   5.268 -0.0697 -0.0374 -0.1919
  888YOPE   PO413004   0.432   7.665   5.292  0.0987 -0.0132 -0.0840
  888YOPE   GL113005   0.492   7.765   5.753 -0.1049  0.0750  0.1780
  888YOPE   GL213006   0.385   8.131   5.848 -0.0381 -0.0548  0.0706
  888YOPE   C1A13007   0.786   7.809   6.053 -0.1087  0.1428 -0.1926
  888YOPE   D2A13008   0.805   7.888   6.531  0.2574 -0.3864  0.0881
  888YOPE   C3A13009   0.817   7.599   6.825 -0.1465 -0.4635  0.2616
  888YOPE   C4A13010   0.607   7.516   7.208  0.0852 -0.1050  0.3414
  888YOPE   C1B13011   0.361   7.891   6.279  0.1282  0.1382 -0.2038
  888YOPE   C2B13012   0.348   7.765   6.713  0.0088  0.4302 -0.0016
  888YOPE   D3B13013   0.208   7.943   7.116  0.1098 -0.1591  0.1771
  888YOPE   C4B13014   0.406   8.132   7.474  0.3661  0.0012  0.2045
  889YOPE   NH313015   5.077  17.115   5.481  0.1560  0.2474  0.0257
  889YOPE   PO413016   5.267  17.523   5.237  0.1310  0.1261 -0.2182
  889YOPE   GL113017   5.292  17.478   5.716 -0.2838  0.0774 -0.0701
  889YOPE   GL213018   5.531  17.602   5.798 -0.0741  0.0213  0.0207
  889YOPE   C1A13019   5.002  17.342   6.048  0.1461 -0.0706 -0.0887
  889YOPE   D2A13020   4.959  17.150   6.420  0.0018 -0.3230 -0.0131
  889YOPE   C3A13021   4.807  16.879   6.632 -0.0387 -0.1109 -0.0843
  889YOPE   C4A13022   5.066  16.502   6.626  0.1008  0.2011  0.1571
  889YOPE   C1B13023   5.877  17.555   6.128 -0.0394  0.4075 -0.0695
  889YOPE   C2B13024   5.912  17.588   6.534  0.2602 -0.1911 -0.2455
  889YOPE   D3B13025   5.914  17.498   6.958  0.0194  0.2318 -0.0082
  889YOPE   C4B13026   5.670  17.428   7.427 -0.0288 -0.2051  0.1919
  890YOPE   NH313027  14.112  16.618   6.026 -0.3680 -0.0217 -0.0663
  890YOPE   PO413028  14.095  16.162   5.888  0.1788 -0.0273  0.0001
  890YOPE   GL113029  13.775  15.906   6.111  0.1693 -0.1092  0.0264
  890YOPE   GL213030  13.413  15.956   6.088  0.1070  0.1863  0.0819
  890YOPE   C1A13031  13.836  15.899   6.560  0.0413  0.3538  0.0399
  890YOPE   D2A13032  14.134  15.693   6.844  0.0106 -0.4255 -0.0099
  890YOPE   C3A13033  14.021  15.647   7.242  0.0169 -0.1638  0.1453
  890YOPE   C4A13034  13.986  15.349   7.446 -0.0159 -0.0104  0.1057
  890YOPE   C1B13035  13.363  15.925   6.508  0.0352  0.3014 -0.2215
  890YOPE   C2B13036  13.604  15.863   6.967 -0.2646 -0.0851  0.1463
  890YOPE   D3B13037  13.540  15.782   7.492 -0.2716  0.0692  0.1917
  890YOPE   C4B13038  13.646  15.663   7.903  0.0160  0.2691  0.1749
  891YOPE   NH313039   8.514   7.448   5.675 -0.0427 -0.0181 -0.0110
  891YOPE   PO413040   8.728   7.762   5.549  0.0912  0.2680 -0.1051
  891YOPE   GL113041   8.757   7.809   6.021 -0.1005  0.0932 -0.4979
  891YOPE   GL213042   8.383   7.747   6.088 -0.1507 -0.3122 -0.0593
  891YOPE   C1A13043   8.691   7.933   6.476  0.2579 -0.1348  0.0903
  891YOPE   D2A13044   8.834   7.709   6.815 -0.1451 -0.2097 -0.4833
  891YOPE   C3A13045   8.782   7.551   7.227  0.2631 -0.0304 -0.1551
  891YOPE   C4A13046   8.948   7.195   7.440 -0.2430  0.2052  0.1433
  891YOPE   C1B13047   8.452   7.506   6.531  0.2227 -0.0568 -0.2341
  891YOPE   C2B13048   8.386   7.446   6.881 -0.0096  0.0668 -0.1343
  891YOPE   D3B13049   8.354   7.309   7.272 -0.3160 -0.3134  0.1295
  891YOPE   C4B13050   8.538   7.480   7.689 -0.0430 -0.1240  0.0832
  892YOPE   NH313051   0.177  18.379   5.573 -0.3189  0.1272  0.0546
  892YOPE   PO413052   0.046  18.066   5.846 -0.0999 -0.1187 -0.0375
  892YOPE   GL113053  -0.143  18.039   6.193  0.2496  0.3477  0.0511
  892YOPE   GL213054  -0.393  18.218   6.188  0.0435 -0.2538  0.2897
  892YOPE   C1A13055  -0.013  17.972   6.639  0.2464 -0.2033 -0.3458
  892YOPE   D2A13056  -0.021  17.917   7.105 -0.0415  0.4529 -0.3391
  892YOPE   C3A13057  -0.397  17.963   7.297  0.1369  0.2730 -0.3045
  892YOPE   C4A13058  -0.673  18.067   7.538  0.0883  0.2029  0.2077
  892YOPE   C1B13059  -0.476  17.971   6.545 -0.0284  0.1493 -0.0895
  892YOPE   C2B13060  -0.429  17.609   6.871 -0.3773 -0.1255  0.0783
  892YOPE   D3B13061  -0.504  17.258   7.092  0.4368 -0.0386 -0.1742
  892YOPE   C4B13062  -0.724  16.931   7.256  0.0933 -0.1053  0.1772
  893YOPE   NH313063  10.433  10.892   5.543  0.0922  0.0430 -0.0181
  893YOPE   PO413064  10.784  10.620   5.600 -0.0883  0.0389  0.2578
  893YOPE   GL113065  10.862  10.827   5.974 -0.0352 -0.2277 -0.1973
  893YOPE   GL213066  11.160  10.689   6.075  0.1830 -0.0917 -0.0778
  893YOPE   C1A13067  10.824  10.968   6.360  0.0333 -0.2237 -0.0523
  893YOPE   D2A13068  10.920  11.166   6.712 -0.1916  0.1051 -0.0073
  893YOPE   C3A13069  11.313  11.168   6.943 -0.0985  0.0280  0.0686
  893YOPE   C4A13070  11.646  10.964   7.174 -0.1109 -0.0856  0.1188
  893YOPE   C1B13071  11.363  10.757   6.441  0.1437 -0.0284  0.5490
  893YOPE   C2B13072  11.358  10.668   6.862 -0.0126 -0.6252  0.2296
  893YOPE   D3B13073  11.299  10.522   7.337 -0.3590  0.2724  0.0744
  893YOPE   C4B13074  11.369  10.880   7.652 -0.0893  0.1923 -0.4019
  894YOPE   NH313075   6.599   8.710   5.738  0.1716  0.0080 -0.0412
  894YOPE   PO413076   7.004   8.912   5.725 -0.0478 -0.2280  0.2168
  894YOPE   GL113077   7.080   8.908   6.097  0.4329  0.0004 -0.0799
  894YOPE   GL213078   6.778   8.827   6.203  0.0894  0.3745 -0.2010
  894YOPE   C1A13079   7.229   9.073   6.509 -0.0087 -0.3072 -0.0949
  894YOPE   D2A13080   7.170   9.146   6.989  0.1664 -0.0449 -0.2896
  894YOPE   C3A13081   7.011   9.025   7.414  0.0764 -0.2136  0.1565
  894YOPE   C4A13082   6.586   8.977   7.624  0.0205  0.3998  0.0822
  894YOPE   C1B13083   6.630   9.082   6.489 -0.2645  0.0733  0.0294
  894YOPE   C2B13084   6.698   9.086   6.843 -0.3389 -0.0428  0.2459
  894YOPE   D3B13085   6.594   9.397   7.218 -0.0948 -0.2428 -0.0018
  894YOPE   C4B13086   6.528   9.824   7.141 -0.1763 -0.0823  0.1164
  895YOPE   NH313087   5.650   1.612   5.664 -0.0536  0.1991  0.2119
  895YOPE   PO413088   5.510   1.976   5.727 -0.1458  0.1410 -0.2486
  895YOPE   GL113089   5.287   2.147   6.086 -0.0528 -0.1321  0.1474
  895YOPE   GL213090   5.036   2.311   5.945 -0.1954 -0.1332  0.2251
  895YOPE   C1A13091   5.152   2.083   6.611 -0.2170 -0.0437  0.1228
  895YOPE   D2A13092   5.275   1.942   6.996  0.0465 -0.1080 -0.2784
  895YOPE   C3A13093   5.331   2.309   7.362 -0.2374  0.1653 -0.0534
  895YOPE   C4A13094   5.306   2.542   7.668  0.1689 -0.1325  0.2449
  895YOPE   C1B13095   5.085   2.553   6.288  0.1423 -0.0943  0.0439
  895YOPE   C2B13096   4.874   2.525   6.626 -0.1899 -0.1275  0.3804
  895YOPE   D3B13097   4.854   2.176   6.955 -0.0871  0.0163 -0.2011
  895YOPE   C4B13098   4.902   2.047   7.347 -0.2199  0.0630 -0.1980
  896YOPE   NH313099   7.929  12.502   5.603 -0.0925  0.1028  0.0721
  896YOPE   PO413100   8.303  12.853   5.459  0.1580 -0.2773  0.0700
  896YOPE   GL113101   8.163  12.870   5.975  0.0298 -0.3209 -0.1075
  896YOPE   GL213102   8.407  12.785   6.173 -0.0423  0.0973 -0.0159
  896YOPE   C1A13103   7.792  13.054   6.128  0.0474 -0.4363 -0.0610
  896YOPE   D2A13104   7.374  12.962   6.300 -0.3190 -0.5193  0.0844
  896YOPE   C3A13105   7.479  12.888   6.743  0.0654  0.1498 -0.0249
  896YOPE   C4A13106   7.781  12.767   7.017 -0.0034  0.2759  0.1575
  896YOPE   C1B13107   8.428  12.648   6.538 -0.0731  0.2298 -0.0314
  896YOPE   C2B13108   8.284  12.589   6.802  0.1116 -0.0270 -0.2432
  896YOPE   D3B13109   8.267  12.588   7.238  0.1093  0.3209 -0.1023
  896YOPE   C4B13110   8.474  12.189   7.449  0.0087 -0.0286  0.1113
  897YOPE   NH313111  13.609   5.681   5.421 -0.0303  0.0278 -0.0956
  897YOPE   PO413112  13.442   6.191   5.308  0.0197 -0.2503 -0.3629
  897YOPE   GL113113  13.563   6.078   5.730  0.2812 -0.2574  0.2048
  897YOPE   GL213114  13.325   6.237   5.843 -0.0916  0.1559  0.1046
  897YOPE   C1A13115  13.662   6.031   6.176 -0.0176  0.0006 -0.0565
  897YOPE   D2A13116  13.411   5.886   6.586  0.1182  0.0371  0.0726
  897YOPE   C3A13117  13.377   6.182   6.969  0.0732  0.0971 -0.0286
  897YOPE   C4A13118  13.353   6.205   7.406 -0.3245  0.1613  0.0061
  897YOPE   C1B13119  13.141   6.046   6.148 -0.2026  0.0704 -0.1516
  897YOPE   C2B13120  13.045   5.688   6.304  0.2328  0.0449  0.0983
  897YOPE   D3B13121  12.824   5.620   6.656  0.0217 -0.1345 -0.1557
  897YOPE   C4B13122  12.755   5.433   7.045 -0.1129 -0.2783 -0.0107
  898YOPE   NH313123   3.805   9.527   5.181  0.3627 -0.0764 -0.1155
  898YOPE   PO413124   3.986   9.701   5.442  0.0863 -0.0048 -0.2736
  898YOPE   GL113125   4.156   9.472   5.780 -0.1655 -0.0096  0.2475
  898YOPE   GL213126   4.562   9.409   5.748 -0.0525  0.2457 -0.2387
  898YOPE   C1A13127   3.938   9.509   6.162 -0.2394  0.0313 -0.0512
  898YOPE   D2A13128   3.845   9.639   6.551  0.0808 -0.4074  0.0325
  898YOPE   C3A13129   4.251   9.830   6.764  0.1686 -0.0612 -0.0420
  898YOPE   C4A13130   4.656   9.769   7.055  0.1192  0.1293  0.3108
  898YOPE   C1B13131   4.889   9.408   6.158  0.3123 -0.1507 -0.1186
  898YOPE   C2B13132   5.224   9.588   6.421  0.2529 -0.4139  0.0028
  898YOPE   D3B13133   5.127   9.551   6.847 -0.1447  0.1216 -0.3049
  898YOPE   C4B13134   5.238   9.781   7.190  0.2277  0.0337 -0.2667
  899YOPE   NH313135   8.742   9.226   5.174 -0.1150  0.1892  0.1314
  899YOPE   PO413136   8.541   9.337   5.622 -0.0614 -0.1163  0.0286
  899YOPE   GL113137   8.473   9.158   5.983  0.1646  0.0713  0.0079
  899YOPE   GL213138   8.462   8.743   6.067 -0.3968 -0.0775  0.0765
  899YOPE   C1A13139   8.487   9.331   6.357  0.2283  0.0271  0.1585
  899YOPE   D2A13140   8.613   9.330   6.731 -0.1678 -0.2870 -0.1002
  899YOPE   C3A13141   8.596   9.256   7.145 -0.0885 -0.1167  0.0035
  899YOPE   C4A13142   8.618   9.052   7.592  0.0949 -0.5013  0.1558
  899YOPE   C1B13143   8.663   8.440   6.349  0.0168 -0.0810  0.0605
  899YOPE   C2B13144   8.651   8.357   6.794 -0.0460  0.2490  0.1444
  899YOPE   D3B13145   8.797   8.071   7.209  0.0822 -0.3008  0.3526
  899YOPE   C4B13146   8.646   7.969   7.551  0.2542 -0.0049  0.0457
  900YOPE   NH313147   5.452   8.218   4.911  0.0043  0.0369 -0.0936
  900YOPE   PO413148   5.891   8.372   5.011  0.0717  0.1339  0.1756
  900YOPE   GL113149   5.698   8.503   5.412 -0.1239 -0.2490  0.0510
  900YOPE   GL213150   5.819   8.396   5.765 -0.0561 -0.1851 -0.4142
  900YOPE   C1A13151   5.416   8.731   5.896 -0.1314  0.0003 -0.2659
  900YOPE   D2A13152   5.227   9.056   6.199 -0.1321 -0.0819  0.0985
  900YOPE   C3A13153   5.133   9.050   6.621 -0.0020  0.0323 -0.1677
  900YOPE   C4A13154   5.056   8.842   6.967  0.3876 -0.0911 -0.0275
  900YOPE   C1B13155   5.782   8.431   6.237  0.1549 -0.0765  0.1036
  900YOPE   C2B13156   5.654   8.757   6.486 -0.0868  0.2108  0.0509
  900YOPE   D3B13157   5.576   8.890   6.904  0.3415 -0.0838  0.1699
  900YOPE   C4B13158   5.345   9.183   7.169  0.0292  0.2178 -0.0927
  901POPC   NC313159  11.469  14.900   5.462  0.1915 -0.1460  0.1586
  901POPC   PO413160  11.844  14.676   5.670  0.2077 -0.0356  0.1864
  901POPC   GL113161  11.891  14.690   6.141  0.0764 -0.1780  0.1786
  901POPC   GL213162  11.977  14.851   6.250 -0.2083 -0.0637  0.0198
  901POPC   C1A13163  11.761  14.794   6.679  0.0929  0.2176 -0.0138
  901POPC   D2A13164  11.551  14.776   7.024  0.0472 -0.0708  0.0403
  901POPC   C3A13165  11.721  15.087   7.334 -0.4684 -0.2127  0.2641
  901POPC   C4A13166  11.776  15.374   7.679  0.0514 -0.1891  0.5172
  901POPC   C1B13167  12.156  14.985   6.571 -0.3404 -0.2156  0.0601
  901POPC   C2B13168  12.218  15.114   6.994 -0.1300  0.1172  0.0095
  901POPC   C3B13169  12.263  15.050   7.418  0.0978  0.1654 -0.4330
  901POPC   C4B13170  12.094  14.825   7.709 -0.0579  0.0416  0.2157
  902POPC   NC313171  16.127   2.789   5.516 -0.2197 -0.2324 -0.3440
  902POPC   PO413172  16.524   2.982   5.588 -0.2535  0.0383  0.0498
  902POPC   GL113173  16.824   2.943   5.903  0.0494 -0.2645  0.0565
  902POPC   GL213174  16.972   2.630   6.015  0.2088  0.1527  0.3992
  902POPC   C1A13175  16.890   3.170   6.272 -0.1497 -0.0519  0.0233
  902POPC   D2A13176  16.931   3.201   6.686 -0.1121  0.2169 -0.1395
  902POPC   C3A13177  16.802   2.813   6.981 -0.3215  0.2619  0.1145
  902POPC   C4A13178  16.891   2.489   7.285  0.0629  0.0606 -0.1238
  902POPC   C1B13179  17.140   2.677   6.444  0.0119  0.0264  0.4363
  902POPC   C2B13180  17.379   3.057   6.813 -0.0541  0.0569 -0.2640
  902POPC   C3B13181  17.231   3.244   7.092  0.0797  0.0560  0.0797
  902POPC   C4B13182  16.747   3.280   7.169 -0.1844  0.0490  0.3843
  903POPC   NC313183   1.332  10.539   5.404 -0.0862 -0.1121  0.1352
  903POPC   PO413184   1.649  10.233   5.275 -0.3273 -0.0550 -0.2207
  903POPC   GL113185   1.886  10.149   5.677  0.1088 -0.0612  0.0308
  903POPC   GL213186   2.214  10.122   5.839 -0.0362 -0.2014  0.0973
  903POPC   C1A13187   1.747   9.959   6.044  0.0453 -0.0324 -0.2531
  903POPC   D2A13188   1.900   9.905   6.420 -0.1275  0.0638  0.2444
  903POPC   C3A13189   1.716   9.672   6.776  0.1663 -0.0328 -0.1858
  903POPC   C4A13190   1.469   9.382   6.955  0.2199 -0.0733 -0.1187
  903POPC   C1B13191   2.432  10.036   6.251 -0.0649 -0.2636  0.1481
  903POPC   C2B13192   2.943   9.935   6.328 -0.0048  0.2867 -0.3078
  903POPC   C3B13193   3.250   9.940   6.641  0.0681  0.4315 -0.0859
  903POPC   C4B13194   3.419   9.659   6.947 -0.3662 -0.0305 -0.0963
  904POPC   NC313195  11.361   6.886   5.584  0.0287 -0.3756  0.0863
  904POPC   PO413196  11.524   7.370   5.730  0.1601 -0.0693  0.0044
  904POPC   GL113197  11.810   7.500   6.082 -0.1708  0.1240  0.2121
  904POPC   GL213198  11.795   7.271   6.175 -0.0703  0.3525  0.0804
  904POPC   C1A13199  11.855   7.643   6.510 -0.0198 -0.1327  0.5298
  904POPC   D2A13200  11.866   7.733   6.937  0.0122  0.1267  0.1079
  904POPC   C3A13201  11.655   7.339   7.175 -0.1426 -0.2114  0.0175
  904POPC   C4A13202  11.903   6.957   7.288 -0.0024 -0.2680  0.1183
  904POPC   C1B13203  11.562   7.283   6.606 -0.0812  0.3338 -0.0645
  904POPC   C2B13204  11.205   7.324   6.932 -0.1061 -0.2663 -0.0950
  904POPC   C3B13205  11.124   7.483   7.348 -0.0864 -0.0275  0.0743
  904POPC   C4B13206  11.215   7.630   7.741 -0.0028  0.0570  0.1750
  905POPC   NC313207  15.831   1.727   5.203 -0.1832  0.1628  0.0069
  905POPC   PO413208  15.915   1.531   5.566  0.0242  0.0460  0.0630
  905POPC   GL113209  15.965   1.757   5.962  0.0276 -0.0031 -0.1838
  905POPC   GL213210  15.912   2.130   6.110  0.0471  0.0710  0.1574
  905POPC   C1A13211  16.106   1.810   6.423 -0.2237 -0.1098 -0.0396
  905POPC   D2A13212  16.298   1.996   6.786  0.3129  0.0331 -0.0343
  905POPC   C3A13213  16.118   2.112   7.205  0.1011  0.4922 -0.1601
  905POPC   C4A13214  15.964   2.390   7.526  0.0977 -0.2509 -0.1736
  905POPC   C1B13215  15.834   2.297   6.542  0.0411  0.2367  0.4472
  905POPC   C2B13216  16.133   2.425   6.757  0.1584 -0.2248 -0.0404
  905POPC   C3B13217  16.167   2.656   7.084  0.0415  0.1934  0.1017
  905POPC   C4B13218  15.884   2.961   7.270  0.2319  0.3894  0.0813
  906POPC   NC313219  12.016   1.321   6.045  0.0611  0.0907  0.5210
  906POPC   PO413220  11.605   1.119   6.025 -0.1568  0.0023 -0.0696
  906POPC   GL113221  11.762   1.057   6.467  0.4707 -0.0550 -0.1889
  906POPC   GL213222  12.064   1.250   6.553  0.1086 -0.0062  0.1891
  906POPC   C1A13223  11.708   1.373   6.871  0.0206  0.0177  0.0899
  906POPC   D2A13224  11.733   1.442   7.215 -0.0421  0.1394 -0.3853
  906POPC   C3A13225  11.324   1.619   7.318 -0.2453 -0.0958  0.2549
  906POPC   C4A13226  11.086   1.478   7.769 -0.1449 -0.0146 -0.0407
  906POPC   C1B13227  12.158   1.166   6.902 -0.0587  0.3544 -0.0079
  906POPC   C2B13228  12.149   1.191   7.378  0.2027  0.3493 -0.3170
  906POPC   C3B13229  12.013   1.149   7.852  0.3456 -0.2019 -0.0932
  906POPC   C4B13230  11.844   1.450   8.071  0.3520  0.0075 -0.1595
  907POPC   NC313231   5.245  15.235   5.437 -0.0494  0.0535 -0.0071
  907POPC   PO413232   5.678  15.428   5.441 -0.1872 -0.1274  0.3838
  907POPC   GL113233   5.902  15.348   5.892  0.1693  0.3292  0.3799
  907POPC   GL213234   6.036  15.010   6.008  0.2222 -0.1939 -0.0798
  907POPC   C1A13235   6.168  15.533   6.202  0.2849 -0.2662  0.0934
  907POPC   D2A13236   6.117  15.614   6.673 -0.1014  0.1473 -0.1588
  907POPC   C3A13237   6.288  15.451   7.092 -0.1698  0.2221 -0.0259
  907POPC   C4A13238   6.345  15.450   7.526  0.2987 -0.2067 -0.0306
  907POPC   C1B13239   6.121  14.964   6.481  0.0367 -0.1845  0.1047
  907POPC   C2B13240   6.143  15.003   6.943  0.0950  0.0761  0.1524
  907POPC   C3B13241   6.057  15.110   7.351  0.1989  0.0920  0.3976
  907POPC   C4B13242   5.917  15.048   7.682  0.0673 -0.0610 -0.2308
  908POPC   NC313243   0.075   7.281   5.151 -0.4449  0.0346 -0.1789
  908POPC   PO413244  -0.011   6.968   5.273 -0.0622  0.1219 -0.0398
  908POPC   GL113245   0.165   6.875   5.602 -0.2208 -0.0349 -0.1309
  908POPC   GL213246   0.286   6.614   5.399  0.0544 -0.0244 -0.0125
  908POPC   C1A13247   0.087   6.885   6.042 -0.0793 -0.0383 -0.0260
  908POPC   D2A13248  -0.011   7.037   6.366  0.1090  0.3092 -0.2982
  908POPC   C3A13249  -0.000   6.917   6.760  0.1475  0.0588  0.0836
  908POPC   C4A13250  -0.295   6.840   7.161 -0.0637  0.2652  0.0445
  908POPC   C1B13251   0.256   6.475   5.852 -0.0218  0.0202  0.1277
  908POPC   C2B13252   0.411   6.429   6.255 -0.2062 -0.0124  0.1125
  908POPC   C3B13253   0.385   6.260   6.654 -0.1283  0.0802  0.0741
  908POPC   C4B13254   0.358   5.916   6.903  0.1770  0.1600  0.0329
  909POPC   NC313255   6.917  10.611   5.034  0.0898  0.3952 -0.3981
  909POPC   PO413256   6.587  10.555   5.277 -0.1328  0.0416 -0.0974
  909POPC   GL113257   6.452  10.800   5.589  0.2586  0.1416 -0.0670
  909POPC   GL213258   6.777  10.895   5.674 -0.0769  0.0731 -0.0950
  909POPC   C1A13259   6.352  10.688   6.022 -0.0759 -0.0281 -0.1122
  909POPC   D2A13260   6.543  10.578   6.381 -0.0608 -0.2836  0.2270
  909POPC   C3A13261   6.722  10.714   6.796 -0.2082 -0.2221 -0.0924
  909POPC   C4A13262   6.735  10.745   7.282 -0.4076  0.2489 -0.4072
  909POPC   C1B13263   6.712  11.089   5.991  0.1274 -0.0942 -0.0279
  909POPC   C2B13264   6.693  11.200   6.489  0.0420 -0.0859  0.1055
  909POPC   C3B13265   6.718  11.162   6.992 -0.1666  0.2837  0.2613
  909POPC   C4B13266   6.443  11.234   7.336  0.0596  0.1240 -0.0528
  910POPC   NC313267  12.275  14.575   5.880 -0.0541 -0.2054 -0.4285
  910POPC   PO413268  12.409  14.213   5.636 -0.0086  0.0077 -0.2050
  910POPC   GL113269  12.581  13.960   6.062 -0.0136 -0.2488 -0.0062
  910POPC   GL213270  12.668  14.182   6.319  0.0466 -0.0857 -0.2125
  910POPC   C1A13271  12.381  13.511   6.205  0.1399 -0.3502 -0.0890
  910POPC   D2A13272  12.271  13.324   6.653  0.0481  0.1714  0.1537
  910POPC   C3A13273  11.796  13.435   6.633  0.0510  0.2855  0.3091
  910POPC   C4A13274  11.379  13.384   6.689 -0.2266 -0.1810 -0.1147
  910POPC   C1B13275  12.361  13.898   6.531  0.0763  0.0985  0.1728
  910POPC   C2B13276  11.952  13.870   6.789  0.1090  0.1865  0.1040
  910POPC   C3B13277  11.469  13.925   6.806 -0.1121  0.1742 -0.1384
  910POPC   C4B13278  11.074  13.994   7.095  0.1737  0.1527 -0.0604
  911POPC   NC313279   9.256  10.267   5.226  0.0093 -0.1214  0.1296
  911POPC   PO413280   9.441   9.848   5.358  0.1362  0.0231  0.2223
  911POPC   GL113281   9.249  10.031   5.687 -0.2223  0.0703  0.1435
  911POPC   GL213282   9.589  10.188   5.835  0.0336  0.0270  0.1451
  911POPC   C1A13283   9.026  10.020   6.045  0.0491 -0.0958 -0.5418
  911POPC   D2A13284   9.024  10.213   6.387  0.3006 -0.1778  0.0650
  911POPC   C3A13285   8.673  10.433   6.688 -0.3139  0.2734  0.1798
  911POPC   C4A13286   8.564  10.276   7.127  0.2399 -0.2252 -0.4119
  911POPC   C1B13287   9.562  10.339   6.253  0.0712 -0.3088  0.2958
  911POPC   C2B13288   9.409  10.479   6.690 -0.1533  0.1459 -0.2851
  911POPC   C3B13289   9.354  10.539   7.062 -0.2347 -0.0630 -0.1965
  911POPC   C4B13290   9.487  10.580   7.519  0.0386 -0.2157 -0.2525
  912POPC   NC313291  14.584   0.723   5.536 -0.0631 -0.1404 -0.0803
  912POPC   PO413292  15.020   0.935   5.684 -0.2048  0.0863 -0.1361
  912POPC   GL113293  15.145   0.779   5.970 -0.0011 -0.2044 -0.2940
  912POPC   GL213294  15.398   0.965   6.035 -0.3780  0.1033 -0.0108
  912POPC   C1A13295  15.231   0.551   6.304 -0.3349 -0.1904  0.2394
  912POPC   D2A13296  15.562   0.247   6.399  0.2077 -0.0030  0.2654
  912POPC   C3A13297  15.748  -0.123   6.243  0.0009 -0.0198  0.1302
  912POPC   C4A13298  15.930  -0.476   6.387 -0.1058  0.0828  0.1945
  912POPC   C1B13299  15.485   1.189   6.412  0.2254 -0.1326  0.0025
  912POPC   C2B13300  15.128   1.417   6.612 -0.0527  0.0509 -0.4265
  912POPC   C3B13301  15.048   1.614   7.025 -0.3189 -0.0996  0.0810
  912POPC   C4B13302  15.237   1.739   7.399 -0.2051 -0.1227 -0.1520
  913POPC   NC313303   6.385   3.784   4.742  0.0072 -0.0028  0.1951
  913POPC   PO413304   6.376   3.661   5.179 -0.0578 -0.1124  0.1771
  913POPC   GL113305   6.461   4.004   5.474 -0.2522  0.3564 -0.1481
  913POPC   GL213306   6.238   4.166   5.711  0.0200  0.0832  0.1923
  913POPC   C1A13307   6.774   4.038   5.819 -0.0795 -0.0941 -0.2570
  913POPC   D2A13308   7.141   4.338   5.772 -0.1744  0.4266 -0.1663
  913POPC   C3A13309   7.414   4.268   6.108 -0.0356  0.0412 -0.1341
  913POPC   C4A13310   7.240   4.143   6.456 -0.1348 -0.3111 -0.0121
  913POPC   C1B13311   6.257   4.025   6.210 -0.0016 -0.2017 -0.1584
  913POPC   C2B13312   6.272   4.040   6.632 -0.0121 -0.1527 -0.2051
  913POPC   C3B13313   6.208   4.344   6.960  0.2931  0.1611  0.0685
  913POPC   C4B13314   6.043   4.526   7.310  0.0950 -0.1361  0.1479
  914POPC   NC313315  12.188  10.292   5.626  0.0393  0.0223 -0.2877
  914POPC   PO413316  12.677  10.344   5.509  0.0237 -0.1064  0.2506
  914POPC   GL113317  12.780  10.617   5.929 -0.1160 -0.1053  0.1236
  914POPC   GL213318  12.646  10.942   6.027 -0.0832 -0.0827  0.0436
  914POPC   C1A13319  12.764  10.486   6.311 -0.2030 -0.1310  0.0108
  914POPC   D2A13320  12.902  10.183   6.584  0.0335  0.0174  0.2916
  914POPC   C3A13321  12.977  10.278   7.037  0.0859 -0.4325 -0.1171
  914POPC   C4A13322  13.349  10.393   7.304  0.2919  0.2103  0.0530
  914POPC   C1B13323  13.071  10.864   6.258  0.0219 -0.0085  0.2175
  914POPC   C2B13324  13.089  10.668   6.703 -0.2606 -0.2017 -0.2299
  914POPC   C3B13325  13.043  11.002   7.012  0.1035  0.1977 -0.1017
  914POPC   C4B13326  13.194  11.235   7.253  0.0723 -0.1773  0.2169
  915POPC   NC313327   6.774   1.977   4.826  0.3654  0.0628 -0.3441
  915POPC   PO413328   6.806   1.637   5.189  0.1476  0.2205  0.4832
  915POPC   GL113329   7.070   1.652   5.587  0.1007  0.2275 -0.1346
  915POPC   GL213330   6.927   1.522   5.751  0.0490  0.0205  0.4484
  915POPC   C1A13331   7.511   1.431   5.817  0.2730  0.1479  0.0810
  915POPC   D2A13332   7.641   1.264   6.257  0.0757  0.1031  0.0372
  915POPC   C3A13333   7.998   1.089   6.176  0.0483 -0.1402 -0.0153
  915POPC   C4A13334   8.403   1.414   6.096  0.2383 -0.0514  0.0884
  915POPC   C1B13335   6.864   1.627   6.231 -0.1277 -0.1064 -0.1035
  915POPC   C2B13336   6.924   1.489   6.612  0.3324  0.1491 -0.0843
  915POPC   C3B13337   7.089   1.611   7.038  0.0282  0.3290  0.0970
  915POPC   C4B13338   7.168   1.582   7.540 -0.0470 -0.0031 -0.0214
  916POPC   NC313339   2.333   0.397   5.618 -0.2562 -0.1397 -0.0379
  916POPC   PO413340   2.665   0.595   5.415  0.1573 -0.2570  0.0212
  916POPC   GL113341   2.713   0.769   5.782  0.0358 -0.0169  0.3026
  916POPC   GL213342   3.083   0.661   5.843 -0.0241  0.1114 -0.0854
  916POPC   C1A13343   2.747   1.060   6.103 -0.0528 -0.0053 -0.0956
  916POPC   D2A13344   2.744   1.418   6.494 -0.1739 -0.2092  0.1131
  916POPC   C3A13345   2.743   1.455   6.888  0.0426 -0.0590  0.0240
  916POPC   C4A13346   2.783   1.374   7.282  0.0952  0.2686 -0.0489
  916POPC   C1B13347   3.069   0.650   6.274  0.0510  0.0894  0.2128
  916POPC   C2B13348   3.070   0.596   6.749 -0.0497  0.0536  0.1403
  916POPC   C3B13349   2.893   0.440   7.136  0.0355  0.2192 -0.0009
  916POPC   C4B13350   2.457   0.232   7.329  0.2892 -0.2665 -0.2503
  917POPC   NC313351  10.555   6.134   5.365  0.3859 -0.1272  0.0463
  917POPC   PO413352  10.473   5.861   5.681  0.2816 -0.0326 -0.0892
  917POPC   GL113353  10.628   6.110   5.977 -0.0591 -0.1702  0.0167
  917POPC   GL213354  10.660   6.356   5.848 -0.0682 -0.1016  0.4100
  917POPC   C1A13355  10.619   6.185   6.329  0.0725 -0.2080  0.2964
  917POPC   D2A13356  10.283   6.272   6.526  0.1254  0.0008  0.0256
  917POPC   C3A13357  10.090   6.287   6.975 -0.1701 -0.0951  0.1103
  917POPC   C4A13358  10.217   6.257   7.470 -0.0750  0.1961  0.2343
  917POPC   C1B13359  10.839   6.697   6.006 -0.0139  0.3108  0.1759
  917POPC   C2B13360  10.877   6.948   6.479 -0.1112 -0.2648 -0.0552
  917POPC   C3B13361  11.022   6.868   6.843 -0.1205 -0.1206 -0.2618
  917POPC   C4B13362  10.977   6.625   7.208  0.3573 -0.1810 -0.1906
  918POPC   NC313363  10.944  16.368   5.601  0.1822  0.1193 -0.3278
  918POPC   PO413364  11.098  15.840   5.687  0.1282  0.0237 -0.0321
  918POPC   GL113365  11.049  15.946   6.119 -0.1438  0.1343 -0.0755
  918POPC   GL213366  10.816  15.856   6.220  0.1012  0.1552  0.0108
  918POPC   C1A13367  11.209  16.271   6.437 -0.0114 -0.0113 -0.1288
  918POPC   D2A13368  11.368  16.406   6.858 -0.1922  0.2557  0.0387
  918POPC   C3A13369  11.590  16.378   7.301 -0.2001  0.0552  0.0663
  918POPC   C4A13370  11.679  16.431   7.667  0.0887 -0.0871 -0.0768
  918POPC   C1B13371  10.551  16.102   6.429 -0.0285 -0.0286 -0.0244
  918POPC   C2B13372  10.450  16.055   6.951 -0.0322 -0.1992  0.1261
  918POPC   C3B13373  10.401  16.223   7.389  0.0278  0.1094  0.0865
  918POPC   C4B13374  10.454  16.197   7.799 -0.0394 -0.0797 -0.0196
  919POPC   NC313375   7.586  11.818   5.236 -0.1269  0.1628 -0.0896
  919POPC   PO413376   7.532  12.147   5.551  0.2809  0.1629 -0.1424
  919POPC   GL113377   7.373  11.906   5.909 -0.0249  0.1957 -0.1743
  919POPC   GL213378   7.444  12.011   6.198  0.0256  0.1844 -0.2324
  919POPC   C1A13379   7.063  11.599   6.094 -0.1609 -0.1840 -0.1905
  919POPC   D2A13380   6.965  11.675   6.508 -0.1856  0.0991  0.3109
  919POPC   C3A13381   7.052  11.428   6.724 -0.0492 -0.1256  0.0276
  919POPC   C4A13382   7.312  11.400   7.034  0.2307  0.2082 -0.2899
  919POPC   C1B13383   7.533  12.212   6.630  0.1016  0.0895  0.0357
  919POPC   C2B13384   7.812  12.307   6.912 -0.0219  0.0746 -0.1360
  919POPC   C3B13385   7.980  12.104   7.277 -0.0851  0.0525  0.3199
  919POPC   C4B13386   7.997  11.793   7.545 -0.0796 -0.1118 -0.0199
  920POPC   NC313387  18.526   0.991   5.770 -0.0161 -0.1412  0.1701
  920POPC   PO413388  18.302   0.690   5.712 -0.2475  0.0995 -0.2594
  920POPC   GL113389  18.188   0.368   6.099  0.1436 -0.1439  0.1717
  920POPC   GL213390  18.527   0.209   6.299  0.1541 -0.0436  0.2512
  920POPC   C1A13391  18.125   0.371   6.561  0.0417 -0.1041 -0.2487
  920POPC   D2A13392  17.939   0.490   7.000 -0.2240 -0.0755  0.0385
  920POPC   C3A13393  17.600   0.307   7.030 -0.1064 -0.0376 -0.0354
  920POPC   C4A13394  17.225   0.210   6.835  0.0888  0.1359  0.1276
  920POPC   C1B13395  18.300  -0.097   6.422 -0.0547 -0.3952 -0.0293
  920POPC   C2B13396  18.198  -0.008   6.889  0.2899 -0.1427 -0.1862
  920POPC   C3B13397  18.452   0.387   7.057 -0.1751 -0.3209  0.0962
  920POPC   C4B13398  18.864   0.454   6.744 -0.2119  0.2854  0.3096
  921POPC   NC313399  11.926  17.621   6.171 -0.2287 -0.1377 -0.0148
  921POPC   PO413400  11.586  17.453   5.924 -0.1981 -0.2930  0.0678
  921POPC   GL113401  11.458  17.468   6.313 -0.0325  0.0893  0.3591
  921POPC   GL213402  11.722  17.309   6.503 -0.3342  0.1393  0.0884
  921POPC   C1A13403  11.547  17.737   6.819 -0.0235  0.1053  0.1128
  921POPC   D2A13404  11.769  17.792   7.153 -0.1946  0.0799 -0.2321
  921POPC   C3A13405  11.620  18.051   7.465 -0.0234  0.4817  0.0505
  921POPC   C4A13406  11.619  18.227   7.899  0.1216 -0.0671  0.2221
  921POPC   C1B13407  11.766  17.201   6.889  0.2490 -0.0371 -0.2600
  921POPC   C2B13408  12.025  17.293   7.305 -0.0392  0.0495 -0.2727
  921POPC   C3B13409  12.008  17.327   7.791  0.1562  0.2939 -0.1076
  921POPC   C4B13410  11.820  17.171   8.197  0.1418 -0.4149  0.4974
  922POPC   NC313411  10.007   6.926   5.065  0.2253  0.1189 -0.0716
  922POPC   PO413412  10.017   7.053   5.556 -0.1758  0.1343 -0.0540
  922POPC   GL113413  10.015   7.124   6.019  0.1570  0.1055  0.1838
  922POPC   GL213414   9.813   6.826   6.235 -0.4100 -0.3000  0.1392
  922POPC   C1A13415   9.872   7.297   6.351 -0.0911  0.2022  0.3183
  922POPC   D2A13416   9.710   7.308   6.779 -0.0733  0.3560 -0.1680
  922POPC   C3A13417   9.886   7.285   7.227  0.1197  0.0468  0.1160
  922POPC   C4A13418  10.264   7.244   7.442 -0.2383 -0.0939  0.0008
  922POPC   C1B13419  10.018   6.916   6.711  0.1214 -0.2614  0.0593
  922POPC   C2B13420  10.250   6.890   7.059  0.1930 -0.2209  0.1341
  922POPC   C3B13421  10.524   6.809   7.405  0.2500  0.0290  0.0643
  922POPC   C4B13422  10.593   6.448   7.702  0.0498 -0.3111  0.0148
  923POPC   NC313423   7.567   7.349   5.109  0.2929  0.0630 -0.1813
  923POPC   PO413424   7.724   7.206   5.495  0.0289 -0.3468 -0.1110
  923POPC   GL113425   7.839   7.159   5.823 -0.1786 -0.3421 -0.1357
  923POPC   GL213426   7.998   7.452   5.859 -0.1974 -0.2217  0.0135
  923POPC   C1A13427   7.740   7.073   6.309 -0.0171  0.2014 -0.3266
  923POPC   D2A13428   7.754   7.014   6.705  0.1920 -0.1952  0.1111
  923POPC   C3A13429   7.688   6.818   6.951  0.0021  0.3724  0.0932
  923POPC   C4A13430   7.917   6.955   7.266 -0.1879 -0.1255 -0.1068
  923POPC   C1B13431   7.990   7.498   6.340 -0.2694 -0.0453 -0.2791
  923POPC   C2B13432   7.845   7.501   6.793 -0.1716 -0.0065  0.2016
  923POPC   C3B13433   7.710   7.468   7.168  0.0108  0.1642 -0.0597
  923POPC   C4B13434   7.624   7.244   7.533  0.1076  0.1605  0.0446
  924POPC   NC313435   8.477   1.623   5.170  0.2577 -0.1848 -0.0441
  924POPC   PO413436   8.107   1.571   5.275 -0.1557 -0.2142  0.1052
  924POPC   GL113437   7.924   1.671   5.718  0.1338 -0.0967  0.2485
  924POPC   GL213438   7.852   1.967   5.825 -0.0140  0.0318  0.0182
  924POPC   C1A13439   7.967   1.554   5.975 -0.1882  0.1279  0.0385
  924POPC   D2A13440   8.055   1.513   6.404 -0.1449 -0.3053  0.1203
  924POPC   C3A13441   8.071   1.766   6.765  0.1939 -0.3573 -0.1233
  924POPC   C4A13442   8.089   1.958   7.223  0.0424 -0.0023  0.1886
  924POPC   C1B13443   7.942   1.966   6.274  0.3074 -0.0146 -0.0385
  924POPC   C2B13444   7.688   1.987   6.578  0.1151 -0.1774 -0.2894
  924POPC   C3B13445   7.584   2.038   7.039 -0.0340  0.3226  0.1631
  924POPC   C4B13446   7.534   1.898   7.479  0.0601 -0.2498  0.1547
  925POPC   NC313447  15.230  17.763   5.492 -0.0579 -0.0575 -0.0594
  925POPC   PO413448  15.205  17.820   5.950  0.2310  0.3008  0.2467
  925POPC   GL113449  15.331  18.066   6.323 -0.0648  0.1126  0.2502
  925POPC   GL213450  15.171  18.213   6.373  0.0507 -0.0286  0.1415
  925POPC   C1A13451  15.532  18.026   6.782  0.0602  0.0520 -0.0590
  925POPC   D2A13452  15.256  18.054   7.130  0.1604  0.1573 -0.1089
  925POPC   C3A13453  15.334  18.130   7.605 -0.2052 -0.2975 -0.0062
  925POPC   C4A13454  15.713  18.202   7.834 -0.1749 -0.0753  0.0207
  925POPC   C1B13455  15.120  17.775   6.623 -0.3422  0.0657 -0.2048
  925POPC   C2B13456  14.893  17.668   6.984  0.1508 -0.1845  0.1258
  925POPC   C3B13457  15.030  17.686   7.382 -0.0780 -0.0238 -0.1002
  925POPC   C4B13458  15.061  17.812   7.841 -0.3172 -0.1827 -0.0526
  926POPC   NC313459   2.948   3.033   5.423  0.0865  0.1249  0.1719
  926POPC   PO413460   3.304   2.972   5.412 -0.3087  0.1765 -0.1434
  926POPC   GL113461   3.169   2.926   5.851  0.1541 -0.3173  0.0564
  926POPC   GL213462   3.435   3.084   5.933 -0.0060 -0.0470 -0.1692
  926POPC   C1A13463   3.250   2.770   6.299 -0.0511 -0.0291  0.1816
  926POPC   D2A13464   3.434   2.710   6.658  0.1192 -0.1024  0.2520
  926POPC   C3A13465   3.424   2.577   7.032 -0.3457 -0.0889  0.0401
  926POPC   C4A13466   3.369   2.115   7.247  0.2622  0.1993 -0.1233
  926POPC   C1B13467   3.167   3.298   6.253 -0.0632 -0.0731 -0.0978
  926POPC   C2B13468   3.022   3.215   6.678  0.0077  0.2190  0.2729
  926POPC   C3B13469   3.095   2.921   7.064  0.0330 -0.0728 -0.0541
  926POPC   C4B13470   3.123   2.765   7.491  0.6838 -0.1641 -0.2089
  927POPC   NC313471  17.455  15.474   5.711  0.0269 -0.4688  0.0606
  927POPC   PO413472  17.195  15.132   5.679 -0.0399  0.1475  0.2875
  927POPC   GL113473  16.995  15.212   6.207  0.2838  0.2101 -0.1293
  927POPC   GL213474  16.863  15.522   6.265 -0.1668 -0.1238  0.4845
  927POPC   C1A13475  16.963  15.090   6.576 -0.3803 -0.0680  0.0783
  927POPC   D2A13476  16.936  15.175   7.047 -0.1455 -0.2186 -0.0073
  927POPC   C3A13477  16.685  15.124   7.465 -0.0780 -0.1873  0.2366
  927POPC   C4A13478  16.632  15.257   7.956  0.0292 -0.0304 -0.2359
  927POPC   C1B13479  16.800  15.530   6.678 -0.1379  0.1624 -0.3305
  927POPC   C2B13480  16.633  15.563   7.143 -0.0893  0.3466 -0.0923
  927POPC   C3B13481  16.805  15.608   7.493 -0.0176  0.3189 -0.1518
  927POPC   C4B13482  16.669  15.792   7.923  0.2610 -0.1210  0.1429
  928POPC   NC313483   0.785   4.913   4.720 -0.1219 -0.1413  0.1317
  928POPC   PO413484   0.571   4.640   5.078  0.2226  0.1988  0.0042
  928POPC   GL113485   0.502   4.511   5.547 -0.0813 -0.0781  0.3525
  928POPC   GL213486   0.698   4.309   5.759  0.1720 -0.0682  0.1743
  928POPC   C1A13487   0.500   4.742   5.948  0.0422 -0.0325 -0.0670
  928POPC   D2A13488   0.354   4.780   6.287  0.1397  0.0387  0.2132
  928POPC   C3A13489   0.210   4.765   6.707  0.2894 -0.0810  0.5160
  928POPC   C4A13490   0.286   4.703   7.182 -0.1192 -0.1654 -0.1426
  928POPC   C1B13491   0.644   4.054   5.996  0.0552  0.1406 -0.0708
  928POPC   C2B13492   0.584   3.919   6.486 -0.0315  0.0920 -0.0032
  928POPC   C3B13493   0.645   3.793   6.943 -0.0098  0.2077  0.2162
  928POPC   C4B13494   0.753   3.590   7.310  0.2957 -0.3525 -0.2256
  929POPC   NC313495   9.912  16.544   5.421 -0.3515 -0.1041 -0.0815
  929POPC   PO413496  10.093  16.256   5.785  0.0213  0.0018 -0.0960
  929POPC   GL113497   9.991  16.255   6.261  0.1989  0.1333  0.0877
  929POPC   GL213498   9.736  16.424   6.258  0.0526 -0.0415  0.0981
  929POPC   C1A13499   9.909  16.016   6.639  0.1406 -0.1206 -0.1438
  929POPC   D2A13500   9.672  15.691   6.613 -0.1746  0.2653  0.2841
  929POPC   C3A13501   9.307  15.644   6.582 -0.1577  0.2997  0.3090
  929POPC   C4A13502   8.998  15.322   6.611 -0.0708  0.3658  0.2458
  929POPC   C1B13503   9.735  16.572   6.635 -0.1784  0.1036 -0.0342
  929POPC   C2B13504   9.974  16.373   7.015  0.3879  0.0164  0.2280
  929POPC   C3B13505   9.940  15.932   7.167  0.1740 -0.0693  0.1425
  929POPC   C4B13506   9.621  15.736   7.193  0.3139 -0.1270  0.1128
  930POPC   NC313507  15.651  12.078   5.713 -0.2953  0.1961  0.3369
  930POPC   PO413508  15.970  12.251   5.898 -0.2359 -0.1526  0.2630
  930POPC   GL113509  16.132  12.507   6.171  0.1521  0.1820 -0.1778
  930POPC   GL213510  16.276  12.788   6.208 -0.0583 -0.1557  0.2184
  930POPC   C1A13511  16.018  12.536   6.525  0.2690  0.1703 -0.0118
  930POPC   D2A13512  16.239  12.738   6.903 -0.0919 -0.1731 -0.4135
  930POPC   C3A13513  15.991  12.508   7.162 -0.0378  0.0948 -0.0600
  930POPC   C4A13514  16.098  12.329   7.623 -0.0489 -0.0091 -0.1229
  930POPC   C1B13515  16.612  12.856   6.526  0.1308  0.2029  0.0010
  930POPC   C2B13516  16.734  12.828   6.950  0.0597  0.2275  0.1156
  930POPC   C3B13517  17.091  12.965   7.234  0.0198 -0.1431 -0.1172
  930POPC   C4B13518  17.082  12.940   7.728 -0.1571 -0.0458 -0.0079
  931POPC   NC313519  16.777   4.481   5.013 -0.0682 -0.0668  0.4467
  931POPC   PO413520  16.783   4.694   5.310  0.0658 -0.1195 -0.0932
  931POPC   GL113521  16.796   5.117   5.494 -0.1231 -0.3474  0.0297
  931POPC   GL213522  16.426   5.304   5.635  0.0340 -0.0966  0.2863
  931POPC   C1A13523  16.799   5.563   5.749  0.0114 -0.1487  0.3029
  931POPC   D2A13524  17.009   5.693   6.028 -0.0042  0.1015  0.0225
  931POPC   C3A13525  17.259   5.367   6.335  0.1677  0.2082  0.0849
  931POPC   C4A13526  17.465   5.400   6.679 -0.1980  0.2054  0.0752
  931POPC   C1B13527  16.250   5.344   6.150 -0.0622  0.2556 -0.1468
  931POPC   C2B13528  16.230   5.304   6.678 -0.0338 -0.2192 -0.0541
  931POPC   C3B13529  16.136   5.469   7.055 -0.1311 -0.2340 -0.1031
  931POPC   C4B13530  16.313   5.614   7.327 -0.1481 -0.3202  0.0441
  932POPC   NC313531  11.044  13.540   5.873  0.1517 -0.3065 -0.0330
  932POPC   PO413532  11.234  13.858   6.137  0.3312  0.0533 -0.1311
  932POPC   GL113533  11.412  14.140   6.399  0.1487 -0.1258 -0.0914
  932POPC   GL213534  11.235  14.382   6.366  0.0822  0.0906  0.3000
  932POPC   C1A13535  11.779  14.275   6.558  0.3231 -0.1219  0.2405
  932POPC   D2A13536  11.756  14.296   6.971 -0.0134  0.1310  0.1697
  932POPC   C3A13537  11.909  14.099   7.353  0.1222 -0.1503 -0.0223
  932POPC   C4A13538  11.912  13.855   7.753  0.0078  0.1270  0.3300
  932POPC   C1B13539  11.256  14.447   6.904 -0.2245 -0.3139  0.1815
  932POPC   C2B13540  11.236  14.592   7.390 -0.1335 -0.2547  0.2462
  932POPC   C3B13541  11.216  14.474   7.720 -0.4919  0.2403 -0.3316
  932POPC   C4B13542  11.449  14.213   7.943 -0.1990  0.1703  0.0178
  933POPC   NC313543  17.010   0.412   5.987  0.0516 -0.5960 -0.0040
  933POPC   PO413544  17.304   0.119   5.881 -0.1122  0.2210 -0.1376
  933POPC   GL113545  17.574  -0.009   6.189 -0.1146 -0.0177  0.2790
  933POPC   GL213546  17.870  -0.044   6.091  0.1147  0.2563  0.3295
  933POPC   C1A13547  17.779  -0.028   6.608  0.0931  0.2697  0.0454
  933POPC   D2A13548  17.785  -0.167   7.054  0.0337 -0.1138  0.0024
  933POPC   C3A13549  17.879   0.015   7.377 -0.0638  0.3350 -0.2082
  933POPC   C4A13550  17.792  -0.129   7.886 -0.3719  0.1008 -0.1424
  933POPC   C1B13551  17.961  -0.468   6.268 -0.1978  0.0702  0.3379
  933POPC   C2B13552  18.091  -0.513   6.685 -0.0311  0.1712  0.0429
  933POPC   C3B13553  18.418  -0.429   6.769  0.1501 -0.0817  0.4409
  933POPC   C4B13554  18.716  -0.414   6.564  0.0448  0.0069 -0.0523
  934POPC   NC313555  15.825  13.646   5.700  0.0662 -0.0696  0.0012
  934POPC   PO413556  15.593  13.618   6.106  0.2224  0.2512 -0.1115
  934POPC   GL113557  15.590  13.139   6.092  0.0807 -0.1392  0.2292
  934POPC   GL213558  15.897  13.118   6.309  0.0113 -0.3294 -0.2549
  934POPC   C1A13559  15.564  12.697   6.285 -0.0480  0.2661  0.3098
  934POPC   D2A13560  15.190  12.529   6.229  0.2872 -0.0037 -0.2050
  934POPC   C3A13561  15.017  12.468   6.584 -0.2270  0.0675 -0.0303
  934POPC   C4A13562  14.952  12.355   7.043  0.0612 -0.1839  0.2059
  934POPC   C1B13563  15.797  13.034   6.780  0.1079  0.2843 -0.0085
  934POPC   C2B13564  15.923  13.039   7.189  0.3395 -0.0244  0.1953
  934POPC   C3B13565  16.298  12.816   7.421 -0.2512 -0.2142  0.2468
  934POPC   C4B13566  16.660  13.051   7.505  0.1061 -0.0707  0.1398
  935POPC   NC313567  12.365  15.989   5.649 -0.1651  0.2950  0.2706
  935POPC   PO413568  12.470  16.221   5.931  0.0797  0.0057 -0.1982
  935POPC   GL113569  12.453  15.867   6.167 -0.3753 -0.0632  0.3633
  935POPC   GL213570  12.262  15.820   6.316 -0.1434  0.1279  0.0688
  935POPC   C1A13571  12.779  15.737   6.486 -0.1569  0.0733  0.2051
  935POPC   D2A13572  13.137  15.597   6.765 -0.2820 -0.0004  0.0214
  935POPC   C3A13573  13.167  15.708   7.169 -0.1903  0.0967 -0.1607
  935POPC   C4A13574  13.067  15.787   7.540  0.2483 -0.3401  0.1129
  935POPC   C1B13575  12.264  15.523   6.554  0.0974 -0.0829 -0.0475
  935POPC   C2B13576  12.599  15.334   6.739  0.0093 -0.0484 -0.0680
  935POPC   C3B13577  13.028  15.161   6.987  0.0397 -0.1072 -0.0997
  935POPC   C4B13578  13.069  15.186   7.377  0.0161  0.1259 -0.1630
  936POPC   NC313579  11.455   5.131   5.670 -0.1952 -0.1554 -0.1415
  936POPC   PO413580  11.787   5.501   5.531  0.4801 -0.1793 -0.0427
  936POPC   GL113581  11.604   5.623   5.973  0.1366 -0.0704  0.1641
  936POPC   GL213582  11.249   5.501   6.011  0.0788 -0.2604  0.1748
  936POPC   C1A13583  11.855   5.546   6.404 -0.0741 -0.0288  0.1975
  936POPC   D2A13584  11.770   5.480   6.835  0.1045 -0.0857 -0.1525
  936POPC   C3A13585  11.426   5.584   7.013 -0.2056  0.0173 -0.1937
  936POPC   C4A13586  11.363   5.670   7.398  0.0331  0.0171 -0.0554
  936POPC   C1B13587  11.337   5.595   6.450  0.1049  0.2278  0.0368
  936POPC   C2B13588  11.533   6.016   6.709  0.0771  0.3274 -0.3472
  936POPC   C3B13589  11.506   6.115   7.170  0.4814  0.0704  0.0520
  936POPC   C4B13590  11.756   6.096   7.593 -0.2142 -0.2491  0.1034
  937POPC   NC313591  11.516   3.133   5.691  0.0986 -0.2454 -0.2528
  937POPC   PO413592  11.584   3.700   5.633  0.2053 -0.1724  0.1181
  937POPC   GL113593  11.743   3.737   6.027  0.2556 -0.0829  0.0171
  937POPC   GL213594  11.766   3.412   6.059 -0.2409  0.0607  0.3418
  937POPC   C1A13595  12.073   3.827   6.259 -0.4118 -0.0356  0.0529
  937POPC   D2A13596  12.373   3.753   6.436  0.0465  0.0815  0.1384
  937POPC   C3A13597  12.563   3.673   6.779  0.0686  0.0949 -0.1400
  937POPC   C4A13598  12.733   3.857   7.123 -0.1175 -0.0475 -0.0905
  937POPC   C1B13599  11.557   3.610   6.467 -0.1138  0.0371 -0.1866
  937POPC   C2B13600  11.683   4.054   6.598  0.3118 -0.2696 -0.1337
  937POPC   C3B13601  12.030   4.197   6.614 -0.0272  0.2951 -0.2398
  937POPC   C4B13602  12.324   4.196   6.882  0.2951 -0.0260  0.1757
  938POPC   NC313603  17.432  12.901   5.696  0.0395  0.0385 -0.1780
  938POPC   PO413604  17.265  12.537   5.856  0.1015  0.1820 -0.1039
  938POPC   GL113605  17.351  12.748   6.280 -0.3208 -0.0136  0.0666
  938POPC   GL213606  17.740  12.940   6.344  0.3059 -0.0236 -0.0313
  938POPC   C1A13607  17.091  12.983   6.475  0.0234  0.1098  0.0371
  938POPC   D2A13608  16.827  13.318   6.677  0.0016  0.2213 -0.0300
  938POPC   C3A13609  16.866  13.417   7.163  0.1834  0.0087 -0.0298
  938POPC   C4A13610  17.040  13.771   7.226 -0.2686 -0.1323 -0.0650
  938POPC   C1B13611  17.736  13.227   6.681 -0.0644 -0.0511  0.1237
  938POPC   C2B13612  17.846  13.076   7.114 -0.2322 -0.3544 -0.2663
  938POPC   C3B13613  18.007  12.720   7.373 -0.1668 -0.0427  0.0082
  938POPC   C4B13614  18.137  12.319   7.441 -0.0085  0.0485  0.0679
  939POPC   NC313615  13.639  12.732   5.236 -0.2569  0.0029  0.1796
  939POPC   PO413616  13.726  12.260   5.408 -0.0098 -0.0474  0.0467
  939POPC   GL113617  13.738  12.062   5.884  0.2957 -0.4670 -0.0134
  939POPC   GL213618  13.706  11.671   5.958  0.1504  0.2331 -0.0541
  939POPC   C1A13619  13.823  12.123   6.327 -0.1974  0.0535  0.0073
  939POPC   D2A13620  13.992  12.136   6.692  0.0916 -0.4296 -0.0633
  939POPC   C3A13621  13.741  12.366   7.075 -0.2920 -0.0585 -0.0700
  939POPC   C4A13622  13.779  12.518   7.461 -0.1201  0.0869  0.0462
  939POPC   C1B13623  14.060  11.494   6.317 -0.1317  0.1228 -0.0916
  939POPC   C2B13624  14.106  11.109   6.563 -0.1071 -0.0143 -0.0775
  939POPC   C3B13625  14.123  10.710   6.562  0.1302 -0.1417  0.1655
  939POPC   C4B13626  13.954  10.387   6.656 -0.1531 -0.1596  0.1170
  940POPC   NC313627   3.632   0.544   5.288  0.0845  0.1380  0.0872
  940POPC   PO413628   3.487   0.262   5.521 -0.1330  0.3636  0.1326
  940POPC   GL113629   3.470   0.257   5.900 -0.0789  0.0035  0.0634
  940POPC   GL213630   3.230   0.244   6.057 -0.1755  0.0390 -0.5226
  940POPC   C1A13631   3.594   0.235   6.417 -0.0281 -0.2569 -0.1028
  940POPC   D2A13632   3.738   0.220   6.904 -0.1015 -0.1640  0.3863
  940POPC   C3A13633   3.764   0.046   7.294  0.2388  0.0518  0.0315
  940POPC   C4A13634   3.713  -0.159   7.715 -0.0701 -0.1667  0.3143
  940POPC   C1B13635   3.079   0.151   6.394  0.3093  0.1819 -0.2724
  940POPC   C2B13636   2.775   0.125   6.756  0.3571  0.0244  0.2250
  940POPC   C3B13637   2.430   0.458   6.890  0.2806 -0.6706 -0.0433
  940POPC   C4B13638   2.198   0.726   7.082  0.1299  0.0431 -0.2453
  941YOPC   NC313639  17.010   0.833   5.332  0.1050 -0.1613 -0.1286
  941YOPC   PO413640  16.845   0.851   5.739 -0.1586 -0.1573  0.0731
  941YOPC   GL113641  16.901   0.866   6.171 -0.1742 -0.1789 -0.2504
  941YOPC   GL213642  16.810   1.043   6.359  0.1673 -0.3310  0.1794
  941YOPC   C1A13643  16.830   0.628   6.594  0.1380  0.2100 -0.5151
  941YOPC   D2A13644  16.828   0.546   7.068  0.2133 -0.1359  0.0470
  941YOPC   C3A13645  17.126   0.369   7.296 -0.1207  0.0245 -0.0169
  941YOPC   C4A13646  17.402  -0.054   7.325 -0.1402  0.0342  0.1205
  941YOPC   C1B13647  16.846   1.117   6.736  0.3509  0.1365  0.2556
  941YOPC   C2B13648  16.872   1.197   7.102  0.1618 -0.0290 -0.0037
  941YOPC   D3B13649  16.844   0.824   7.498 -0.0147 -0.1281  0.2630
  941YOPC   C4B13650  17.243   0.702   7.726 -0.1002 -0.2654  0.1893
  942YOPC   NC313651   6.762  15.211   5.388  0.1319  0.1501 -0.3535
  942YOPC   PO413652   7.008  14.798   5.352 -0.0618  0.2166 -0.2574
  942YOPC   GL113653   7.147  14.618   5.812 -0.1882  0.0918 -0.0654
  942YOPC   GL213654   7.270  14.290   5.868  0.0430 -0.4614  0.0074
  942YOPC   C1A13655   7.218  14.769   6.193  0.2753 -0.2047  0.3882
  942YOPC   D2A13656   7.089  14.632   6.610 -0.2712 -0.1656  0.1778
  942YOPC   C3A13657   7.285  14.873   6.756 -0.0176  0.1320  0.0860
  942YOPC   C4A13658   7.439  15.323   6.836  0.2075  0.1392 -0.1327
  942YOPC   C1B13659   7.056  14.283   6.171  0.1386  0.1002  0.0337
  942YOPC   C2B13660   6.853  14.223   6.482 -0.1863 -0.1436 -0.0127
  942YOPC   D3B13661   6.964  14.298   6.926  0.0209 -0.0887  0.0891
  942YOPC   C4B13662   6.847  14.566   7.338  0.0302  0.1251  0.0786
  943YOPC   NC313663   1.265  15.846   5.340  0.0936 -0.1920  0.0438
  943YOPC   PO413664   1.365  16.210   5.465 -0.2515  0.2074 -0.1299
  943YOPC   GL113665   1.188  16.094   5.786  0.2661  0.2335 -0.1600
  943YOPC   GL213666   1.081  15.776   5.929  0.0964  0.0372 -0.1878
  943YOPC   C1A13667   1.339  16.149   6.272 -0.1698 -0.3098  0.1337
  943YOPC   D2A13668   1.315  16.049   6.627 -0.0035 -0.0135 -0.0479
  943YOPC   C3A13669   1.285  16.161   6.940  0.1947 -0.1703  0.1935
  943YOPC   C4A13670   1.467  15.984   7.381  0.0602  0.0941  0.1772
  943YOPC   C1B13671   1.375  15.656   6.144 -0.1392 -0.0004  0.1328
  943YOPC   C2B13672   1.705  15.394   6.373  0.0196  0.4129  0.1766
  943YOPC   D3B13673   1.871  15.061   6.477 -0.1596 -0.1306  0.0996
  943YOPC   C4B13674   2.209  14.673   6.481 -0.3030 -0.4433  0.3267
  944YOPC   NC313675  12.106   2.397   5.769  0.0533  0.2420  0.1891
  944YOPC   PO413676  12.491   2.644   5.724  0.1649 -0.1076 -0.0090
  944YOPC   GL113677  12.408   2.607   6.128 -0.4139 -0.1161 -0.1032
  944YOPC   GL213678  12.036   2.543   6.269  0.0709 -0.0748  0.0731
  944YOPC   C1A13679  12.521   2.888   6.492 -0.1232 -0.0218  0.1748
  944YOPC   D2A13680  12.418   3.054   6.797 -0.0371  0.0086  0.3746
  944YOPC   C3A13681  12.465   3.352   7.145  0.1918  0.1640  0.0260
  944YOPC   C4A13682  12.642   3.555   7.473 -0.3597 -0.2329 -0.1806
  944YOPC   C1B13683  11.912   2.833   6.695  0.1597  0.0786  0.3995
  944YOPC   C2B13684  11.705   3.223   6.880  0.1416 -0.1281  0.2369
  944YOPC   D3B13685  11.922   3.321   7.264  0.0633  0.1840 -0.0979
  944YOPC   C4B13686  12.004   3.597   7.493  0.1060  0.1821 -0.1431
  945YOPC   NC313687  15.583   9.752   5.038 -0.2989 -0.0811 -0.1332
  945YOPC   PO413688  15.449   9.882   5.470 -0.1443 -0.0917 -0.1132
  945YOPC   GL113689  15.242  10.125   5.692  0.1068  0.2157 -0.1258
  945YOPC   GL213690  15.094   9.808   5.889 -0.1013  0.3069 -0.4207
  945YOPC   C1A13691  15.038  10.337   5.976 -0.1819 -0.1685 -0.1835
  945YOPC   D2A13692  14.728  10.490   6.210 -0.0770 -0.2138 -0.1584
  945YOPC   C3A13693  14.462  10.827   6.185 -0.0177  0.0743  0.2177
  945YOPC   C4A13694  14.050  10.982   6.107  0.1482  0.0932  0.0883
  945YOPC   C1B13695  14.967   9.909   6.338  0.0171  0.0035  0.1801
  945YOPC   C2B13696  14.823   9.841   6.778 -0.0043 -0.0643  0.1234
  945YOPC   D3B13697  14.868   9.516   7.109  0.2376 -0.5863  0.0071
  945YOPC   C4B13698  14.792   9.484   7.662 -0.2614 -0.1171 -0.2390
  946YOPC   NC313699  10.368  13.166   5.564  0.1306  0.0332  0.6083
  946YOPC   PO413700  10.528  13.418   5.930  0.0842 -0.2383 -0.0508
  946YOPC   GL113701  10.654  13.521   6.336  0.0423 -0.0570 -0.1130
  946YOPC   GL213702  10.445  13.419   6.469  0.0928 -0.3369  0.0218
  946YOPC   C1A13703  10.909  13.220   6.714  0.0063  0.2357 -0.2194
  946YOPC   D2A13704  10.973  13.050   7.157  0.1822  0.0399  0.1243
  946YOPC   C3A13705  11.252  13.194   7.452 -0.2134 -0.1253 -0.0946
  946YOPC   C4A13706  11.716  13.412   7.628 -0.3461  0.0708  0.0384
  946YOPC   C1B13707  10.513  13.415   6.895 -0.0709 -0.0776  0.0709
  946YOPC   C2B13708  10.583  13.299   7.380 -0.1025 -0.0586 -0.0090
  946YOPC   D3B13709  10.313  13.187   7.665  0.1127  0.1496  0.2199
  946YOPC   C4B13710   9.891  13.211   7.851 -0.2532 -0.2652  0.2171
  947YOPC   NC313711  15.431   1.407   5.730  0.2042 -0.1256 -0.0309
  947YOPC   PO413712  15.066   1.750   5.667 -0.1174 -0.0169  0.0619
  947YOPC   GL113713  14.895   1.949   5.957 -0.0435 -0.0869  0.0749
  947YOPC   GL213714  15.014   1.884   6.301  0.0317 -0.3240 -0.5322
  947YOPC   C1A13715  14.807   2.370   6.089 -0.1297 -0.0696  0.1688
  947YOPC   D2A13716  14.946   2.401   6.500  0.0698 -0.1822 -0.0328
  947YOPC   C3A13717  15.164   2.816   6.554 -0.0490  0.0971 -0.4949
  947YOPC   C4A13718  15.549   3.032   6.515  0.1643  0.0228  0.1521
  947YOPC   C1B13719  14.815   1.848   6.639  0.0666 -0.1093  0.3332
  947YOPC   C2B13720  14.587   1.768   7.041  0.0339 -0.0484  0.3011
  947YOPC   D3B13721  14.752   1.895   7.479 -0.0619 -0.2037 -0.2077
  947YOPC   C4B13722  15.030   1.899   7.877  0.4252  0.1763  0.2711
  948YOPC   NC313723   1.716  15.890   5.214  0.0721 -0.0439 -0.0180
  948YOPC   PO413724   1.864  16.331   5.238  0.2158 -0.0619  0.2761
  948YOPC   GL113725   1.955  16.033   5.609  0.2787 -0.1616  0.1325
  948YOPC   GL213726   2.266  15.927   5.857  0.2317 -0.1178  0.1257
  948YOPC   C1A13727   1.819  16.240   6.074  0.0337  0.0146 -0.0329
  948YOPC   D2A13728   1.883  16.532   6.431 -0.1338 -0.0383 -0.0505
  948YOPC   C3A13729   1.684  16.459   6.820  0.1137  0.0950 -0.2253
  948YOPC   C4A13730   1.757  16.162   7.017 -0.0498 -0.2610  0.2304
  948YOPC   C1B13731   2.322  15.996   6.242  0.0580  0.1402 -0.1840
  948YOPC   C2B13732   2.310  16.242   6.738 -0.1335  0.1446 -0.0374
  948YOPC   D3B13733   2.071  16.527   7.103 -0.0591  0.2836 -0.0079
  948YOPC   C4B13734   2.019  16.926   7.085  0.1199 -0.2334 -0.0623
  949YOPC   NC313735  12.023  12.408   5.634 -0.0552  0.1379 -0.0930
  949YOPC   PO413736  12.395  12.663   5.779  0.1777 -0.3412 -0.1968
  949YOPC   GL113737  12.480  12.442   6.054  0.0456  0.0820  0.0096
  949YOPC   GL213738  12.193  12.324   6.135 -0.0028  0.1128  0.0544
  949YOPC   C1A13739  12.788  12.256   6.295  0.0482 -0.1131  0.2095
  949YOPC   D2A13740  13.007  12.177   6.613  0.1305  0.0438 -0.0903
  949YOPC   C3A13741  13.063  12.413   6.950 -0.0402 -0.0404 -0.0461
  949YOPC   C4A13742  13.271  12.651   7.289 -0.1578 -0.0240 -0.0959
  949YOPC   C1B13743  12.332  12.101   6.404 -0.4294  0.0202  0.3777
  949YOPC   C2B13744  12.461  12.145   6.732 -0.0357 -0.2166  0.0200
  949YOPC   D3B13745  12.648  12.185   7.083 -0.3692  0.1365 -0.0638
  949YOPC   C4B13746  12.830  12.121   7.548  0.0321 -0.0679 -0.1147
  950YOPC   NC313747   6.541  13.276   4.846 -0.0591  0.0097  0.0426
  950YOPC   PO413748   6.310  13.349   5.194 -0.2039 -0.4424  0.0968
  950YOPC   GL113749   6.239  13.450   5.556  0.0228 -0.3359  0.2635
  950YOPC   GL213750   6.523  13.682   5.613  0.1067  0.0771 -0.0165
  950YOPC   C1A13751   6.182  13.247   5.903 -0.2754 -0.2234 -0.0902
  950YOPC   D2A13752   6.346  13.095   6.421 -0.1859 -0.0176 -0.2507
  950YOPC   C3A13753   5.920  13.141   6.708 -0.0415  0.0891  0.1321
  950YOPC   C4A13754   5.521  13.301   7.056 -0.0199  0.1441  0.6316
  950YOPC   C1B13755   6.629  13.553   6.080  0.2272  0.3583  0.0236
  950YOPC   C2B13756   6.307  13.622   6.405 -0.1776  0.1998  0.0032
  950YOPC   D3B13757   5.878  13.445   6.265  0.2369  0.0583 -0.1742
  950YOPC   C4B13758   5.522  13.335   6.527 -0.0152 -0.2534 -0.4119
  951YOPC   NC313759   7.968   2.721   5.166  0.2926 -0.1911 -0.0435
  951YOPC   PO413760   7.994   2.470   5.518 -0.2412 -0.0614 -0.1072
  951YOPC   GL113761   7.892   2.506   5.977 -0.2143  0.2045 -0.0331
  951YOPC   GL213762   8.100   2.803   6.206 -0.0653  0.1476 -0.0149
  951YOPC   C1A13763   7.624   2.945   6.181 -0.4007 -0.4109  0.0297
  951YOPC   D2A13764   7.720   2.959   6.616 -0.0832 -0.1692  0.0590
  951YOPC   C3A13765   7.526   3.212   6.961 -0.0616 -0.1180 -0.1979
  951YOPC   C4A13766   7.475   3.365   7.431 -0.0239 -0.0405  0.0878
  951YOPC   C1B13767   8.132   2.630   6.653  0.0489  0.0258  0.0854
  951YOPC   C2B13768   7.983   2.349   6.989  0.0692  0.1619  0.0123
  951YOPC   D3B13769   7.793   2.339   7.346  0.1740 -0.4588  0.0297
  951YOPC   C4B13770   7.296   2.382   7.488 -0.0442 -0.2193 -0.1838
  952YOPC   NC313771   7.544   8.222   5.456 -0.1214 -0.1468 -0.0459
  952YOPC   PO413772   7.229   8.518   5.516  0.0567  0.1340  0.2376
  952YOPC   GL113773   7.198   8.461   5.967 -0.1114 -0.0330  0.2299
  952YOPC   GL213774   6.877   8.322   5.971 -0.0620 -0.2321 -0.1812
  952YOPC   C1A13775   7.460   8.509   6.345  0.1939  0.0460  0.0518
  952YOPC   D2A13776   7.428   8.594   6.607 -0.0246 -0.0010  0.3772
  952YOPC   C3A13777   7.310   8.628   7.018  0.0443 -0.2463  0.0212
  952YOPC   C4A13778   7.156   8.444   7.413  0.1204 -0.1723 -0.0043
  952YOPC   C1B13779   6.959   8.393   6.365  0.0037 -0.0996  0.0668
  952YOPC   C2B13780   6.935   8.705   6.636 -0.3209  0.1821  0.2776
  952YOPC   D3B13781   6.838   8.636   7.046  0.1593 -0.1682 -0.0636
  952YOPC   C4B13782   6.468   8.795   7.220  0.1164  0.3006  0.3287
  953YOPC   NC313783  13.764  13.022   5.829  0.0261 -0.2333  0.0753
  953YOPC   PO413784  13.872  12.595   5.780  0.1930 -0.1856  0.0846
  953YOPC   GL113785  13.586  12.538   6.120  0.1830  0.0450 -0.0372
  953YOPC   GL213786  13.515  12.784   6.280  0.1307  0.0531 -0.0871
  953YOPC   C1A13787  13.248  12.356   6.196 -0.0152 -0.1318 -0.1223
  953YOPC   D2A13788  13.180  11.936   6.147  0.2968 -0.0280 -0.1248
  953YOPC   C3A13789  13.433  11.730   6.393  0.0979 -0.0763  0.2028
  953YOPC   C4A13790  13.764  11.698   6.775  0.0596  0.1536  0.1969
  953YOPC   C1B13791  13.614  12.480   6.627 -0.0235 -0.0316 -0.0782
  953YOPC   C2B13792  13.447  12.135   6.763  0.0034 -0.2892  0.0639
  953YOPC   D3B13793  13.199  11.979   7.156  0.2224 -0.2978 -0.0851
  953YOPC   C4B13794  13.111  11.745   7.419  0.1190 -0.1194 -0.2026
  954YOPC   NC313795   6.770   2.977   5.043 -0.2580 -0.0709  0.1743
  954YOPC   PO413796   6.583   2.697   5.434  0.2932  0.1877  0.0814
  954YOPC   GL113797   6.622   2.782   5.755  0.1671 -0.2191  0.1409
  954YOPC   GL213798   6.843   3.013   5.787 -0.1535 -0.0097 -0.0273
  954YOPC   C1A13799   6.472   3.186   6.008  0.0228  0.1228 -0.2543
  954YOPC   D2A13800   6.811   3.451   6.156 -0.0239 -0.3273  0.1912
  954YOPC   C3A13801   6.741   3.807   6.294 -0.4428 -0.0197  0.0440
  954YOPC   C4A13802   6.872   3.809   6.690 -0.2016 -0.0252  0.0806
  954YOPC   C1B13803   6.799   2.894   6.229  0.1806  0.1341 -0.1788
  954YOPC   C2B13804   6.748   2.559   6.559 -0.5258  0.1302  0.0639
  954YOPC   D3B13805   6.431   2.341   6.533  0.1822  0.0720 -0.0342
  954YOPC   C4B13806   6.333   2.252   6.211  0.0398 -0.3113  0.3387
  955YOPC   NC313807  14.564  11.660   5.516  0.0515  0.1870  0.0388
  955YOPC   PO413808  14.448  11.276   5.363 -0.1037 -0.1383  0.0876
  955YOPC   GL113809  14.478  11.217   5.819  0.1725  0.0117  0.0439
  955YOPC   GL213810  14.790  11.101   5.935  0.1548  0.3142 -0.2298
  955YOPC   C1A13811  14.521  11.407   6.250  0.1754 -0.0164 -0.0242
  955YOPC   D2A13812  14.909  11.488   6.459 -0.1832  0.1535  0.0243
  955YOPC   C3A13813  14.948  11.401   6.874  0.0021  0.1114  0.1033
  955YOPC   C4A13814  14.639  11.419   7.232  0.0941  0.1088  0.2381
  955YOPC   C1B13815  14.909  11.010   6.270 -0.0398  0.2107 -0.0824
  955YOPC   C2B13816  14.713  11.033   6.540  0.1988 -0.0349  0.0231
  955YOPC   D3B13817  14.590  10.693   6.711 -0.0010 -0.3689 -0.0817
  955YOPC   C4B13818  14.477  10.621   7.136  0.1133 -0.0896  0.5359
  956YOPC   NC313819   6.507   1.834   5.537 -0.1008 -0.2024 -0.1036
  956YOPC   PO413820   6.187   1.549   5.573  0.2219 -0.0204 -0.1011
  956YOPC   GL113821   6.266   1.580   5.959 -0.2976  0.1126  0.0299
  956YOPC   GL213822   6.451   1.863   6.012 -0.0914  0.2034 -0.1680
  956YOPC   C1A13823   6.042   1.631   6.298  0.0846  0.0167  0.2970
  956YOPC   D2A13824   5.863   1.346   6.609  0.1194 -0.1680 -0.0644
  956YOPC   C3A13825   6.038   1.237   6.929 -0.0125 -0.0918  0.0816
  956YOPC   C4A13826   6.084   1.399   7.398  0.0288 -0.0264  0.1837
  956YOPC   C1B13827   6.488   1.862   6.433  0.1924  0.4031 -0.1714
  956YOPC   C2B13828   6.619   1.868   6.925 -0.1314 -0.0594 -0.0079
  956YOPC   D3B13829   6.584   2.289   7.094  0.0033  0.3502 -0.0323
  956YOPC   C4B13830   6.256   2.369   7.443  0.1087 -0.1972 -0.0440
  957YOPC   NC313831   1.351   0.608   5.294 -0.2431  0.0409 -0.3484
  957YOPC   PO413832   1.793   0.535   5.255 -0.1459 -0.0305  0.0588
  957YOPC   GL113833   1.712   0.355   5.642 -0.2219  0.4260  0.2943
  957YOPC   GL213834   1.922   0.576   5.773 -0.1934 -0.1986 -0.2043
  957YOPC   C1A13835   1.427   0.413   6.027  0.0465  0.2284  0.0515
  957YOPC   D2A13836   1.489   0.540   6.388 -0.2293  0.0059  0.0599
  957YOPC   C3A13837   1.173   0.508   6.691 -0.0343 -0.0329  0.0515
  957YOPC   C4A13838   0.786   0.383   6.939 -0.2679 -0.0159 -0.0006
  957YOPC   C1B13839   1.910   0.395   6.135  0.0327  0.2656  0.0500
  957YOPC   C2B13840   2.087   0.438   6.524  0.0106  0.3209  0.0549
  957YOPC   D3B13841   1.858   0.385   6.854 -0.0371 -0.1446  0.3418
  957YOPC   C4B13842   1.918   0.351   7.273 -0.2877  0.1598 -0.0877
  958YOPC   NC313843   9.978  11.745   5.503 -0.1093 -0.1057  0.2426
  958YOPC   PO413844  10.250  11.379   5.489 -0.2347  0.3972 -0.0390
  958YOPC   GL113845  10.195  11.209   5.919  0.0300 -0.1164  0.0867
  958YOPC   GL213846   9.972  11.263   6.148 -0.1334 -0.0804 -0.0349
  958YOPC   C1A13847  10.333  10.841   6.185  0.0524 -0.0096 -0.0816
  958YOPC   D2A13848  10.277  10.762   6.639 -0.1166 -0.2015  0.3094
  958YOPC   C3A13849  10.413  11.077   6.922 -0.1216  0.1402  0.1498
  958YOPC   C4A13850  10.542  11.362   7.123  0.2483  0.0885 -0.0586
  958YOPC   C1B13851   9.997  11.664   6.375 -0.1626 -0.2331 -0.1630
  958YOPC   C2B13852  10.219  11.882   6.817 -0.0871 -0.0883  0.1801
  958YOPC   D3B13853  10.028  12.180   7.135 -0.0657  0.0437  0.0764
  958YOPC   C4B13854   9.710  12.263   7.402  0.0383  0.0948  0.0561
  959YOPC   NC313855   5.728   6.243   5.460 -0.2968 -0.0528 -0.4347
  959YOPC   PO413856   5.296   6.201   5.715  0.1840 -0.1531  0.0365
  959YOPC   GL113857   5.058   6.189   5.992  0.1216 -0.2712  0.2547
  959YOPC   GL213858   4.901   5.944   6.059  0.0630  0.0812 -0.0793
  959YOPC   C1A13859   4.866   6.332   6.360 -0.0961 -0.2084  0.0470
  959YOPC   D2A13860   4.689   6.521   6.724 -0.0147 -0.1263  0.1255
  959YOPC   C3A13861   4.788   6.494   7.240 -0.1540  0.3160  0.1496
  959YOPC   C4A13862   4.386   6.315   7.619 -0.0725 -0.3765 -0.0670
  959YOPC   C1B13863   4.746   5.658   6.403  0.0378 -0.2222 -0.1496
  959YOPC   C2B13864   4.279   5.489   6.489 -0.2748  0.1124  0.2214
  959YOPC   D3B13865   3.920   5.596   6.753  0.2516 -0.2136 -0.2152
  959YOPC   C4B13866   3.573   5.931   6.816  0.1829 -0.1735  0.2732
  960YOPC   NC313867  17.142  11.187   5.140  0.1258 -0.3057  0.2344
  960YOPC   PO413868  16.958  10.838   5.465 -0.4454 -0.2505  0.3062
  960YOPC   GL113869  17.037  10.925   5.854  0.2786 -0.0275  0.0948
  960YOPC   GL213870  16.988  10.587   5.982  0.0521  0.0610 -0.2592
  960YOPC   C1A13871  17.052  11.051   6.267  0.1865  0.1937  0.0733
  960YOPC   D2A13872  17.154  10.912   6.699  0.0702  0.1748 -0.3322
  960YOPC   C3A13873  17.436  10.678   6.687 -0.1043 -0.2927 -0.2137
  960YOPC   C4A13874  17.686  10.753   7.015  0.0902  0.1044  0.2063
  960YOPC   C1B13875  16.796  10.647   6.480 -0.2976 -0.0518  0.1483
  960YOPC   C2B13876  16.756  10.572   6.930 -0.4800 -0.2224  0.1115
  960YOPC   D3B13877  17.155  10.714   7.241  0.0195  0.2133  0.1429
  960YOPC   C4B13878  17.529  10.957   7.404  0.1166 -0.2150 -0.1160
  961YOPC   NC313879   4.566   2.987   5.572 -0.2768 -0.1800  0.0231
  961YOPC   PO413880   4.945   2.748   5.440  0.3010 -0.2519  0.1182
  961YOPC   GL113881   4.870   2.789   5.900 -0.3227 -0.1333  0.1727
  961YOPC   GL213882   5.066   2.979   6.106 -0.5739 -0.2387  0.1674
  961YOPC   C1A13883   4.545   2.695   6.168 -0.1951  0.0127 -0.1396
  961YOPC   D2A13884   4.204   2.457   6.155  0.0749  0.1951 -0.2376
  961YOPC   C3A13885   3.935   2.249   6.459  0.0583 -0.1121 -0.2685
  961YOPC   C4A13886   3.596   1.858   6.366 -0.0611  0.0496 -0.0839
  961YOPC   C1B13887   4.795   3.027   6.559  0.2488 -0.1507  0.1222
  961YOPC   C2B13888   4.831   2.942   6.817  0.1716  0.0923  0.0824
  961YOPC   D3B13889   4.600   3.217   7.065  0.4342 -0.0588 -0.2089
  961YOPC   C4B13890   4.341   3.718   7.006 -0.2176  0.1762 -0.1899
  962YOPC   NC313891  13.532   1.285   5.390 -0.0573 -0.0227  0.1214
  962YOPC   PO413892  13.471   0.951   5.727 -0.0770  0.1409 -0.0429
  962YOPC   GL113893  13.386   1.057   6.167  0.1082  0.0622 -0.0449
  962YOPC   GL213894  13.662   0.958   6.464 -0.1166 -0.0341 -0.0032
  962YOPC   C1A13895  13.038   1.244   6.268  0.2684  0.1217  0.2895
  962YOPC   D2A13896  12.940   1.568   6.552 -0.1023  0.0142 -0.0727
  962YOPC   C3A13897  12.891   1.515   6.908 -0.2197 -0.2470 -0.2170
  962YOPC   C4A13898  12.880   1.497   7.260  0.0885  0.1352  0.1641
  962YOPC   C1B13899  13.919   1.058   6.856  0.0253 -0.0064  0.1545
  962YOPC   C2B13900  14.153   0.810   7.202 -0.1285 -0.0548 -0.3797
  962YOPC   D3B13901  14.429   0.550   7.362  0.0510 -0.0628 -0.2382
  962YOPC   C4B13902  14.460   0.124   7.369 -0.0511  0.1532 -0.2110
  963YOPC   NC313903   2.942   5.082   4.824 -0.2180 -0.1446  0.3387
  963YOPC   PO413904   3.098   5.078   5.278  0.0337 -0.1025 -0.0760
  963YOPC   GL113905   3.022   4.733   5.572  0.1118  0.0416 -0.3031
  963YOPC   GL213906   2.747   4.618   5.599 -0.3516 -0.2357  0.0456
  963YOPC   C1A13907   3.180   4.710   5.934 -0.3598 -0.2025  0.1688
  963YOPC   D2A13908   3.364   4.635   6.440  0.1145 -0.0719  0.1803
  963YOPC   C3A13909   3.696   4.954   6.563 -0.0617  0.0093 -0.0789
  963YOPC   C4A13910   3.925   5.091   6.819 -0.5416 -0.0082 -0.3092
  963YOPC   C1B13911   2.552   4.658   6.058  0.0159 -0.3340  0.0529
  963YOPC   C2B13912   2.555   4.523   6.503  0.4253 -0.0445 -0.1385
  963YOPC   D3B13913   2.381   4.755   6.854 -0.0090 -0.1579  0.0770
  963YOPC   C4B13914   2.471   4.950   7.270  0.1685  0.1487  0.1195
  964YOPC   NC313915   3.985  17.828   5.417 -0.3864  0.0774 -0.3407
  964YOPC   PO413916   3.823  17.470   5.512  0.1353  0.0722  0.1712
  964YOPC   GL113917   3.905  17.625   5.900  0.0232  0.3146 -0.0569
  964YOPC   GL213918   3.722  17.928   6.023  0.1226 -0.2686 -0.2968
  964YOPC   C1A13919   4.210  17.682   6.278 -0.0696  0.0365 -0.0776
  964YOPC   D2A13920   4.111  17.710   6.758  0.2939 -0.1264 -0.2059
  964YOPC   C3A13921   3.748  17.631   6.918 -0.2359  0.0869  0.1123
  964YOPC   C4A13922   3.308  17.919   7.021 -0.0582  0.2472 -0.0121
  964YOPC   C1B13923   3.926  18.134   6.331  0.0313 -0.0117 -0.1608
  964YOPC   C2B13924   4.269  18.236   6.679  0.1622  0.0694 -0.2700
  964YOPC   D3B13925   4.235  18.351   7.131  0.0815  0.0712 -0.1195
  964YOPC   C4B13926   4.147  18.646   7.399 -0.0887  0.1711  0.1957
  965YOPC   NC313927   0.177   0.357   5.527 -0.2030  0.0119  0.0349
  965YOPC   PO413928   0.084   0.686   5.721 -0.2255  0.1557 -0.1690
  965YOPC   GL113929   0.048   0.600   6.097  0.2321 -0.1583  0.0132
  965YOPC   GL213930  -0.354   0.721   6.201 -0.0194  0.2253  0.1035
  965YOPC   C1A13931   0.091   0.898   6.452 -0.2263 -0.1297 -0.0086
  965YOPC   D2A13932   0.065   1.224   6.742  0.0113  0.3092  0.0654
  965YOPC   C3A13933   0.041   1.295   7.174 -0.1701 -0.0283 -0.2504
  965YOPC   C4A13934  -0.292   1.075   7.529  0.5390 -0.2489  0.2251
  965YOPC   C1B13935  -0.412   1.047   6.531 -0.4319 -0.0853  0.0210
  965YOPC   C2B13936  -0.379   0.992   6.975 -0.0811  0.1445 -0.0172
  965YOPC   D3B13937  -0.013   0.746   7.150  0.4253 -0.0857  0.1318
  965YOPC   C4B13938   0.293   0.403   7.167  0.2992 -0.1017 -0.3245
  966YOPC   NC313939   1.395  11.898   4.940 -0.0862 -0.0377  0.1170
  966YOPC   PO413940   1.044  11.850   5.183  0.3088  0.0392  0.1104
  966YOPC   GL113941   1.012  12.008   5.569 -0.3582 -0.5195 -0.2191
  966YOPC   GL213942   1.194  12.317   5.562 -0.1158 -0.2056  0.2465
  966YOPC   C1A13943   1.155  11.913   6.086 -0.0800  0.1210  0.1385
  966YOPC   D2A13944   1.124  11.792   6.528 -0.2837 -0.0568 -0.0400
  966YOPC   C3A13945   1.046  12.138   6.889 -0.1399 -0.0635  0.2819
  966YOPC   C4A13946   1.153  12.544   7.119  0.0895 -0.2067 -0.0037
  966YOPC   C1B13947   1.090  12.368   5.929  0.1418 -0.1606 -0.1749
  966YOPC   C2B13948   1.116  12.295   6.378 -0.1373  0.0497 -0.3555
  966YOPC   D3B13949   1.418  12.625   6.547  0.1805 -0.0237  0.1216
  966YOPC   C4B13950   1.511  12.953   6.768 -0.2336  0.0926 -0.2021
  967YOPC   NC313951  15.320   8.115   5.316  0.0217 -0.3559  0.0982
  967YOPC   PO413952  14.907   8.090   5.434  0.0119  0.4111  0.1667
  967YOPC   GL113953  14.645   8.156   5.858 -0.0112 -0.1457 -0.1123
  967YOPC   GL213954  14.484   8.430   5.777  0.1111 -0.0477 -0.2471
  967YOPC   C1A13955  14.567   8.045   6.397 -0.3169 -0.2423 -0.0049
  967YOPC   D2A13956  14.605   8.344   6.800  0.3002 -0.1933 -0.0549
  967YOPC   C3A13957  14.946   8.477   7.027  0.1550  0.0065  0.0252
  967YOPC   C4A13958  15.045   8.635   7.423  0.0038 -0.3613 -0.0336
  967YOPC   C1B13959  14.253   8.273   6.121 -0.1354  0.3998  0.1657
  967YOPC   C2B13960  14.038   8.123   6.532 -0.0161  0.0243 -0.0017
  967YOPC   D3B13961  14.046   8.137   6.921 -0.2620  0.2085 -0.3712
  967YOPC   C4B13962  13.953   7.934   7.338  0.3022 -0.0817  0.1733
  968YOPC   NC313963  15.098   4.217   5.124 -0.1644  0.1956  0.1915
  968YOPC   PO413964  14.726   4.370   5.207  0.0817 -0.0495  0.1823
  968YOPC   GL113965  14.584   4.400   5.647 -0.1411  0.0801 -0.0835
  968YOPC   GL213966  14.817   4.609   5.702 -0.1315  0.2054  0.0064
  968YOPC   C1A13967  14.382   4.240   6.001  0.3316 -0.0554 -0.0743
  968YOPC   D2A13968  14.389   4.340   6.451 -0.2009  0.3463  0.6756
  968YOPC   C3A13969  14.420   4.062   6.715 -0.3659 -0.0032  0.0845
  968YOPC   C4A13970  14.563   3.657   7.005 -0.4067  0.2443 -0.3837
  968YOPC   C1B13971  14.899   4.443   6.051  0.0024 -0.2164 -0.1786
  968YOPC   C2B13972  14.908   4.258   6.477  0.1991 -0.4363  0.2572
  968YOPC   D3B13973  15.268   4.245   6.733 -0.2017 -0.0973  0.1507
  968YOPC   C4B13974  15.490   4.005   7.054  0.1933  0.0679 -0.3177
  969YOPC   NC313975   2.331  16.272   5.415  0.2859 -0.1569 -0.1257
  969YOPC   PO413976   2.685  16.572   5.418 -0.0622  0.2576  0.0456
  969YOPC   GL113977   2.515  16.717   5.769  0.0129  0.1599 -0.2025
  969YOPC   GL213978   2.281  16.487   5.876  0.1561 -0.0053  0.2672
  969YOPC   C1A13979   2.332  16.935   6.157  0.0150  0.2025  0.1434
  969YOPC   D2A13980   2.496  17.156   6.447  0.0946 -0.0596  0.2366
  969YOPC   C3A13981   2.571  17.578   6.545  0.2639  0.4278 -0.1961
  969YOPC   C4A13982   2.656  17.979   6.260 -0.2985 -0.0925 -0.1094
  969YOPC   C1B13983   2.368  16.503   6.295 -0.1002  0.1020  0.1578
  969YOPC   C2B13984   2.292  16.724   6.679 -0.2770  0.2366  0.1720
  969YOPC   D3B13985   2.507  16.856   7.072  0.1944  0.0984 -0.1076
  969YOPC   C4B13986   2.638  17.181   7.424 -0.0160 -0.5882 -0.0353
  970YOPC   NC313987   7.867  18.378   5.592  0.3111  0.0594 -0.4060
  970YOPC   PO413988   7.515  18.607   5.728  0.2265 -0.0219 -0.2285
  970YOPC   GL113989   7.349  18.805   6.017  0.2470 -0.2947 -0.0863
  970YOPC   GL213990   7.527  18.846   6.191  0.2043  0.2466  0.0490
  970YOPC   C1A13991   6.967  18.845   6.304  0.0117  0.1151 -0.0004
  970YOPC   D2A13992   6.758  18.869   6.737  0.0625  0.0653 -0.1512
  970YOPC   C3A13993   7.042  18.957   7.098 -0.0016  0.0662 -0.0419
  970YOPC   C4A13994   7.178  18.881   7.497 -0.4530  0.1160 -0.0328
  970YOPC   C1B13995   7.464  18.828   6.587 -0.3814  0.4032  0.3036
  970YOPC   C2B13996   7.538  18.752   6.936 -0.2237  0.1942 -0.0656
  970YOPC   D3B13997   7.708  18.933   7.342  0.2046 -0.0829 -0.2116
  970YOPC   C4B13998   8.034  18.961   7.618  0.1034  0.2100 -0.0966
  971YOPC   NC313999  18.554   4.364   5.046 -0.1539  0.2460 -0.1442
  971YOPC   PO414000  18.133   4.343   4.956 -0.0741 -0.1890  0.1260
  971YOPC   GL114001  18.231   4.360   5.432  0.0994 -0.2429 -0.0698
  971YOPC   GL214002  18.146   4.004   5.616  0.0772 -0.1347  0.1799
  971YOPC   C1A14003  17.983   4.468   5.912  0.2322  0.1102  0.3242
  971YOPC   D2A14004  17.839   4.292   6.236  0.2689  0.0245 -0.3646
  971YOPC   C3A14005  17.835   4.351   6.753  0.5291 -0.2663 -0.0238
  971YOPC   C4A14006  17.728   4.467   7.112  0.0096 -0.0336  0.1508
  971YOPC   C1B14007  18.468   4.337   5.895  0.1475  0.0532  0.0400
  971YOPC   C2B14008  18.635   4.503   6.193 -0.1589 -0.2148  0.0600
  971YOPC   D3B14009  18.719   4.376   6.699 -0.0462 -0.2822 -0.0815
  971YOPC   C4B14010  18.857   4.326   7.157 -0.0516  0.0706 -0.0649
  972YOPC   NC314011  14.083   7.583   5.459 -0.1303  0.1048 -0.1411
  972YOPC   PO414012  14.451   7.355   5.462  0.2485  0.0383  0.0090
  972YOPC   GL114013  14.351   7.292   5.876 -0.2185  0.2364  0.0695
  972YOPC   GL214014  14.021   7.368   5.909 -0.2818  0.4129  0.1952
  972YOPC   C1A14015  14.325   7.213   6.335  0.0525  0.0571 -0.0355
  972YOPC   D2A14016  14.037   7.211   6.729  0.3920 -0.0822  0.0271
  972YOPC   C3A14017  14.429   7.371   7.015 -0.1669 -0.0999 -0.1653
  972YOPC   C4A14018  14.392   7.639   7.246 -0.2641  0.0030 -0.0827
  972YOPC   C1B14019  13.811   7.351   6.307  0.1639  0.0284  0.2962
  972YOPC   C2B14020  13.484   7.358   6.648  0.0925  0.3663  0.0207
  972YOPC   D3B14021  13.149   7.661   6.567 -0.2108 -0.3336 -0.0332
  972YOPC   C4B14022  13.150   7.895   6.271 -0.0712  0.1775 -0.1421
  973YOPC   NC314023  16.942  16.609   5.624 -0.1099  0.1295 -0.1010
  973YOPC   PO414024  16.965  17.141   5.602  0.0190  0.2454  0.0155
  973YOPC   GL114025  17.117  16.951   5.945 -0.1865 -0.1174 -0.0875
  973YOPC   GL214026  17.371  17.032   6.088 -0.1851  0.1205 -0.2907
  973YOPC   C1A14027  17.223  16.598   6.201 -0.1647  0.0774  0.0017
  973YOPC   D2A14028  17.236  16.369   6.537  0.1950  0.1132  0.1604
  973YOPC   C3A14029  16.956  16.479   6.746  0.0153 -0.1203 -0.0161
  973YOPC   C4A14030  16.683  16.700   7.091  0.0849 -0.1508  0.2054
  973YOPC   C1B14031  17.656  16.737   6.006 -0.0429 -0.0257  0.0216
  973YOPC   C2B14032  17.609  16.335   6.156  0.1609  0.1609  0.0190
  973YOPC   D3B14033  17.751  16.304   6.642 -0.0909  0.1226 -0.1520
  973YOPC   C4B14034  18.012  16.156   6.866 -0.1475  0.1029  0.1599
  974YOPC   NC314035  16.078   7.702   5.641  0.1522  0.3232 -0.2613
  974YOPC   PO414036  15.720   7.669   5.612 -0.0696 -0.3791 -0.1390
  974YOPC   GL114037  15.738   7.331   5.964 -0.1499  0.2905 -0.1233
  974YOPC   GL214038  15.636   6.982   6.004 -0.0246  0.0374  0.1835
  974YOPC   C1A14039  15.927   7.392   6.355  0.0853 -0.0402 -0.1935
  974YOPC   D2A14040  15.896   7.543   6.831  0.0160 -0.3738  0.0534
  974YOPC   C3A14041  16.181   7.396   7.193  0.0024  0.2239  0.0136
  974YOPC   C4A14042  16.399   7.327   7.554 -0.0566  0.1991 -0.2371
  974YOPC   C1B14043  15.623   6.870   6.357 -0.2188 -0.2496 -0.3095
  974YOPC   C2B14044  15.595   6.633   6.713  0.2625 -0.3364 -0.1031
  974YOPC   D3B14045  15.611   6.527   7.151 -0.0839 -0.0187  0.0241
  974YOPC   C4B14046  15.547   6.332   7.600 -0.1981  0.0767  0.2676
  975YOPC   NC314047  10.830  17.967   5.603  0.0881  0.1615 -0.0544
  975YOPC   PO414048  10.769  18.191   5.957  0.0118  0.1466 -0.2773
  975YOPC   GL114049  10.567  18.169   6.353 -0.2828  0.1553  0.1316
  975YOPC   GL214050  10.694  17.964   6.582  0.0397 -0.1212  0.0441
  975YOPC   C1A14051  10.235  18.392   6.562 -0.0360  0.2129 -0.0949
  975YOPC   D2A14052   9.811  18.454   6.629 -0.0361 -0.1406 -0.1559
  975YOPC   C3A14053   9.587  18.706   6.764 -0.3217  0.2067 -0.0303
  975YOPC   C4A14054   9.463  18.938   7.125  0.1909  0.1216  0.1578
  975YOPC   C1B14055  10.587  18.094   6.952  0.1630  0.0526  0.0202
  975YOPC   C2B14056  10.429  18.279   7.205 -0.2762  0.0125  0.4434
  975YOPC   D3B14057  10.182  18.737   7.088 -0.0310 -0.1084 -0.1172
  975YOPC   C4B14058  10.032  18.923   6.697 -0.1313 -0.1866 -0.0383
  976YOPC   NC314059   3.557   5.402   5.373 -0.2039 -0.0136  0.2308
  976YOPC   PO414060   3.515   5.857   5.370 -0.0614 -0.1034  0.3415
  976YOPC   GL114061   3.325   5.868   5.722  0.0008 -0.0702  0.0484
  976YOPC   GL214062   3.123   5.988   5.632  0.2202 -0.1625  0.1132
  976YOPC   C1A14063   3.290   5.551   5.988 -0.2876 -0.1793  0.2409
  976YOPC   D2A14064   3.390   5.201   6.266  0.2259  0.0839  0.2263
  976YOPC   C3A14065   3.354   5.298   6.682 -0.0938  0.0589 -0.1129
  976YOPC   C4A14066   3.340   5.432   7.060 -0.1946 -0.1020  0.1074
  976YOPC   C1B14067   2.666   6.147   5.777 -0.1825  0.1438 -0.0995
  976YOPC   C2B14068   2.262   5.956   5.935  0.1983 -0.0867 -0.0831
  976YOPC   D3B14069   1.911   5.930   6.206  0.2942  0.1679 -0.0508
  976YOPC   C4B14070   1.793   5.762   6.615 -0.1910 -0.2313  0.0761
  977YOPC   NC314071  12.710   1.386   5.617  0.1838  0.1670  0.2694
  977YOPC   PO414072  12.411   1.110   5.866 -0.0377 -0.2636  0.0145
  977YOPC   GL114073  12.495   1.367   6.232 -0.2058  0.2337  0.1321
  977YOPC   GL214074  12.583   1.659   6.151  0.2553 -0.1220  0.0958
  977YOPC   C1A14075  12.426   1.535   6.646 -0.1366 -0.3685 -0.2821
  977YOPC   D2A14076  12.380   1.590   7.136  0.0666  0.0258 -0.0011
  977YOPC   C3A14077  12.573   1.853   7.423 -0.2410 -0.0691 -0.3032
  977YOPC   C4A14078  12.570   1.939   7.898  0.0642  0.0875 -0.1434
  977YOPC   C1B14079  12.619   1.969   6.448  0.0366  0.2398  0.2093
  977YOPC   C2B14080  12.631   1.938   6.896  0.3124  0.0395  0.2854
  977YOPC   D3B14081  12.994   2.048   7.182  0.2039  0.1574 -0.0271
  977YOPC   C4B14082  13.140   2.350   7.482 -0.2984 -0.0780  0.0322
  978YOPC   NC314083  18.116   8.269   5.550 -0.3876 -0.0127  0.1500
  978YOPC   PO414084  17.952   7.827   5.559 -0.1428 -0.0352 -0.1333
  978YOPC   GL114085  17.815   7.889   5.956  0.4960 -0.0078 -0.2248
  978YOPC   GL214086  17.576   7.673   6.044  0.2746  0.0675  0.0950
  978YOPC   C1A14087  18.086   7.992   6.303 -0.0371  0.0528  0.0240
  978YOPC   D2A14088  18.307   8.389   6.427 -0.2670 -0.0759  0.1657
  978YOPC   C3A14089  18.707   8.509   6.337  0.0633 -0.2108 -0.0629
  978YOPC   C4A14090  19.090   8.344   6.291  0.1823  0.1169 -0.0051
  978YOPC   C1B14091  17.419   7.733   6.480  0.0516  0.0974  0.1637
  978YOPC   C2B14092  17.650   7.642   6.917 -0.0844  0.1511 -0.0415
  978YOPC   D3B14093  17.589   8.050   7.213  0.0935 -0.3202  0.0856
  978YOPC   C4B14094  17.540   8.479   7.310 -0.1298  0.0787 -0.0665
  979YOPC   NC314095   6.719   6.845   4.996 -0.2767  0.6036  0.2102
  979YOPC   PO414096   6.981   7.241   5.067  0.0526  0.0983 -0.2608
  979YOPC   GL114097   6.925   7.190   5.512 -0.1285 -0.1180  0.0239
  979YOPC   GL214098   6.891   6.818   5.497  0.0323  0.0724  0.0901
  979YOPC   C1A14099   6.793   7.154   6.032 -0.0524  0.2442  0.1052
  979YOPC   D2A14100   6.603   6.989   6.451 -0.0367  0.2805  0.1378
  979YOPC   C3A14101   6.669   6.739   6.668  0.4900 -0.0188 -0.1159
  979YOPC   C4A14102   6.525   6.446   6.820  0.0170 -0.2049  0.0473
  979YOPC   C1B14103   7.067   6.591   5.812 -0.1517 -0.0461  0.0174
  979YOPC   C2B14104   6.810   6.582   6.185 -0.5138  0.2271  0.1190
  979YOPC   D3B14105   6.328   6.429   6.272 -0.3153  0.0606 -0.0106
  979YOPC   C4B14106   5.960   6.560   6.241 -0.0342 -0.2272 -0.0221
  980YOPC   NC314107   6.310   7.015   4.593 -0.0548  0.1377  0.1007
  980YOPC   PO414108   6.234   6.814   5.035  0.4654  0.0143  0.0366
  980YOPC   GL114109   6.416   6.752   5.447  0.0460  0.0965 -0.3323
  980YOPC   GL214110   6.356   6.885   5.699 -0.2135 -0.1162  0.1556
  980YOPC   C1A14111   6.522   6.347   5.820  0.1580  0.0555 -0.0716
  980YOPC   D2A14112   6.359   6.001   5.837  0.3325 -0.3148  0.0978
  980YOPC   C3A14113   6.183   5.946   6.133 -0.0454  0.1659  0.3181
  980YOPC   C4A14114   6.170   6.016   6.514 -0.2389 -0.2005  0.0116
  980YOPC   C1B14115   6.184   7.002   6.068  0.3163 -0.1436 -0.1307
  980YOPC   C2B14116   6.090   7.003   6.542 -0.1243  0.2576 -0.1274
  980YOPC   D3B14117   6.240   6.862   6.945 -0.1262 -0.1382  0.3043
  980YOPC   C4B14118   6.124   7.005   7.442 -0.2275 -0.1560 -0.2134
  981YOPC   NC314119   3.283   9.102   5.349  0.1723 -0.2451 -0.1323
  981YOPC   PO414120   2.813   8.793   5.401 -0.4502 -0.1112  0.2662
  981YOPC   GL114121   2.716   8.664   5.784  0.0209  0.0901 -0.2318
  981YOPC   GL214122   2.886   8.413   5.708 -0.1907  0.1238 -0.1525
  981YOPC   C1A14123   2.520   8.650   6.213 -0.1617 -0.1217 -0.0662
  981YOPC   D2A14124   2.426   8.828   6.627  0.1298  0.3467  0.0595
  981YOPC   C3A14125   2.051   8.635   6.763 -0.1659  0.1397 -0.1167
  981YOPC   C4A14126   1.609   8.675   6.823 -0.1440  0.2491  0.0999
  981YOPC   C1B14127   2.551   8.234   5.910 -0.0729  0.1326 -0.2455
  981YOPC   C2B14128   2.418   8.225   6.337 -0.3692  0.2971 -0.2736
  981YOPC   D3B14129   2.040   8.366   6.392 -0.0705 -0.1157 -0.1706
  981YOPC   C4B14130   1.659   8.273   6.357 -0.0479  0.0700  0.2404
  982YOPC   NC314131  11.142  18.798   5.933  0.2735  0.1334 -0.1671
  982YOPC   PO414132  11.437  19.036   6.047 -0.1981 -0.1089 -0.1766
  982YOPC   GL114133  11.307  18.979   6.396 -0.0146 -0.0655  0.1184
  982YOPC   GL214134  11.425  18.625   6.597  0.2671 -0.0574  0.1322
  982YOPC   C1A14135  11.328  19.444   6.683  0.1418 -0.1541  0.1636
  982YOPC   D2A14136  11.328  19.818   6.844 -0.0273 -0.1907  0.0309
  982YOPC   C3A14137  11.175  19.822   7.195  0.0829 -0.3666  0.1065
  982YOPC   C4A14138  10.946  20.155   7.358 -0.1892 -0.4273 -0.1595
  982YOPC   C1B14139  11.289  19.024   6.912  0.1696 -0.0371 -0.0047
  982YOPC   C2B14140  11.319  19.241   7.230  0.3917  0.3990  0.0009
  982YOPC   D3B14141  11.099  18.978   7.595  0.0023 -0.0093  0.3869
  982YOPC   C4B14142  10.863  18.682   7.902 -0.1026 -0.0261 -0.2312
  983YOPC   NC314143   5.396  10.699   5.282  0.0289 -0.1295 -0.1429
  983YOPC   PO414144   5.594  10.675   5.594  0.3051 -0.0128 -0.1792
  983YOPC   GL114145   5.732  10.555   5.995 -0.0295  0.0090 -0.4589
  983YOPC   GL214146   5.839  10.807   6.109 -0.1388  0.0929 -0.0219
  983YOPC   C1A14147   5.879  10.215   6.273 -0.1378 -0.1474  0.1894
  983YOPC   D2A14148   6.081   9.846   6.558 -0.3358 -0.1671 -0.2077
  983YOPC   C3A14149   6.082   9.628   6.944  0.0881  0.2374 -0.0096
  983YOPC   C4A14150   6.139   9.526   7.380 -0.1713  0.4797 -0.2043
  983YOPC   C1B14151   6.069  10.642   6.481 -0.0685 -0.0764  0.2636
  983YOPC   C2B14152   6.284  10.339   6.747  0.1534  0.3191  0.0263
  983YOPC   D3B14153   6.130  10.242   7.202 -0.0388 -0.2291 -0.0637
  983YOPC   C4B14154   6.230   9.968   7.495 -0.0932  0.4961 -0.0321
  984YOPC   NC314155   7.666  16.579   5.859 -0.3152  0.0888 -0.1262
  984YOPC   PO414156   7.934  16.361   5.620 -0.2555 -0.2858  0.0073
  984YOPC   GL114157   8.032  16.221   6.033  0.0722 -0.0190  0.1237
  984YOPC   GL214158   7.810  15.944   6.191 -0.2035  0.2372 -0.1567
  984YOPC   C1A14159   8.065  16.572   6.382  0.2036 -0.2817  0.0174
  984YOPC   D2A14160   8.385  16.854   6.377 -0.0923 -0.0206  0.2369
  984YOPC   C3A14161   8.459  16.986   6.768  0.1541 -0.0255 -0.0255
  984YOPC   C4A14162   8.654  16.882   7.113 -0.0813  0.0979 -0.1281
  984YOPC   C1B14163   7.562  15.553   6.431  0.0287 -0.1892  0.0314
  984YOPC   C2B14164   7.370  15.238   6.323  0.0356 -0.3523  0.1766
  984YOPC   D3B14165   6.860  15.361   6.296  0.1214  0.1044 -0.1698
  984YOPC   C4B14166   6.504  15.251   6.505  0.1471  0.0372  0.4379
  985YOPC   NC314167  12.141   4.707   5.186  0.0360 -0.1727 -0.2576
  985YOPC   PO414168  12.089   4.386   5.518  0.2641  0.0151 -0.0739
  985YOPC   GL114169  12.102   4.410   5.963 -0.4042  0.1756  0.0640
  985YOPC   GL214170  12.025   4.570   6.215  0.0974 -0.0022 -0.0293
  985YOPC   C1A14171  12.433   4.235   6.344  0.2698 -0.1395 -0.0322
  985YOPC   D2A14172  12.771   4.177   6.673  0.4997  0.0447  0.1399
  985YOPC   C3A14173  12.807   4.336   7.084 -0.2367 -0.1641 -0.0691
  985YOPC   C4A14174  12.852   4.482   7.491 -0.2807  0.0808 -0.0941
  985YOPC   C1B14175  11.619   4.547   6.577  0.0279 -0.1265  0.2286
  985YOPC   C2B14176  11.373   4.370   6.891  0.0445  0.2972  0.0535
  985YOPC   D3B14177  11.381   4.180   7.301  0.0114  0.1091  0.0124
  985YOPC   C4B14178  11.422   4.249   7.860  0.2815  0.1726 -0.1968
  986YOPC   NC314179  14.538  14.931   5.895  0.6104 -0.1984  0.3125
  986YOPC   PO414180  14.663  15.321   5.971 -0.0187 -0.1815  0.0963
  986YOPC   GL114181  14.404  15.465   6.385  0.0541  0.0742  0.3783
  986YOPC   GL214182  14.275  15.801   6.359  0.2143 -0.0232  0.0119
  986YOPC   C1A14183  14.142  15.171   6.629 -0.1469 -0.1970 -0.0517
  986YOPC   D2A14184  14.202  15.140   7.035  0.1696  0.2159  0.1103
  986YOPC   C3A14185  14.414  15.040   7.303  0.0574 -0.2293 -0.0218
  986YOPC   C4A14186  14.426  15.149   7.707  0.1141  0.0678  0.0367
  986YOPC   C1B14187  14.506  16.036   6.719 -0.1587 -0.0232  0.1511
  986YOPC   C2B14188  14.675  15.985   7.097 -0.0456 -0.1819 -0.2759
  986YOPC   D3B14189  15.017  15.796   7.010 -0.2386  0.0257 -0.2580
  986YOPC   C4B14190  15.469  15.800   6.892  0.0556 -0.0698 -0.0830
  987YOPC   NC314191  15.297  11.690   4.955 -0.2184  0.3071 -0.0286
  987YOPC   PO414192  15.421  11.672   5.488 -0.2938  0.2881  0.0926
  987YOPC   GL114193  15.206  11.883   5.892 -0.0124  0.1156  0.2081
  987YOPC   GL214194  15.327  11.535   6.033 -0.0269  0.0096  0.0344
  987YOPC   C1A14195  15.069  12.011   6.314 -0.1515 -0.2807 -0.2829
  987YOPC   D2A14196  14.905  11.899   6.708 -0.1854 -0.0356  0.1136
  987YOPC   C3A14197  14.607  11.894   6.994 -0.1103  0.2029  0.0230
  987YOPC   C4A14198  14.228  11.763   7.127 -0.1994  0.4149  0.0063
  987YOPC   C1B14199  15.368  11.682   6.406  0.1052  0.0166  0.1566
  987YOPC   C2B14200  15.379  11.657   6.793 -0.0078 -0.0630  0.0773
  987YOPC   D3B14201  15.121  11.765   7.133  0.1685  0.1122  0.0156
  987YOPC   C4B14202  14.902  11.904   7.395 -0.1319 -0.2255 -0.0890
  988YOPC   NC314203  17.399   2.457   5.707  0.1894 -0.0010  0.5389
  988YOPC   PO414204  17.542   2.039   5.805  0.1687 -0.4732  0.2246
  988YOPC   GL114205  17.810   2.294   6.091  0.1848  0.2607 -0.1319
  988YOPC   GL214206  17.580   2.506   6.134 -0.2580 -0.2332 -0.2042
  988YOPC   C1A14207  18.092   2.479   6.404  0.2697 -0.1230 -0.2650
  988YOPC   D2A14208  18.196   2.469   6.877  0.2030  0.0710 -0.0025
  988YOPC   C3A14209  18.087   2.214   7.264  0.2956 -0.0165  0.1179
  988YOPC   C4A14210  18.189   2.116   7.682 -0.1453 -0.2584 -0.0206
  988YOPC   C1B14211  17.650   2.673   6.577 -0.1667 -0.2710 -0.0174
  988YOPC   C2B14212  17.870   2.781   7.038 -0.1453 -0.0972  0.3225
  988YOPC   D3B14213  17.808   3.235   7.114  0.0965 -0.2430  0.0247
  988YOPC   C4B14214  17.642   3.601   7.079 -0.1240 -0.0601  0.2070
  989YOPC   NC314215  15.757  15.329   6.074  0.0221 -0.0912  0.2507
  989YOPC   PO414216  15.665  14.943   6.015  0.3063  0.0021 -0.3977
  989YOPC   GL114217  15.438  14.816   6.296  0.2218 -0.0302 -0.0210
  989YOPC   GL214218  15.437  15.168   6.435  0.2708  0.3103 -0.0670
  989YOPC   C1A14219  15.309  14.752   6.770  0.0687 -0.0742  0.1420
  989YOPC   D2A14220  15.208  14.448   6.994  0.0469  0.1332 -0.1541
  989YOPC   C3A14221  15.456  14.163   6.733 -0.2290  0.0600 -0.0553
  989YOPC   C4A14222  15.793  13.924   6.594  0.0311  0.2165 -0.0178
  989YOPC   C1B14223  15.432  15.268   6.817 -0.0888 -0.3951  0.0280
  989YOPC   C2B14224  15.711  15.441   7.166 -0.0353  0.1153  0.0782
  989YOPC   D3B14225  15.335  15.481   7.324 -0.0032 -0.0253  0.0431
  989YOPC   C4B14226  14.947  15.349   7.506 -0.0893 -0.1587  0.1781
  990YOPC   NC314227   1.016   2.154   5.066 -0.0102  0.1365 -0.3044
  990YOPC   PO414228   0.640   2.209   5.305  0.2636 -0.0529 -0.0530
  990YOPC   GL114229   0.754   2.360   5.688 -0.1922  0.3046  0.1731
  990YOPC   GL214230   0.510   2.480   5.906 -0.2914 -0.1824  0.1707
  990YOPC   C1A14231   0.898   2.212   6.108 -0.1031  0.0625  0.0567
  990YOPC   D2A14232   1.247   2.027   6.330 -0.1824 -0.2585 -0.0214
  990YOPC   C3A14233   1.585   1.982   6.293  0.1711 -0.0643  0.2011
  990YOPC   C4A14234   1.987   2.165   6.400  0.0061 -0.1887 -0.0748
  990YOPC   C1B14235   0.247   2.569   6.264  0.1462  0.0249  0.0317
  990YOPC   C2B14236   0.072   2.371   6.708  0.2345  0.0249  0.1276
  990YOPC   D3B14237  -0.175   2.638   7.023 -0.1400  0.1472  0.2328
  990YOPC   C4B14238  -0.070   2.815   7.402  0.2879 -0.2299 -0.1553
  991YOPC   NC314239  15.500   4.999   5.323 -0.1560 -0.1637 -0.0061
  991YOPC   PO414240  15.867   4.838   5.143  0.1655  0.3585  0.0439
  991YOPC   GL114241  15.891   4.731   5.574 -0.0493 -0.2299 -0.2237
  991YOPC   GL214242  16.038   4.399   5.629 -0.0986  0.0101  0.2832
  991YOPC   C1A14243  15.811   4.664   6.049 -0.0340  0.0369  0.0466
  991YOPC   D2A14244  15.497   4.939   6.302 -0.0616  0.0923 -0.1358
  991YOPC   C3A14245  15.362   4.714   6.744  0.2952  0.1831 -0.1350
  991YOPC   C4A14246  15.100   4.845   7.114  0.0361 -0.1401  0.0551
  991YOPC   C1B14247  16.054   4.247   6.175  0.3138  0.1211 -0.1527
  991YOPC   C2B14248  15.916   4.110   6.574 -0.3331  0.0446 -0.2323
  991YOPC   D3B14249  15.988   3.816   6.846 -0.1706 -0.3911 -0.1020
  991YOPC   C4B14250  15.748   3.586   7.171 -0.3239 -0.0521  0.1476
  992YOPC   NC314251   9.056  15.407   5.616  0.0472  0.0487  0.0245
  992YOPC   PO414252   8.825  15.064   6.039 -0.1518  0.3139 -0.0771
  992YOPC   GL114253   8.675  14.822   6.430  0.0984 -0.4973 -0.3992
  992YOPC   GL214254   8.350  14.799   6.402 -0.0168  0.0767  0.5254
  992YOPC   C1A14255   8.580  14.542   6.764 -0.0606  0.0008 -0.0146
  992YOPC   D2A14256   8.343  14.580   7.142  0.1873 -0.2837  0.2601
  992YOPC   C3A14257   8.446  14.470   7.539 -0.0687 -0.2940 -0.1383
  992YOPC   C4A14258   8.765  14.308   7.719 -0.0978 -0.0878 -0.1330
  992YOPC   C1B14259   8.299  14.987   6.849  0.0814  0.2016  0.1842
  992YOPC   C2B14260   8.159  15.045   7.282 -0.1634  0.0299  0.1316
  992YOPC   D3B14261   8.046  15.423   7.496 -0.1557  0.2014  0.2499
  992YOPC   C4B14262   7.743  15.632   7.736 -0.0504  0.0483  0.1052
  993YOPC   NC314263  18.341  14.895   5.853 -0.0316  0.0370  0.1626
  993YOPC   PO414264  18.633  14.566   5.823 -0.1715  0.2680 -0.2658
  993YOPC   GL114265  18.448  14.565   6.205 -0.0606 -0.1601  0.2904
  993YOPC   GL214266  18.292  14.559   6.235  0.2425 -0.0142  0.3928
  993YOPC   C1A14267  18.556  14.705   6.607  0.0320 -0.2244  0.2680
  993YOPC   D2A14268  18.414  14.784   6.949 -0.0050  0.1556 -0.0402
  993YOPC   C3A14269  18.189  15.043   7.193 -0.0132 -0.0364  0.0131
  993YOPC   C4A14270  17.876  15.104   6.914  0.1483  0.2594 -0.1860
  993YOPC   C1B14271  18.031  14.640   6.642 -0.0083 -0.0350  0.2513
  993YOPC   C2B14272  17.970  14.597   6.939  0.3232  0.1208 -0.0226
  993YOPC   D3B14273  18.166  14.564   7.306 -0.2017  0.2018  0.2973
  993YOPC   C4B14274  18.450  14.263   7.656  0.1374  0.1791 -0.2332
  994YOPC   NC314275  13.071  11.285   4.948 -0.3137 -0.0956  0.2092
  994YOPC   PO414276  13.158  11.504   5.269  0.0069  0.3167 -0.0934
  994YOPC   GL114277  13.091  11.339   5.674 -0.1359 -0.0110  0.0382
  994YOPC   GL214278  13.169  10.949   5.767 -0.1781  0.0182  0.0642
  994YOPC   C1A14279  13.068  11.398   6.128 -0.0839 -0.2294 -0.0481
  994YOPC   D2A14280  13.091  11.307   6.594 -0.2219  0.1325 -0.2401
  994YOPC   C3A14281  13.305  11.611   6.900 -0.0438 -0.1523  0.1652
  994YOPC   C4A14282  13.573  11.672   7.343  0.3603  0.0507 -0.0269
  994YOPC   C1B14283  13.513  11.076   5.978 -0.1877 -0.1581 -0.0342
  994YOPC   C2B14284  13.643  11.211   6.388  0.1835  0.2308  0.0480
  994YOPC   D3B14285  13.675  11.229   6.884  0.0157  0.0832  0.1182
  994YOPC   C4B14286  13.664  11.171   7.345  0.0425  0.1517 -0.2283
  995YOPC   NC314287   5.827  13.373   5.116 -0.2181  0.0052 -0.3459
  995YOPC   PO414288   5.650  13.202   5.366 -0.3272 -0.2027  0.0245
  995YOPC   GL114289   5.775  12.956   5.668  0.1009  0.1759 -0.0281
  995YOPC   GL214290   5.634  12.691   5.746  0.0511 -0.1658  0.2689
  995YOPC   C1A14291   5.864  13.000   6.183 -0.2970  0.2962  0.0597
  995YOPC   D2A14292   5.993  12.681   6.481  0.2597 -0.1861 -0.2669
  995YOPC   C3A14293   6.303  12.746   6.848 -0.4691 -0.0420 -0.1863
  995YOPC   C4A14294   6.258  12.639   7.326 -0.1798 -0.0135 -0.2096
  995YOPC   C1B14295   5.616  12.431   6.087 -0.0619  0.0746  0.1533
  995YOPC   C2B14296   5.593  12.340   6.530 -0.0249 -0.1622 -0.3380
  995YOPC   D3B14297   5.651  11.954   6.791 -0.1853 -0.1536  0.0243
  995YOPC   C4B14298   5.693  11.958   7.219 -0.2134 -0.2475  0.1362
  996YOPC   NC314299   5.410   2.664   5.577  0.0108  0.2556  0.0506
  996YOPC   PO414300   5.812   2.514   5.648  0.2226 -0.2863 -0.0491
  996YOPC   GL114301   5.802   2.530   6.078  0.1384  0.2002 -0.3274
  996YOPC   GL214302   5.540   2.561   6.116  0.2057  0.0606 -0.0782
  996YOPC   C1A14303   5.990   2.595   6.468  0.1788 -0.1951 -0.0893
  996YOPC   D2A14304   6.147   2.539   6.867 -0.1370 -0.1340  0.0545
  996YOPC   C3A14305   6.115   2.174   7.004  0.1937  0.1005  0.1817
  996YOPC   C4A14306   6.297   1.868   7.329  0.3512 -0.0298  0.0110
  996YOPC   C1B14307   5.551   2.337   6.470 -0.1689 -0.0881 -0.3140
  996YOPC   C2B14308   5.629   2.298   6.959  0.0339  0.1122  0.1396
  996YOPC   D3B14309   5.815   2.622   7.222 -0.1061 -0.1335 -0.2029
  996YOPC   C4B14310   5.719   2.970   7.372 -0.0862  0.0624  0.1833
  997YOPC   NC314311   9.017  17.766   5.626  0.1988 -0.2656 -0.3174
  997YOPC   PO414312   8.747  18.137   5.726  0.1295 -0.4190 -0.1827
  997YOPC   GL114313   8.828  18.293   6.127  0.1948  0.1115 -0.0612
  997YOPC   GL214314   8.454  18.369   6.211  0.2296 -0.2165 -0.2204
  997YOPC   C1A14315   8.902  18.666   6.325  0.0142 -0.0350 -0.1882
  997YOPC   D2A14316   8.728  18.882   6.770  0.2763  0.0655 -0.1252
  997YOPC   C3A14317   9.020  18.864   7.190  0.0242  0.2089 -0.1332
  997YOPC   C4A14318   9.321  18.931   7.590 -0.1097  0.0334  0.2758
  997YOPC   C1B14319   8.582  18.342   6.625 -0.1344 -0.0316  0.0818
  997YOPC   C2B14320   8.709  18.426   7.055 -0.0621  0.1506 -0.0049
  997YOPC   D3B14321   8.634  18.125   7.417 -0.1352  0.1124 -0.0201
  997YOPC   C4B14322   8.473  17.770   7.744 -0.5243 -0.1067 -0.2458
  998YOPC   NC314323  15.811  16.505   5.543  0.2568  0.1152  0.4255
  998YOPC   PO414324  16.166  16.570   5.715 -0.2126  0.3621  0.2705
  998YOPC   GL114325  16.274  16.454   6.198  0.1142 -0.6099 -0.0625
  998YOPC   GL214326  16.333  16.185   6.283  0.4553  0.0820  0.0218
  998YOPC   C1A14327  15.986  16.524   6.586  0.0992  0.2465 -0.0890
  998YOPC   D2A14328  15.829  16.577   7.081  0.0717  0.1253  0.0210
  998YOPC   C3A14329  15.561  16.274   7.169  0.4340  0.2002 -0.3023
  998YOPC   C4A14330  15.482  15.991   7.440  0.0097  0.0618 -0.0864
  998YOPC   C1B14331  16.430  16.430   6.713  0.1671 -0.3774  0.0317
  998YOPC   C2B14332  16.289  16.428   7.157  0.2256 -0.1001  0.3502
  998YOPC   D3B14333  15.987  16.255   7.434  0.0538  0.2030  0.4819
  998YOPC   C4B14334  15.894  16.069   7.859 -0.0290  0.0060 -0.3632
  999YOPC   NC314335  14.397   8.429   5.287 -0.0237  0.1583  0.0385
  999YOPC   PO414336  14.779   8.575   5.318  0.1236  0.2407  0.0753
  999YOPC   GL114337  14.766   8.879   5.643  0.1379  0.0819 -0.2211
  999YOPC   GL214338  14.511   8.955   5.799  0.1024  0.0560  0.1259
  999YOPC   C1A14339  14.938   9.075   6.062  0.1466 -0.0180 -0.1551
  999YOPC   D2A14340  15.216   9.321   6.248  0.1157  0.0280 -0.0325
  999YOPC   C3A14341  15.643   9.148   6.271 -0.4168  0.0132  0.1108
  999YOPC   C4A14342  15.927   9.157   6.543  0.1090  0.0909 -0.1566
  999YOPC   C1B14343  14.289   8.783   6.113 -0.2612  0.1300  0.0107
  999YOPC   C2B14344  14.258   8.568   6.526  0.2152  0.3953  0.0267
  999YOPC   D3B14345  14.205   8.622   6.976  0.3342 -0.1824 -0.1384
  999YOPC   C4B14346  14.511   8.632   7.244  0.0062 -0.2507 -0.2319
 1000YOPC   NC314347   5.866  15.783   5.036  0.1682  0.0223  0.3714
 1000YOPC   PO414348   5.737  16.061   5.370  0.0464 -0.0063  0.3718
 1000YOPC   GL114349   5.980  16.336   5.691  0.0924 -0.1705 -0.1332
 1000YOPC   GL214350   5.739  16.530   5.856 -0.3655  0.2930  0.0304
 1000YOPC   C1A14351   6.208  16.463   6.100  0.0135  0.2339 -0.0134
 1000YOPC   D2A14352   6.585  16.607   6.408  0.2767 -0.2345  0.1104
 1000YOPC   C3A14353   6.853  16.919   6.662 -0.2841  0.0288  0.0082
 1000YOPC   C4A14354   7.309  16.929   6.673 -0.0578 -0.2176  0.3505
 1000YOPC   C1B14355   5.725  16.632   6.288  0.2628 -0.2069  0.2483
 1000YOPC   C2B14356   6.064  16.715   6.499 -0.1582 -0.1787 -0.0624
 1000YOPC   D3B14357   6.150  16.619   6.930 -0.1521 -0.0504  0.0290
 1000YOPC   C4B14358   6.373  16.462   7.293  0.1241 -0.0588  0.0986
 1001YOPC   NC314359   6.847  16.092   5.611 -0.0793  0.0099 -0.1451
 1001YOPC   PO414360   7.092  16.423   5.720  0.1969  0.0836  0.2029
 1001YOPC   GL114361   7.299  16.460   6.156  0.0349 -0.2732 -0.2824
 1001YOPC   GL214362   7.512  16.274   6.287 -0.1338  0.0805 -0.2214
 1001YOPC   C1A14363   7.163  16.429   6.583  0.0833 -0.2341 -0.2038
 1001YOPC   D2A14364   7.179  16.423   7.016 -0.2410  0.1873 -0.1070
 1001YOPC   C3A14365   7.491  16.125   7.169  0.3606  0.2218 -0.0863
 1001YOPC   C4A14366   7.633  15.712   7.235 -0.4156  0.2351  0.0553
 1001YOPC   C1B14367   7.630  16.419   6.678 -0.0499  0.2576  0.0443
 1001YOPC   C2B14368   7.564  16.727   7.085 -0.0311 -0.1787 -0.1837
 1001YOPC   D3B14369   7.177  16.971   7.140  0.0677  0.1909  0.0485
 1001YOPC   C4B14370   7.051  17.273   7.550 -0.0802  0.0637  0.1588
 1002YOPC   NC314371  11.183  12.393   5.860 -0.1087 -0.0153  0.0138
 1002YOPC   PO414372  11.279  12.813   5.987 -0.3956  0.1516  0.1000
 1002YOPC   GL114373  10.972  12.659   6.374  0.1596  0.1006  0.0223
 1002YOPC   GL214374  10.837  12.505   6.174  0.0412 -0.4618 -0.0662
 1002YOPC   C1A14375  10.873  12.732   6.746  0.1827  0.0816  0.2322
 1002YOPC   D2A14376  10.809  12.550   7.089  0.1758 -0.1374 -0.1445
 1002YOPC   C3A14377  10.648  12.106   7.292 -0.0965 -0.1699  0.0875
 1002YOPC   C4A14378  10.382  11.835   7.368 -0.1243 -0.1540  0.0437
 1002YOPC   C1B14379  10.706  12.218   6.499 -0.3825  0.1325 -0.0449
 1002YOPC   C2B14380  10.457  12.299   6.891 -0.0729 -0.1851  0.2320
 1002YOPC   D3B14381  10.122  12.346   6.698  0.2098  0.1120 -0.2384
 1002YOPC   C4B14382   9.857  12.290   6.379 -0.1794 -0.1728 -0.0421
 1003YOPC   NC314383   8.508   4.668   5.474 -0.0214  0.1194 -0.0543
 1003YOPC   PO414384   8.216   4.864   5.614 -0.3306  0.0337  0.0451
 1003YOPC   GL114385   8.151   4.847   6.027 -0.0909  0.2451 -0.0347
 1003YOPC   GL214386   8.135   5.075   6.322 -0.0434 -0.3444  0.3319
 1003YOPC   C1A14387   8.332   4.608   6.361  0.0429 -0.1047  0.1724
 1003YOPC   D2A14388   8.430   4.708   6.787 -0.1262  0.0503 -0.1473
 1003YOPC   C3A14389   8.651   4.725   6.981  0.1441  0.0847  0.0806
 1003YOPC   C4A14390   8.914   4.486   7.146  0.0185 -0.0161  0.1361
 1003YOPC   C1B14391   8.003   4.897   6.662 -0.0547 -0.2635 -0.1452
 1003YOPC   C2B14392   7.987   4.703   7.131 -0.3116  0.1278  0.0480
 1003YOPC   D3B14393   7.820   4.852   7.465 -0.1292 -0.0625 -0.0374
 1003YOPC   C4B14394   7.517   5.121   7.386 -0.1900  0.0678 -0.0816
 1004YOPC   NC314395   0.205  17.192   5.466 -0.0254 -0.0144  0.1064
 1004YOPC   PO414396   0.082  17.546   5.681 -0.2062 -0.0203  0.0971
 1004YOPC   GL114397   0.233  17.425   6.076 -0.2313  0.1857 -0.2965
 1004YOPC   GL214398   0.295  17.735   6.125 -0.3165  0.2245 -0.0553
 1004YOPC   C1A14399   0.526  17.347   6.515  0.0256  0.0178  0.3631
 1004YOPC   D2A14400   0.923  17.269   6.539  0.1410  0.1193 -0.0668
 1004YOPC   C3A14401   0.972  17.139   7.013 -0.1140 -0.1257  0.0745
 1004YOPC   C4A14402   1.225  17.291   7.237 -0.0169 -0.1779 -0.2841
 1004YOPC   C1B14403   0.429  17.830   6.563  0.0137 -0.1112 -0.0059
 1004YOPC   C2B14404   0.500  17.940   6.963  0.1108  0.0562  0.1991
 1004YOPC   D3B14405   0.754  17.902   7.254 -0.0832 -0.2150  0.0296
 1004YOPC   C4B14406   0.973  17.693   7.530  0.0619 -0.0724 -0.1738
 1005YOPC   NC314407   7.063  17.848   5.626 -0.2163  0.0802 -0.0329
 1005YOPC   PO414408   6.789  17.542   5.601 -0.1988 -0.0034 -0.0105
 1005YOPC   GL114409   6.874  17.626   6.067 -0.0843 -0.2932  0.0706
 1005YOPC   GL214410   7.204  17.752   6.138  0.0718  0.3843  0.0539
 1005YOPC   C1A14411   6.859  17.478   6.572 -0.2023  0.0075  0.0213
 1005YOPC   D2A14412   6.740  17.321   6.968  0.0447 -0.0990  0.0308
 1005YOPC   C3A14413   6.820  17.641   7.349  0.3146  0.3488  0.1255
 1005YOPC   C4A14414   7.148  17.847   7.639  0.2847 -0.2327  0.0160
 1005YOPC   C1B14415   7.216  17.810   6.510 -0.0874 -0.0390 -0.1598
 1005YOPC   C2B14416   7.124  17.784   6.947  0.1456 -0.2782 -0.0094
 1005YOPC   D3B14417   7.263  18.003   7.185 -0.1472 -0.1058 -0.0651
 1005YOPC   C4B14418   7.345  18.432   7.304  0.2561  0.0187  0.1379
 1006YOPC   NC314419  16.566  10.508   5.380 -0.1003  0.0256  0.0982
 1006YOPC   PO414420  16.180  10.455   5.537  0.3030  0.2064 -0.1199
 1006YOPC   GL114421  15.995  10.482   5.938 -0.0308  0.2292 -0.0344
 1006YOPC   GL214422  15.873  10.841   5.915  0.0110 -0.1365 -0.1964
 1006YOPC   C1A14423  15.623  10.368   6.084  0.0345 -0.1494  0.0593
 1006YOPC   D2A14424  15.317  10.580   6.286  0.2514  0.0535  0.0401
 1006YOPC   C3A14425  15.020  10.335   6.548 -0.3482 -0.0786 -0.1853
 1006YOPC   C4A14426  14.935  10.392   6.995  0.0850 -0.0890  0.1115
 1006YOPC   C1B14427  15.792  10.790   6.322 -0.0088  0.0663 -0.0350
 1006YOPC   C2B14428  15.813  10.811   6.685 -0.0058  0.0100 -0.3229
 1006YOPC   D3B14429  15.693  11.114   6.954  0.1597 -0.0091 -0.2554
 1006YOPC   C4B14430  15.672  11.594   7.195  0.0389 -0.1516 -0.1533
 1007YOPC   NC314431   9.017   7.329   5.735 -0.0749  0.2302  0.2739
 1007YOPC   PO414432   9.288   7.654   5.907 -0.0815 -0.2899 -0.2777
 1007YOPC   GL114433   9.354   7.425   6.196 -0.3273  0.0504 -0.2767
 1007YOPC   GL214434   9.393   7.114   6.349  0.1413  0.3819  0.2140
 1007YOPC   C1A14435   9.295   7.611   6.639 -0.2961  0.0333 -0.1803
 1007YOPC   D2A14436   9.351   7.529   7.044 -0.1264  0.2178 -0.0587
 1007YOPC   C3A14437   9.620   7.752   7.394  0.2845 -0.1506  0.2569
 1007YOPC   C4A14438   9.697   7.861   7.770 -0.0743 -0.0287 -0.1482
 1007YOPC   C1B14439   9.273   7.011   6.825 -0.0367 -0.0409 -0.0112
 1007YOPC   C2B14440   9.431   7.033   7.224 -0.2195 -0.1166  0.3168
 1007YOPC   D3B14441   9.447   6.621   7.585  0.0923 -0.0069  0.0607
 1007YOPC   C4B14442   9.374   6.258   7.924 -0.1328 -0.0214  0.2198
 1008YOPC   NC314443   2.457  15.727   5.448 -0.1449  0.0178  0.1635
 1008YOPC   PO414444   2.075  15.560   5.296 -0.0800  0.0702  0.1918
 1008YOPC   GL114445   2.025  15.511   5.747  0.3976 -0.0019 -0.0363
 1008YOPC   GL214446   2.321  15.370   5.784  0.2144 -0.2441  0.0508
 1008YOPC   C1A14447   1.881  15.719   6.062  0.1766 -0.2165 -0.0663
 1008YOPC   D2A14448   1.737  15.887   6.430 -0.2618  0.1807  0.1799
 1008YOPC   C3A14449   2.009  15.730   6.729  0.2003  0.2022 -0.0612
 1008YOPC   C4A14450   2.209  15.889   7.127 -0.1415 -0.1026  0.0398
 1008YOPC   C1B14451   2.249  15.350   6.208  0.1691  0.2360 -0.4046
 1008YOPC   C2B14452   2.321  15.433   6.585 -0.1367  0.0548 -0.0339
 1008YOPC   D3B14453   2.049  15.271   6.922 -0.2153  0.0073 -0.0919
 1008YOPC   C4B14454   1.562  15.158   6.968  0.3330  0.1635 -0.1330
 1009YOPC   NC314455   1.738   7.509   5.164  0.1111  0.0763  0.3155
 1009YOPC   PO414456   1.441   7.728   5.338 -0.1037 -0.1369 -0.4148
 1009YOPC   GL114457   1.389   7.847   5.698 -0.0176 -0.1503  0.1055
 1009YOPC   GL214458   1.179   7.897   5.823  0.3104  0.3106  0.2196
 1009YOPC   C1A14459   1.662   7.762   6.003  0.4241  0.1233 -0.2694
 1009YOPC   D2A14460   1.948   7.820   6.259  0.1023  0.1030  0.1220
 1009YOPC   C3A14461   1.813   7.814   6.653 -0.0824 -0.1079  0.1782
 1009YOPC   C4A14462   2.095   7.833   7.099 -0.0323 -0.0446  0.0796
 1009YOPC   C1B14463   1.291   7.905   6.242  0.0660 -0.1612  0.1701
 1009YOPC   C2B14464   1.300   7.962   6.705 -0.1270 -0.2518  0.0344
 1009YOPC   D3B14465   1.189   7.778   7.216  0.2754 -0.0553  0.0538
 1009YOPC   C4B14466   0.995   7.668   7.501  0.2257 -0.0295 -0.2880
 1010YOPC   NC314467  17.168  18.643   5.567  0.3047  0.1949  0.3446
 1010YOPC   PO414468  16.977  18.301   5.598 -0.1174  0.0222  0.3351
 1010YOPC   GL114469  16.619  18.413   6.006 -0.0895 -0.3397  0.0779
 1010YOPC   GL214470  16.410  18.711   6.064  0.1555  0.1461 -0.1481
 1010YOPC   C1A14471  16.353  18.255   6.293  0.2634 -0.0015 -0.0166
 1010YOPC   D2A14472  16.173  18.217   6.769 -0.5322 -0.1068  0.0081
 1010YOPC   C3A14473  16.218  18.279   7.239  0.0564 -0.0773  0.3131
 1010YOPC   C4A14474  16.169  18.334   7.728 -0.0599 -0.0476  0.0904
 1010YOPC   C1B14475  16.280  18.712   6.557 -0.2212 -0.1116  0.0180
 1010YOPC   C2B14476  16.284  18.783   6.965 -0.5726  0.2534  0.0687
 1010YOPC   D3B14477  16.215  19.109   7.207  0.1707  0.0728  0.1379
 1010YOPC   C4B14478  16.126  19.312   7.492 -0.0375 -0.2918  0.0883
 1011YOPC   NC314479  18.743   9.419   5.438 -0.0642 -0.0261  0.1687
 1011YOPC   PO414480  18.846   8.923   5.353  0.0998  0.0892  0.0414
 1011YOPC   GL114481  19.106   8.935   5.746 -0.1206  0.1459  0.2587
 1011YOPC   GL214482  18.931   9.150   5.848  0.1437 -0.2350  0.0388
 1011YOPC   C1A14483  19.047   8.887   6.260  0.0376 -0.3323 -0.2248
 1011YOPC   D2A14484  19.144   8.649   6.692  0.1369  0.2538  0.1590
 1011YOPC   C3A14485  19.348   8.230   6.778 -0.0507  0.0627 -0.2410
 1011YOPC   C4A14486  19.619   8.002   7.113 -0.1273 -0.0851  0.0591
 1011YOPC   C1B14487  19.304   9.310   6.155 -0.0155  0.2910 -0.0213
 1011YOPC   C2B14488  19.689   9.309   6.358 -0.0506 -0.0192 -0.1063
 1011YOPC   D3B14489  19.794   9.496   6.060  0.2699  0.2671 -0.0974
 1011YOPC   C4B14490  19.620   9.184   5.779 -0.5444 -0.0630  0.4994
 1012YOPC   NC314491  14.001   0.149   6.101 -0.1372  0.0456  0.1373
 1012YOPC   PO414492  14.196  -0.342   5.923  0.0392  0.1757 -0.1882
 1012YOPC   GL114493  14.513  -0.166   6.351  0.0752 -0.1046  0.2592
 1012YOPC   GL214494  14.355  -0.166   6.732 -0.1062 -0.1120  0.1548
 1012YOPC   C1A14495  14.787  -0.347   6.542  0.2255  0.0938 -0.0198
 1012YOPC   D2A14496  14.867  -0.644   6.858  0.0034  0.1126 -0.0941
 1012YOPC   C3A14497  14.383  -0.725   6.990 -0.2196  0.1102  0.0902
 1012YOPC   C4A14498  14.097  -0.827   7.197  0.3739 -0.2406  0.0553
 1012YOPC   C1B14499  14.052   0.078   6.890  0.1814  0.1820  0.1534
 1012YOPC   C2B14500  13.944   0.138   7.263  0.0859 -0.1979 -0.0012
 1012YOPC   D3B14501  13.601  -0.035   7.621  0.2414 -0.1035  0.1657
 1012YOPC   C4B14502  13.634  -0.084   8.022  0.4045 -0.1548 -0.1828
 1013YOPC   NC314503   0.491  10.123   5.515 -0.0454  0.3071 -0.0998
 1013YOPC   PO414504   0.843  10.290   5.425  0.0485  0.2514 -0.3426
 1013YOPC   GL114505   0.919  10.265   5.815 -0.1967  0.0177  0.4242
 1013YOPC   GL214506   1.183  10.147   5.904 -0.3983  0.1478 -0.2739
 1013YOPC   C1A14507   0.751  10.301   6.308  0.1987 -0.1240  0.1179
 1013YOPC   D2A14508   0.806  10.218   6.727 -0.1348  0.2078 -0.1111
 1013YOPC   C3A14509   0.831   9.852   7.009  0.1746 -0.1502  0.1603
 1013YOPC   C4A14510   0.985   9.465   6.831  0.0038 -0.0756 -0.1951
 1013YOPC   C1B14511   1.339   9.756   6.003 -0.3318 -0.1620 -0.1543
 1013YOPC   C2B14512   1.357   9.270   5.894 -0.1820  0.2982 -0.0942
 1013YOPC   D3B14513   1.253   9.014   6.262 -0.2526  0.1904  0.0573
 1013YOPC   C4B14514   1.217   8.950   6.677  0.3981 -0.2012  0.1753
 1014YOPC   NC314515  17.239  17.851   5.380  0.1480 -0.2491  0.0075
 1014YOPC   PO414516  17.485  17.899   5.766 -0.1293  0.3172  0.0517
 1014YOPC   GL114517  17.387  17.905   6.162  0.2350 -0.2565 -0.3925
 1014YOPC   GL214518  16.973  17.986   6.108 -0.1486  0.0855  0.2207
 1014YOPC   C1A14519  17.157  17.658   6.564 -0.2230 -0.2629  0.2653
 1014YOPC   D2A14520  16.978  17.953   6.784 -0.1597  0.0518  0.1154
 1014YOPC   C3A14521  16.580  17.889   6.829 -0.0075 -0.0956 -0.2138
 1014YOPC   C4A14522  16.431  17.828   7.201  0.2557 -0.1737 -0.0592
 1014YOPC   C1B14523  16.796  18.200   6.405 -0.2287 -0.1492 -0.2804
 1014YOPC   C2B14524  16.642  18.419   6.775  0.0414  0.0653 -0.1912
 1014YOPC   D3B14525  16.744  18.287   7.192  0.3216  0.1223 -0.0999
 1014YOPC   C4B14526  17.060  17.935   7.400  0.0159  0.1472 -0.2683
 1015YOPC   NC314527  13.772   8.417   5.268 -0.4666 -0.0653 -0.1007
 1015YOPC   PO414528  13.948   8.043   5.405  0.0151 -0.0915  0.2605
 1015YOPC   GL114529  13.966   7.971   5.833 -0.1940 -0.0045  0.0070
 1015YOPC   GL214530  14.338   7.828   5.838  0.2029 -0.0908  0.1644
 1015YOPC   C1A14531  13.765   8.089   6.091 -0.1684 -0.1535  0.1491
 1015YOPC   D2A14532  13.666   7.824   6.488 -0.0345  0.2116 -0.1112
 1015YOPC   C3A14533  13.818   7.666   6.880 -0.1761 -0.0239  0.0667
 1015YOPC   C4A14534  13.855   7.426   7.151  0.0912  0.1031  0.1439
 1015YOPC   C1B14535  14.177   7.708   6.276 -0.0307 -0.2437  0.1310
 1015YOPC   C2B14536  14.341   7.708   6.641 -0.1693  0.1297  0.1212
 1015YOPC   D3B14537  14.639   7.878   6.866 -0.0033 -0.1845 -0.0860
 1015YOPC   C4B14538  14.941   7.982   7.176 -0.5241 -0.2180  0.1616
 1016YOPC   NC314539   3.124  11.903   5.266 -0.1949 -0.1754  0.1799
 1016YOPC   PO414540   3.287  12.234   5.617 -0.0687  0.2967  0.2157
 1016YOPC   GL114541   3.327  12.072   5.994 -0.0954 -0.0812  0.0797
 1016YOPC   GL214542   3.451  11.796   6.083  0.4406 -0.0722  0.1585
 1016YOPC   C1A14543   3.649  12.181   6.383  0.0524 -0.0961  0.0931
 1016YOPC   D2A14544   4.018  12.111   6.534 -0.1808  0.1653  0.0223
 1016YOPC   C3A14545   4.123  12.303   6.946  0.1749 -0.1816  0.4564
 1016YOPC   C4A14546   4.226  12.454   7.340  0.1606 -0.1278 -0.1159
 1016YOPC   C1B14547   3.583  11.661   6.514  0.0272 -0.0450 -0.2172
 1016YOPC   C2B14548   3.784  11.840   6.942 -0.0191  0.0866  0.0541
 1016YOPC   D3B14549   4.316  11.863   6.951  0.0852 -0.0317  0.1503
 1016YOPC   C4B14550   4.676  11.796   6.824 -0.2525  0.1704 -0.0324
 1017YOPC   NC314551  14.001   2.048   5.497  0.3032  0.1393 -0.0341
 1017YOPC   PO414552  14.089   1.889   5.890 -0.1825  0.0949  0.2130
 1017YOPC   GL114553  14.301   1.925   6.276  0.4273 -0.1952  0.2126
 1017YOPC   GL214554  14.001   1.921   6.393 -0.0071 -0.0050 -0.0242
 1017YOPC   C1A14555  14.406   2.160   6.623  0.0757 -0.2358 -0.2340
 1017YOPC   D2A14556  14.285   2.229   7.039  0.1077  0.0717  0.0105
 1017YOPC   C3A14557  14.535   2.408   7.482 -0.2174  0.1366  0.0558
 1017YOPC   C4A14558  14.673   2.308   7.807  0.1456 -0.2936 -0.0804
 1017YOPC   C1B14559  14.148   1.756   6.792  0.1073  0.1153 -0.0024
 1017YOPC   C2B14560  14.280   1.382   7.082  0.0348  0.0009 -0.2074
 1017YOPC   D3B14561  14.366   1.466   7.556  0.2093  0.1743 -0.1921
 1017YOPC   C4B14562  14.486   1.292   7.868  0.0875 -0.0386  0.1918
 1018YOPC   NC314563  10.753   9.672   5.260 -0.0064 -0.1179 -0.0889
 1018YOPC   PO414564  11.097   9.845   5.492 -0.1777 -0.2879  0.0310
 1018YOPC   GL114565  10.889   9.678   5.784 -0.0258  0.0051 -0.0803
 1018YOPC   GL214566  10.582   9.666   5.796  0.0445 -0.2493  0.1337
 1018YOPC   C1A14567  11.009   9.438   6.196  0.1663 -0.0006 -0.2540
 1018YOPC   D2A14568  11.109   9.436   6.619  0.6009  0.1486 -0.4420
 1018YOPC   C3A14569  11.391   9.774   6.847 -0.1320  0.0517  0.2691
 1018YOPC   C4A14570  11.336  10.203   6.977 -0.0736  0.0309 -0.3013
 1018YOPC   C1B14571  10.527   9.730   6.152 -0.1965 -0.0647  0.2315
 1018YOPC   C2B14572  10.557   9.549   6.518 -0.1472 -0.0114  0.2416
 1018YOPC   D3B14573  10.598   9.524   6.944 -0.0059 -0.1017 -0.0597
 1018YOPC   C4B14574  10.500   9.336   7.340  0.0727 -0.2025 -0.3744
 1019YOPC   NC314575   9.408   5.598   5.194  0.0457 -0.1572 -0.1433
 1019YOPC   PO414576   9.715   5.436   5.488  0.3002 -0.1455  0.2197
 1019YOPC   GL114577   9.707   5.473   5.891 -0.2627 -0.1260  0.3337
 1019YOPC   GL214578   9.976   5.184   5.953  0.3500  0.0790  0.2929
 1019YOPC   C1A14579   9.519   5.256   6.287  0.1355  0.0518 -0.1668
 1019YOPC   D2A14580   9.698   5.167   6.644 -0.0448  0.0852 -0.0694
 1019YOPC   C3A14581   9.604   5.505   6.974  0.0928 -0.0819  0.0743
 1019YOPC   C4A14582   9.397   5.518   7.349  0.5230 -0.4917 -0.1281
 1019YOPC   C1B14583   9.951   4.863   6.167  0.1639 -0.2943  0.3030
 1019YOPC   C2B14584  10.057   4.587   6.494 -0.2788 -0.1740 -0.1658
 1019YOPC   D3B14585  10.141   4.936   6.696 -0.1965 -0.2058 -0.2564
 1019YOPC   C4B14586  10.067   5.343   6.879  0.0794 -0.0877  0.3044
 1020YOPC   NC314587   2.524   9.492   5.138 -0.0697  0.0768  0.1546
 1020YOPC   PO414588   2.968   9.597   5.285 -0.3123 -0.0670 -0.0334
 1020YOPC   GL114589   3.047   9.362   5.662 -0.0570  0.0795 -0.2077
 1020YOPC   GL214590   2.764   9.242   5.705 -0.0063  0.0992 -0.0000
 1020YOPC   C1A14591   2.980   9.441   6.157  0.3805 -0.0062  0.2823
 1020YOPC   D2A14592   2.997   9.500   6.611  0.2045  0.0737 -0.0066
 1020YOPC   C3A14593   2.990   9.314   6.967 -0.0032  0.1245  0.0863
 1020YOPC   C4A14594   2.743   9.228   7.394 -0.1275 -0.0761  0.2479
 1020YOPC   C1B14595   2.532   9.068   5.991  0.0183 -0.1195 -0.0309
 1020YOPC   C2B14596   2.157   9.145   6.283  0.1502  0.0143 -0.1548
 1020YOPC   D3B14597   2.206   9.515   6.565 -0.3850 -0.2064  0.0790
 1020YOPC   C4B14598   2.497   9.805   6.690  0.0047 -0.1071  0.2571
 1021YOPC   NC314599   5.121   9.886   5.193  0.3667 -0.2047  0.1286
 1021YOPC   PO414600   5.170   9.414   5.298 -0.3060  0.1990  0.3487
 1021YOPC   GL114601   5.101   9.312   5.687 -0.2208  0.1999  0.3978
 1021YOPC   GL214602   4.955   9.052   5.713  0.2529 -0.1076  0.0104
 1021YOPC   C1A14603   5.369   9.517   5.980 -0.1395 -0.0578  0.0098
 1021YOPC   D2A14604   5.724   9.570   6.159 -0.1111  0.2964  0.0845
 1021YOPC   C3A14605   5.592   9.841   6.494 -0.0318  0.0601 -0.2722
 1021YOPC   C4A14606   5.604   9.951   6.933 -0.1328  0.0425  0.2657
 1021YOPC   C1B14607   4.781   8.825   6.187 -0.0351 -0.0170  0.0186
 1021YOPC   C2B14608   4.669   8.597   6.658 -0.1325 -0.0951  0.0497
 1021YOPC   D3B14609   4.292   8.879   6.868  0.0033  0.1958 -0.1022
 1021YOPC   C4B14610   4.306   9.057   7.231 -0.0758 -0.1467  0.2316
 1022YOPC   NC314611   5.722   0.006   5.339  0.1995 -0.0382  0.3151
 1022YOPC   PO414612   6.024   0.106   5.619 -0.0254 -0.1045  0.1204
 1022YOPC   GL114613   6.018   0.203   5.985 -0.0705 -0.1333 -0.0256
 1022YOPC   GL214614   6.181  -0.015   6.176  0.2239  0.0577 -0.0722
 1022YOPC   C1A14615   5.952   0.343   6.356 -0.0268 -0.2439  0.1127
 1022YOPC   D2A14616   5.899   0.388   6.789 -0.0702 -0.2731  0.0204
 1022YOPC   C3A14617   5.690   0.297   7.148  0.0251 -0.3296  0.2400
 1022YOPC   C4A14618   5.426   0.100   7.286 -0.3187  0.2050  0.1535
 1022YOPC   C1B14619   6.202  -0.056   6.619  0.0334 -0.0338 -0.0533
 1022YOPC   C2B14620   6.319   0.121   7.008 -0.0820 -0.0854  0.3228
 1022YOPC   D3B14621   6.181   0.434   7.269  0.2304 -0.1900  0.0581
 1022YOPC   C4B14622   6.181   0.571   7.749 -0.0459 -0.1295 -0.1154
 1023YOPC   NC314623  11.066  14.246   5.865 -0.3001 -0.1007  0.0177
 1023YOPC   PO414624  10.689  14.435   5.955 -0.2319 -0.3134 -0.0463
 1023YOPC   GL114625  10.729  14.445   6.343 -0.2393  0.1162 -0.1304
 1023YOPC   GL214626  10.814  14.125   6.447  0.2435  0.1473  0.0167
 1023YOPC   C1A14627  10.516  14.457   6.742 -0.2615  0.1631  0.0133
 1023YOPC   D2A14628  10.825  14.421   7.124  0.0051 -0.1205  0.1177
 1023YOPC   C3A14629  10.751  14.719   7.503  0.1729  0.1358  0.1502
 1023YOPC   C4A14630  10.799  15.253   7.559 -0.3434 -0.1038  0.0956
 1023YOPC   C1B14631  10.926  13.779   6.667 -0.1082 -0.0229 -0.2920
 1023YOPC   C2B14632  11.087  13.539   7.105 -0.1782  0.2829  0.1241
 1023YOPC   D3B14633  10.919  13.606   7.553 -0.1084 -0.0736 -0.0214
 1023YOPC   C4B14634  10.693  13.495   8.029 -0.1672  0.2538 -0.0804
 1024YOPC   NC314635   0.486   1.042   5.835  0.2398  0.0743 -0.1920
 1024YOPC   PO414636   0.931   0.918   5.970 -0.1121  0.1782  0.1737
 1024YOPC   GL114637   1.219   1.142   5.968 -0.2855  0.0144  0.0174
 1024YOPC   GL214638   1.444   1.339   5.786 -0.0025  0.0557 -0.1014
 1024YOPC   C1A14639   1.199   1.395   6.366  0.2355 -0.0975  0.0083
 1024YOPC   D2A14640   1.425   1.652   6.664  0.2117  0.5823 -0.0846
 1024YOPC   C3A14641   1.222   1.998   6.876  0.0576 -0.0071 -0.3672
 1024YOPC   C4A14642   0.816   1.982   7.108  0.0290  0.1189 -0.0389
 1024YOPC   C1B14643   1.632   1.468   6.149  0.2032  0.3544  0.1804
 1024YOPC   C2B14644   1.860   1.589   6.470 -0.0900  0.0190 -0.0778
 1024YOPC   D3B14645   1.720   1.982   6.774  0.1102 -0.2960  0.1220
 1024YOPC   C4B14646   1.544   2.393   7.069 -0.0821  0.2083 -0.0861
 1025YOPC   NC314647   7.280   3.602   5.247  0.2194 -0.1156 -0.2799
 1025YOPC   PO414648   7.539   3.328   5.103  0.0362 -0.1517 -0.4532
 1025YOPC   GL114649   7.559   3.357   5.594  0.1021 -0.1183 -0.1673
 1025YOPC   GL214650   7.276   3.391   5.718  0.0310 -0.1033  0.1099
 1025YOPC   C1A14651   7.698   3.424   6.006  0.1302 -0.2286 -0.0857
 1025YOPC   D2A14652   7.691   3.394   6.453 -0.0886 -0.1452  0.0828
 1025YOPC   C3A14653   8.046   3.606   6.714 -0.2656  0.2215  0.0862
 1025YOPC   C4A14654   8.391   3.783   6.661  0.1271  0.0902  0.0616
 1025YOPC   C1B14655   7.210   3.221   6.091 -0.1051 -0.0792  0.1931
 1025YOPC   C2B14656   7.227   3.037   6.442 -0.0317 -0.0391  0.2543
 1025YOPC   D3B14657   7.196   2.685   6.557 -0.1407 -0.0494 -0.0531
 1025YOPC   C4B14658   6.977   2.547   6.992 -0.2648 -0.0010  0.1172
 1026YOPC   NC314659   7.585  12.995   4.952  0.2894  0.3279  0.2874
 1026YOPC   PO414660   7.332  13.222   5.326 -0.1108 -0.0268  0.2605
 1026YOPC   GL114661   7.265  13.072   5.797  0.1064 -0.0143 -0.0758
 1026YOPC   GL214662   7.528  12.809   5.798 -0.0616  0.3537 -0.0333
 1026YOPC   C1A14663   6.887  13.066   6.114 -0.0240  0.1309  0.1429
 1026YOPC   D2A14664   6.851  12.782   6.459 -0.1113  0.0595 -0.0123
 1026YOPC   C3A14665   6.928  12.874   6.835  0.2255 -0.0724  0.1970
 1026YOPC   C4A14666   6.678  12.980   7.188  0.2339  0.0241  0.0493
 1026YOPC   C1B14667   7.452  12.505   6.130 -0.2169 -0.0430 -0.0241
 1026YOPC   C2B14668   7.066  12.306   6.432 -0.1464 -0.1034 -0.2511
 1026YOPC   D3B14669   7.178  12.427   6.926 -0.2103  0.2164  0.1068
 1026YOPC   C4B14670   7.309  12.703   7.253  0.2575 -0.2798  0.2193
 1027YOPC   NC314671   2.182   6.318   4.970 -0.0533  0.4434  0.0838
 1027YOPC   PO414672   1.812   6.071   5.239  0.0631 -0.4474  0.1072
 1027YOPC   GL114673   1.805   6.158   5.694  0.0563  0.1484 -0.3486
 1027YOPC   GL214674   1.471   6.249   5.731 -0.0035  0.0034 -0.1905
 1027YOPC   C1A14675   1.993   6.434   6.082 -0.3090  0.3465  0.2127
 1027YOPC   D2A14676   1.706   6.769   6.264  0.0640  0.2072  0.4019
 1027YOPC   C3A14677   1.347   6.799   6.365 -0.4429 -0.3920 -0.0424
 1027YOPC   C4A14678   0.821   6.605   6.417 -0.2088 -0.2287  0.0765
 1027YOPC   C1B14679   1.456   6.332   6.222  0.0848 -0.0181  0.0298
 1027YOPC   C2B14680   1.680   6.268   6.535 -0.0083 -0.0883  0.1361
 1027YOPC   D3B14681   1.436   6.139   6.783 -0.0434 -0.0257 -0.0326
 1027YOPC   C4B14682   1.267   6.166   7.155 -0.2116 -0.0471  0.1468
 1028YOPC   NC314683  17.890   2.676   4.874 -0.0048 -0.3479  0.0222
 1028YOPC   PO414684  17.798   2.832   5.329  0.1314 -0.3055 -0.0560
 1028YOPC   GL114685  17.837   3.017   5.665 -0.1817  0.0358  0.1762
 1028YOPC   GL214686  17.828   2.755   5.804  0.1180  0.0731  0.3275
 1028YOPC   C1A14687  17.773   3.302   5.963 -0.0290  0.0682  0.2092
 1028YOPC   D2A14688  17.865   3.638   6.060 -0.0468  0.2885 -0.3865
 1028YOPC   C3A14689  17.910   3.847   6.383  0.0102 -0.2827 -0.0158
 1028YOPC   C4A14690  17.904   3.835   6.736 -0.1489 -0.1413 -0.0182
 1028YOPC   C1B14691  18.009   2.923   6.213  0.0451  0.0786  0.1064
 1028YOPC   C2B14692  17.923   3.120   6.608  0.1301  0.0403  0.2607
 1028YOPC   D3B14693  17.640   3.444   6.522 -0.2500 -0.1874  0.1563
 1028YOPC   C4B14694  17.305   3.566   6.695  0.3320  0.2636  0.4114
 1029YOPC   NC314695  12.170   7.892   4.754 -0.1148 -0.0668  0.0043
 1029YOPC   PO414696  12.364   7.910   5.196 -0.2104  0.1734 -0.1192
 1029YOPC   GL114697  12.545   7.880   5.670 -0.2014 -0.0122  0.1162
 1029YOPC   GL214698  12.819   7.634   5.792  0.0213  0.0833 -0.0400
 1029YOPC   C1A14699  12.684   8.049   6.095  0.0578 -0.1151 -0.0842
 1029YOPC   D2A14700  12.781   8.067   6.551 -0.2512 -0.0205 -0.2594
 1029YOPC   C3A14701  12.747   8.287   6.885 -0.0569  0.1328 -0.2125
 1029YOPC   C4A14702  12.512   8.374   7.210  0.4038 -0.3568 -0.0501
 1029YOPC   C1B14703  12.757   7.589   6.278  0.2623 -0.2486 -0.1307
 1029YOPC   C2B14704  12.564   7.621   6.764 -0.1121  0.3503  0.0540
 1029YOPC   D3B14705  12.888   7.791   7.013 -0.4406  0.0212 -0.1299
 1029YOPC   C4B14706  12.928   7.568   7.412 -0.2747  0.1551 -0.1060
 1030YOPC   NC314707  12.870   8.991   5.596 -0.0799 -0.1497 -0.1190
 1030YOPC   PO414708  12.440   8.768   5.750  0.2485 -0.1705  0.0531
 1030YOPC   GL114709  12.629   8.825   6.147 -0.3957  0.2967  0.1417
 1030YOPC   GL214710  12.901   8.736   6.333 -0.0130 -0.1409 -0.1135
 1030YOPC   C1A14711  12.495   9.140   6.504 -0.2624 -0.1225 -0.0638
 1030YOPC   D2A14712  12.491   9.573   6.652 -0.0437  0.0584  0.2206
 1030YOPC   C3A14713  12.495   9.774   6.996 -0.1569 -0.1414  0.1281
 1030YOPC   C4A14714  12.586   9.869   7.423 -0.2302 -0.0300  0.1883
 1030YOPC   C1B14715  12.894   8.832   6.759 -0.0183  0.4212  0.3076
 1030YOPC   C2B14716  12.678   8.973   7.197 -0.2354  0.1344  0.2923
 1030YOPC   D3B14717  12.467   8.717   7.504  0.2411 -0.0933 -0.4530
 1030YOPC   C4B14718  12.358   8.357   7.659 -0.0641  0.2803 -0.1039
 1031YOPC   NC314719  13.996  10.022   5.235  0.1784 -0.0865 -0.1104
 1031YOPC   PO414720  13.646  10.276   5.542 -0.0662  0.4453  0.3819
 1031YOPC   GL114721  13.698  10.113   5.880 -0.0665 -0.1464  0.0817
 1031YOPC   GL214722  13.990   9.916   5.773 -0.0137 -0.0146 -0.1356
 1031YOPC   C1A14723  13.758   9.908   6.222 -0.4379  0.1000  0.2328
 1031YOPC   D2A14724  13.889   9.856   6.561  0.0722  0.2135  0.3687
 1031YOPC   C3A14725  13.998   9.506   6.746 -0.3411  0.0278 -0.1879
 1031YOPC   C4A14726  14.428   9.637   7.064  0.2216  0.0379 -0.1349
 1031YOPC   C1B14727  14.299   9.932   6.133 -0.1587 -0.1284  0.0458
 1031YOPC   C2B14728  14.394   9.713   6.492  0.2670  0.0033  0.1470
 1031YOPC   D3B14729  14.718   9.465   6.463 -0.1264 -0.2467 -0.0623
 1031YOPC   C4B14730  15.124   9.442   6.682  0.2406 -0.0626  0.0999
 1032YOPC   NC314731   0.987   6.884   5.069  0.3581 -0.2389 -0.1393
 1032YOPC   PO414732   0.696   6.596   5.157 -0.0402 -0.0217 -0.2921
 1032YOPC   GL114733   0.852   6.723   5.563  0.0859  0.0722 -0.1940
 1032YOPC   GL214734   1.016   7.038   5.595  0.0504 -0.2429  0.1851
 1032YOPC   C1A14735   0.679   6.744   5.922 -0.1439  0.0247  0.0592
 1032YOPC   D2A14736   0.482   6.940   6.320  0.3566  0.1852  0.1459
 1032YOPC   C3A14737   0.491   6.755   6.780  0.2291 -0.0577 -0.1284
 1032YOPC   C4A14738   0.171   6.575   7.132  0.0573  0.0540 -0.1445
 1032YOPC   C1B14739   0.684   7.268   5.856 -0.1807 -0.1568 -0.0125
 1032YOPC   C2B14740   0.479   7.402   6.197 -0.3211  0.1363 -0.0644
 1032YOPC   D3B14741   0.173   7.454   6.137  0.1045 -0.2340  0.0458
 1032YOPC   C4B14742  -0.147   7.422   6.041  0.1765  0.0752  0.0068
 1033YOPC   NC314743   0.676   5.216   5.111  0.0532 -0.1160  0.3043
 1033YOPC   PO414744   1.145   5.265   4.895  0.0985  0.0654  0.1331
 1033YOPC   GL114745   1.097   5.239   5.412  0.1596 -0.0427 -0.1502
 1033YOPC   GL214746   1.281   5.333   5.592 -0.3312 -0.3781 -0.1737
 1033YOPC   C1A14747   0.872   5.036   5.775 -0.0271  0.0539  0.1456
 1033YOPC   D2A14748   0.846   4.998   6.201  0.0399  0.1134  0.2953
 1033YOPC   C3A14749   1.191   4.923   6.490 -0.0988 -0.1033 -0.0891
 1033YOPC   C4A14750   1.256   4.634   6.749  0.0331 -0.4282 -0.1049
 1033YOPC   C1B14751   1.343   5.158   6.027 -0.1751  0.2408 -0.0431
 1033YOPC   C2B14752   1.647   4.855   6.164  0.1091 -0.0949 -0.2580
 1033YOPC   D3B14753   1.551   4.488   6.390 -0.0094 -0.1036 -0.1107
 1033YOPC   C4B14754   1.646   4.323   6.673 -0.0385  0.4471 -0.1768
 1034YOPC   NC314755  13.162  14.509   6.148  0.0614  0.3953 -0.0205
 1034YOPC   PO414756  12.722  14.758   6.225  0.1509 -0.1390 -0.3569
 1034YOPC   GL114757  12.764  14.807   6.680  0.0565  0.0644  0.2374
 1034YOPC   GL214758  12.862  14.496   6.683  0.0443  0.2813  0.0481
 1034YOPC   C1A14759  12.679  14.843   7.098  0.0069 -0.0532  0.0792
 1034YOPC   D2A14760  12.727  14.846   7.550  0.2402 -0.0497 -0.2010
 1034YOPC   C3A14761  13.061  14.734   7.699 -0.0723 -0.1985 -0.1862
 1034YOPC   C4A14762  13.502  14.620   7.451 -0.0205 -0.0639 -0.1141
 1034YOPC   C1B14763  12.652  14.183   6.879  0.0537  0.1130 -0.1231
 1034YOPC   C2B14764  12.354  13.872   7.056 -0.1649 -0.3003  0.0840
 1034YOPC   D3B14765  12.341  13.793   7.475 -0.0018 -0.0726 -0.1980
 1034YOPC   C4B14766  12.506  13.546   7.724 -0.0123 -0.0787  0.1136
 1035YOPC   NC314767   4.677  14.750   5.987  0.0395 -0.1846  0.1293
 1035YOPC   PO414768   4.985  14.600   6.028 -0.1818  0.2071  0.0603
 1035YOPC   GL114769   5.000  15.049   6.179 -0.0198 -0.2277  0.0552
 1035YOPC   GL214770   5.045  15.437   6.183 -0.1100 -0.0190  0.1394
 1035YOPC   C1A14771   4.934  15.108   6.659 -0.0964  0.0173  0.1174
 1035YOPC   D2A14772   5.243  15.183   6.972  0.0716 -0.0921 -0.2916
 1035YOPC   C3A14773   5.566  14.924   7.215  0.0144 -0.2547 -0.2144
 1035YOPC   C4A14774   5.831  14.610   7.426  0.0056 -0.2254 -0.0068
 1035YOPC   C1B14775   5.084  15.636   6.565 -0.1019 -0.3497 -0.2381
 1035YOPC   C2B14776   5.428  15.668   6.847 -0.0987  0.3793 -0.0514
 1035YOPC   D3B14777   5.823  15.971   6.903  0.2692 -0.1099 -0.0464
 1035YOPC   C4B14778   5.692  16.441   6.879  0.4521 -0.2072 -0.2857
 1036YOPC   NC314779   2.706   4.178   4.957  0.0005 -0.1730 -0.2714
 1036YOPC   PO414780   2.367   4.227   5.336 -0.1212 -0.2174  0.0307
 1036YOPC   GL114781   2.361   4.330   5.772 -0.2200 -0.0462  0.0033
 1036YOPC   GL214782   2.329   4.160   6.081  0.2850  0.0706  0.2377
 1036YOPC   C1A14783   2.043   4.569   6.111  0.0476 -0.1506  0.0723
 1036YOPC   D2A14784   2.042   4.595   6.548 -0.0936  0.1087  0.1961
 1036YOPC   C3A14785   1.765   4.875   6.684 -0.0164  0.1233 -0.2735
 1036YOPC   C4A14786   1.527   4.969   6.966 -0.2419 -0.2391  0.3222
 1036YOPC   C1B14787   2.652   4.038   6.298  0.2166 -0.1868 -0.3251
 1036YOPC   C2B14788   2.755   4.000   6.622 -0.1910  0.3380  0.0510
 1036YOPC   D3B14789   2.596   4.273   6.981  0.1363 -0.1248  0.0236
 1036YOPC   C4B14790   2.503   4.397   7.338 -0.0392  0.4833  0.1200
 1037YOPC   NC314791   8.429   6.563   5.416 -0.0400 -0.0676 -0.4625
 1037YOPC   PO414792   8.742   6.792   5.760 -0.2583 -0.0847 -0.0551
 1037YOPC   GL114793   8.490   6.835   6.078  0.1674 -0.0233 -0.0320
 1037YOPC   GL214794   8.373   7.070   6.027  0.4507 -0.0748 -0.2483
 1037YOPC   C1A14795   8.565   6.491   6.416 -0.2906 -0.2405  0.0172
 1037YOPC   D2A14796   8.564   6.502   6.874 -0.0545  0.1063  0.0097
 1037YOPC   C3A14797   8.650   6.295   7.221  0.0400  0.0469  0.0391
 1037YOPC   C4A14798   8.516   6.118   7.574  0.1148  0.2040 -0.0976
 1037YOPC   C1B14799   8.213   7.054   6.433 -0.3177  0.0218 -0.1387
 1037YOPC   C2B14800   8.226   6.990   6.873  0.2965  0.3236  0.0497
 1037YOPC   D3B14801   8.217   6.597   7.231  0.1325 -0.0249 -0.1189
 1037YOPC   C4B14802   7.829   6.501   7.434 -0.1695  0.1454  0.2299
 1038YOPC   NC314803   4.347   3.490   5.020  0.1055  0.3300 -0.2408
 1038YOPC   PO414804   4.599   3.736   5.286  0.2178 -0.2260  0.0045
 1038YOPC   GL114805   4.559   3.524   5.667 -0.1397  0.3001 -0.0419
 1038YOPC   GL214806   4.181   3.678   5.658 -0.3241 -0.0805 -0.0520
 1038YOPC   C1A14807   4.747   3.370   6.032  0.1963  0.0155 -0.2081
 1038YOPC   D2A14808   4.964   3.484   6.374 -0.2584 -0.0287 -0.3257
 1038YOPC   C3A14809   5.268   3.237   6.604  0.1452  0.1886 -0.3244
 1038YOPC   C4A14810   5.573   3.344   6.677  0.2480 -0.1161 -0.0751
 1038YOPC   C1B14811   4.280   3.468   6.050 -0.2214  0.0200 -0.0338
 1038YOPC   C2B14812   4.458   3.403   6.443  0.3883  0.1569  0.1102
 1038YOPC   D3B14813   4.137   3.327   6.669  0.2450  0.1704 -0.3442
 1038YOPC   C4B14814   4.048   3.358   7.099 -0.0270 -0.0598 -0.0745
 1039YOPC   NC314815  12.929  13.169   5.117  0.1724  0.0010  0.0706
 1039YOPC   PO414816  12.944  13.199   5.535 -0.1675 -0.1658 -0.2226
 1039YOPC   GL114817  12.815  13.043   5.850  0.0802 -0.1102  0.0432
 1039YOPC   GL214818  12.812  13.272   6.073  0.1319  0.1350  0.0407
 1039YOPC   C1A14819  12.897  12.804   6.135 -0.0371  0.1685  0.0769
 1039YOPC   D2A14820  12.985  12.707   6.570  0.1565 -0.3356  0.0179
 1039YOPC   C3A14821  13.365  12.897   6.773  0.0017  0.0997  0.1266
 1039YOPC   C4A14822  13.653  12.848   7.000 -0.0114 -0.0613 -0.0510
 1039YOPC   C1B14823  12.765  13.178   6.499  0.0492  0.1524  0.3239
 1039YOPC   C2B14824  12.875  13.023   6.958 -0.3509 -0.3300 -0.0091
 1039YOPC   D3B14825  12.477  13.147   7.076 -0.3290 -0.1578  0.3402
 1039YOPC   C4B14826  12.140  13.422   7.164  0.1878  0.0661  0.0886
 1040YOPC   NC314827   4.028   2.289   5.740 -0.2387  0.1020  0.1774
 1040YOPC   PO414828   3.942   1.857   5.596  0.0326  0.1618  0.2262
 1040YOPC   GL114829   4.091   1.792   6.053  0.0083  0.0168  0.0614
 1040YOPC   GL214830   4.369   1.574   6.137  0.0567 -0.0321  0.2427
 1040YOPC   C1A14831   4.005   1.747   6.567 -0.3135 -0.0170 -0.1897
 1040YOPC   D2A14832   4.111   1.912   6.925  0.1655  0.0574  0.2410
 1040YOPC   C3A14833   4.431   1.832   7.189  0.0231 -0.0709 -0.0047
 1040YOPC   C4A14834   4.660   1.627   7.532 -0.2617 -0.1524 -0.0611
 1040YOPC   C1B14835   4.235   1.241   6.303  0.1102  0.0622  0.1507
 1040YOPC   C2B14836   3.864   1.219   6.647 -0.1898  0.0266 -0.0881
 1040YOPC   D3B14837   3.817   1.041   7.066 -0.2431 -0.0359  0.0877
 1040YOPC   C4B14838   3.643   0.606   7.230 -0.1114 -0.1439 -0.0239
 1041YOPC   NC314839   3.356   7.652   4.941  0.1334  0.1390 -0.0416
 1041YOPC   PO414840   3.052   7.910   5.278  0.1892  0.2681 -0.0471
 1041YOPC   GL114841   3.160   7.953   5.630 -0.0428  0.3020 -0.0800
 1041YOPC   GL214842   2.895   7.832   5.841 -0.1404 -0.1290  0.0796
 1041YOPC   C1A14843   3.243   8.248   5.978  0.0223  0.1618  0.0675
 1041YOPC   D2A14844   2.994   8.402   6.320 -0.1813 -0.0505 -0.1333
 1041YOPC   C3A14845   3.013   8.348   6.797 -0.3813  0.2696  0.1641
 1041YOPC   C4A14846   3.148   8.108   7.157 -0.3421 -0.0340  0.0969
 1041YOPC   C1B14847   2.843   7.890   6.268 -0.0042 -0.2789  0.0980
 1041YOPC   C2B14848   2.928   7.813   6.661 -0.0946 -0.0617 -0.0529
 1041YOPC   D3B14849   3.036   7.589   7.075  0.0309  0.2966  0.0601
 1041YOPC   C4B14850   3.294   7.523   7.350 -0.2986 -0.3415  0.0883
 1042YOPC   NC314851  12.005  18.144   6.066  0.5478 -0.2064 -0.0348
 1042YOPC   PO414852  11.555  17.944   6.140 -0.0726  0.2428 -0.0827
 1042YOPC   GL114853  11.709  18.141   6.562  0.1100  0.4497 -0.0874
 1042YOPC   GL214854  12.054  18.157   6.605  0.0158 -0.0246 -0.2456
 1042YOPC   C1A14855  11.659  18.320   7.018  0.1710 -0.0476 -0.1400
 1042YOPC   D2A14856  11.737  18.612   7.483 -0.0363 -0.0874 -0.4416
 1042YOPC   C3A14857  11.882  18.642   7.898  0.4136 -0.1580  0.1280
 1042YOPC   C4A14858  12.079  18.482   8.272  0.1680  0.0302 -0.0075
 1042YOPC   C1B14859  12.134  18.559   6.896 -0.1731  0.0132 -0.0211
 1042YOPC   C2B14860  11.749  18.875   7.002 -0.2447 -0.2050  0.2794
 1042YOPC   D3B14861  11.336  18.647   7.187 -0.1075 -0.3331  0.1241
 1042YOPC   C4B14862  11.202  18.442   7.587 -0.0081  0.0182  0.0858
 1043YOPC   NC314863   7.468  15.087   5.718 -0.1281  0.0767  0.3072
 1043YOPC   PO414864   7.939  15.324   5.696  0.3212  0.2137  0.4606
 1043YOPC   GL114865   7.832  15.165   6.129  0.0185  0.0545  0.1468
 1043YOPC   GL214866   8.103  15.354   6.393  0.0900 -0.2068  0.2800
 1043YOPC   C1A14867   7.780  14.987   6.574  0.2215  0.1134 -0.0202
 1043YOPC   D2A14868   7.684  14.975   7.027  0.1223 -0.0136  0.1750
 1043YOPC   C3A14869   7.615  15.153   7.397  0.2198  0.1620 -0.0355
 1043YOPC   C4A14870   7.346  15.298   7.590  0.4458 -0.5426  0.1240
 1043YOPC   C1B14871   8.389  15.623   6.667  0.0265 -0.2940  0.3649
 1043YOPC   C2B14872   8.217  15.800   7.019  0.1972  0.4265 -0.0460
 1043YOPC   D3B14873   8.367  16.094   7.175 -0.0556  0.0782  0.4150
 1043YOPC   C4B14874   8.447  16.486   7.292 -0.1038 -0.0313  0.3044
 1044YOPC   NC314875   6.805  12.427   5.291  0.2577  0.0411 -0.1271
 1044YOPC   PO414876   6.653  12.120   5.414  0.0441 -0.0965  0.0920
 1044YOPC   GL114877   6.471  12.176   5.780 -0.0789  0.0244 -0.0058
 1044YOPC   GL214878   6.217  12.020   5.963 -0.1173 -0.1474  0.1546
 1044YOPC   C1A14879   6.463  12.283   6.267  0.0475 -0.1271 -0.0855
 1044YOPC   D2A14880   6.617  12.267   6.756  0.3004  0.1681  0.0800
 1044YOPC   C3A14881   6.841  11.975   6.873 -0.1831 -0.0598  0.1414
 1044YOPC   C4A14882   6.698  11.627   7.140 -0.2673 -0.3775  0.0305
 1044YOPC   C1B14883   5.983  12.176   6.291 -0.0976 -0.1370  0.0882
 1044YOPC   C2B14884   6.104  12.204   6.635  0.0909  0.0270 -0.2307
 1044YOPC   D3B14885   5.905  12.387   7.025 -0.0692  0.1059  0.1286
 1044YOPC   C4B14886   5.716  12.629   7.318  0.3129 -0.0247 -0.0955
 1045YOPC   NC314887  15.439   2.620   5.479 -0.0557  0.0333 -0.0452
 1045YOPC   PO414888  15.688   2.847   5.248  0.1461 -0.1291  0.1714
 1045YOPC   GL114889  15.722   2.951   5.726 -0.0638 -0.0770 -0.0510
 1045YOPC   GL214890  15.527   2.805   6.026  0.0478 -0.2054 -0.5443
 1045YOPC   C1A14891  15.833   3.205   6.129 -0.0727 -0.0972 -0.2614
 1045YOPC   D2A14892  15.936   3.439   6.475 -0.1917  0.1859  0.0074
 1045YOPC   C3A14893  15.890   3.276   6.832  0.1654  0.2985 -0.1408
 1045YOPC   C4A14894  16.223   3.395   7.063  0.1746 -0.0690 -0.0748
 1045YOPC   C1B14895  15.477   2.531   6.295 -0.3443 -0.2884  0.2000
 1045YOPC   C2B14896  15.378   2.323   6.713  0.1889  0.1584 -0.0728
 1045YOPC   D3B14897  15.316   2.535   6.985 -0.1579  0.4470  0.1452
 1045YOPC   C4B14898  15.104   2.777   7.163 -0.0608 -0.1661 -0.0609
 1046YOPC   NC314899   6.107   8.091   5.422 -0.1688  0.1720  0.0613
 1046YOPC   PO414900   6.132   7.662   5.469 -0.2260 -0.0387  0.2325
 1046YOPC   GL114901   5.926   7.711   5.751 -0.1193  0.1533 -0.1432
 1046YOPC   GL214902   6.008   7.437   5.912  0.0589 -0.1747  0.2317
 1046YOPC   C1A14903   5.959   8.026   6.096  0.1299 -0.0223 -0.0598
 1046YOPC   D2A14904   6.310   7.836   6.403  0.0325  0.4634 -0.0116
 1046YOPC   C3A14905   6.200   7.839   6.837 -0.0028  0.1504  0.0613
 1046YOPC   C4A14906   6.302   7.854   7.352 -0.2615  0.2255  0.2043
 1046YOPC   C1B14907   5.964   7.457   6.392 -0.2527  0.1016  0.2503
 1046YOPC   C2B14908   5.777   7.443   6.662  0.0165 -0.0821 -0.1471
 1046YOPC   D3B14909   5.731   7.741   6.923 -0.1181 -0.0529 -0.2954
 1046YOPC   C4B14910   5.339   7.948   7.128 -0.0693 -0.3159 -0.1500
 1047YOPC   NC314911  17.031   9.756   5.555  0.2464 -0.1107 -0.2032
 1047YOPC   PO414912  16.571   9.829   5.620 -0.0653  0.4119 -0.1431
 1047YOPC   GL114913  16.219   9.916   5.897 -0.1499 -0.0351  0.1471
 1047YOPC   GL214914  16.135   9.591   5.861 -0.0282  0.3450 -0.0399
 1047YOPC   C1A14915  16.021  10.014   6.281 -0.2375  0.0529 -0.0257
 1047YOPC   D2A14916  15.895  10.309   6.475 -0.3367  0.2637 -0.1627
 1047YOPC   C3A14917  15.796  10.030   6.922 -0.0107  0.1189 -0.0974
 1047YOPC   C4A14918  15.609   9.958   7.332  0.1631 -0.0340  0.2669
 1047YOPC   C1B14919  16.094   9.509   6.262 -0.1194 -0.0512 -0.3733
 1047YOPC   C2B14920  16.054   9.674   6.613 -0.0685 -0.2025 -0.0152
 1047YOPC   D3B14921  15.795   9.534   6.800 -0.3574  0.0255 -0.1212
 1047YOPC   C4B14922  15.606   9.081   6.870 -0.2791 -0.0831  0.0273
 1048YOPC   NC314923  13.035  13.668   5.903 -0.1650 -0.3328  0.0077
 1048YOPC   PO414924  13.155  14.021   6.174  0.0313 -0.0348  0.1893
 1048YOPC   GL114925  13.248  13.973   6.543  0.0025 -0.0153 -0.1609
 1048YOPC   GL214926  13.497  13.732   6.461 -0.0080 -0.2495 -0.2772
 1048YOPC   C1A14927  13.143  14.134   6.953 -0.1939  0.1384 -0.3335
 1048YOPC   D2A14928  13.212  14.103   7.372  0.0632  0.2923 -0.0570
 1048YOPC   C3A14929  13.123  14.230   7.757 -0.0386 -0.1293 -0.2314
 1048YOPC   C4A14930  12.691  14.264   8.005 -0.2840 -0.2602 -0.1277
 1048YOPC   C1B14931  13.415  13.769   7.028  0.0705  0.1299 -0.2792
 1048YOPC   C2B14932  13.611  13.693   7.357 -0.0663  0.0473  0.0615
 1048YOPC   D3B14933  13.453  13.548   7.706  0.1284 -0.0683  0.0907
 1048YOPC   C4B14934  13.375  13.792   8.079  0.0266 -0.1123 -0.3722
 1049YOPC   NC314935  17.627   9.145   5.648 -0.0897 -0.0304  0.4176
 1049YOPC   PO414936  18.011   8.873   5.485  0.0499  0.1971 -0.2193
 1049YOPC   GL114937  18.047   8.884   5.876  0.2663 -0.1590 -0.1104
 1049YOPC   GL214938  18.351   8.870   5.866 -0.3156  0.2189 -0.0120
 1049YOPC   C1A14939  17.955   8.828   6.355  0.2246 -0.3011  0.2032
 1049YOPC   D2A14940  17.929   8.707   6.787 -0.1022  0.2801  0.0417
 1049YOPC   C3A14941  18.387   8.697   7.064  0.1095  0.2585 -0.0969
 1049YOPC   C4A14942  18.764   8.717   7.100 -0.1590  0.3359 -0.1152
 1049YOPC   C1B14943  18.592   9.011   6.158  0.1871  0.2348 -0.0043
 1049YOPC   C2B14944  18.504   8.950   6.608  0.4113 -0.1427 -0.1392
 1049YOPC   D3B14945  18.641   9.131   6.843  0.0674 -0.2051  0.0647
 1049YOPC   C4B14946  18.972   9.272   7.113 -0.0120  0.1889 -0.0819
 1050YOPC   NC314947  16.851   7.887   5.287  0.0825 -0.0791 -0.1177
 1050YOPC   PO414948  16.843   8.242   5.618 -0.2207 -0.0371 -0.1707
 1050YOPC   GL114949  16.990   8.320   6.085 -0.3060 -0.1523 -0.2204
 1050YOPC   GL214950  17.207   8.032   6.197  0.1662 -0.2203  0.2952
 1050YOPC   C1A14951  16.878   8.304   6.546  0.3440 -0.0796  0.0966
 1050YOPC   D2A14952  16.782   8.185   6.967  0.3782  0.0436 -0.0581
 1050YOPC   C3A14953  17.025   7.981   7.215  0.0235  0.0583 -0.3736
 1050YOPC   C4A14954  17.341   7.650   7.303 -0.1392  0.0749 -0.0327
 1050YOPC   C1B14955  17.640   8.267   6.312  0.0281  0.1152 -0.3081
 1050YOPC   C2B14956  17.736   8.256   6.784 -0.0413 -0.1680 -0.1808
 1050YOPC   D3B14957  18.162   8.244   6.907 -0.0984 -0.2714  0.3942
 1050YOPC   C4B14958  18.088   7.963   7.198  0.0350 -0.4070  0.4524
 1051YOPC   NC314959   8.414  17.723   5.625  0.2471 -0.1479  0.4455
 1051YOPC   PO414960   8.148  18.084   5.897  0.2843  0.1140 -0.2962
 1051YOPC   GL114961   7.971  17.968   6.324 -0.1275 -0.0899  0.0495
 1051YOPC   GL214962   7.621  18.037   6.329 -0.1714 -0.0429 -0.0662
 1051YOPC   C1A14963   7.945  17.777   6.703 -0.0378 -0.1656 -0.0078
 1051YOPC   D2A14964   7.863  17.764   7.108 -0.0985  0.0865  0.2708
 1051YOPC   C3A14965   8.010  17.461   7.382  0.2780 -0.0495 -0.0498
 1051YOPC   C4A14966   7.909  17.118   7.724 -0.0062 -0.1741 -0.1134
 1051YOPC   C1B14967   7.597  18.127   6.800  0.1571 -0.0833 -0.0107
 1051YOPC   C2B14968   7.872  18.370   7.178  0.0034  0.0446 -0.3069
 1051YOPC   D3B14969   8.214  18.583   7.289  0.1809  0.1192  0.0779
 1051YOPC   C4B14970   8.624  18.656   7.540 -0.0864  0.2352 -0.0723
 1052YOPC   NC314971   8.151   8.824   5.648  0.0505 -0.3769  0.0773
 1052YOPC   PO414972   7.973   8.360   5.608  0.3054  0.2062  0.0547
 1052YOPC   GL114973   7.617   8.262   5.951 -0.2662  0.2998 -0.2536
 1052YOPC   GL214974   7.858   7.940   5.933  0.0031 -0.2218 -0.1241
 1052YOPC   C1A14975   7.279   8.032   6.125  0.0898  0.2610  0.2016
 1052YOPC   D2A14976   7.221   7.883   6.562  0.0586  0.1907 -0.0933
 1052YOPC   C3A14977   7.065   8.235   6.819  0.3854  0.3097 -0.3107
 1052YOPC   C4A14978   6.735   8.114   7.133 -0.1255  0.0790 -0.0893
 1052YOPC   C1B14979   7.669   7.920   6.362 -0.2916 -0.0731  0.1702
 1052YOPC   C2B14980   7.677   7.931   6.810  0.1943 -0.0258  0.2043
 1052YOPC   D3B14981   7.427   8.042   7.143  0.6747 -0.0821  0.2317
 1052YOPC   C4B14982   7.578   7.884   7.507  0.2511  0.0375 -0.2043
 1053YOPC   NC314983  18.526  11.174   5.367  0.1864 -0.1459 -0.0686
 1053YOPC   PO414984  18.304  10.836   5.582  0.4319  0.0539 -0.0676
 1053YOPC   GL114985  18.165  10.625   5.908 -0.1620 -0.4818 -0.2631
 1053YOPC   GL214986  17.844  10.586   5.961 -0.0563  0.0995 -0.1009
 1053YOPC   C1A14987  18.201  10.427   6.310  0.1270  0.3857 -0.3254
 1053YOPC   D2A14988  18.309  10.189   6.648 -0.3640  0.1476  0.0315
 1053YOPC   C3A14989  18.107   9.874   6.791 -0.2501 -0.0269  0.2937
 1053YOPC   C4A14990  17.839   9.587   6.980 -0.0897 -0.1741 -0.2439
 1053YOPC   C1B14991  17.905  10.824   6.441 -0.1946 -0.1903  0.0162
 1053YOPC   C2B14992  18.147  10.702   6.732  0.1562  0.2445  0.2523
 1053YOPC   D3B14993  18.411  10.991   6.948 -0.2195 -0.0655 -0.3041
 1053YOPC   C4B14994  18.699  11.264   7.001 -0.0123  0.1692  0.2267
 1054YOPC   NC314995   4.301  12.979   5.140 -0.4763  0.0292  0.0310
 1054YOPC   PO414996   4.166  13.303   5.332  0.1890  0.1507  0.4487
 1054YOPC   GL114997   4.441  13.255   5.709  0.0305  0.0732  0.0433
 1054YOPC   GL214998   4.462  12.962   5.672 -0.1788  0.0596 -0.0679
 1054YOPC   C1A14999   4.800  13.453   6.059 -0.3813  0.3286 -0.0416
 1054YOPC   D2A15000   5.064  13.406   6.351  0.0720 -0.0749 -0.0369
 1054YOPC   C3A15001   5.092  13.138   6.729 -0.0305  0.0644 -0.1913
 1054YOPC   C4A15002   5.235  12.834   7.161  0.3203  0.2063  0.1625
 1054YOPC   C1B15003   4.432  12.601   6.070  0.2724 -0.1126  0.0982
 1054YOPC   C2B15004   4.417  12.318   6.399  0.3849 -0.0407 -0.2105
 1054YOPC   D3B15005   4.597  12.300   6.778  0.2147 -0.3683  0.1327
 1054YOPC   C4B15006   4.630  12.197   7.248  0.0332 -0.1645 -0.2106
 1055YOPC   NC315007  12.806  17.790   6.012 -0.1064 -0.3824  0.2622
 1055YOPC   PO415008  13.207  17.909   6.049  0.4173  0.0949  0.2273
 1055YOPC   GL115009  13.161  17.801   6.462  0.0258  0.0160  0.5216
 1055YOPC   GL215010  13.089  17.564   6.420 -0.2256 -0.0363  0.1389
 1055YOPC   C1A15011  13.287  17.811   6.848  0.0423 -0.0665 -0.1151
 1055YOPC   D2A15012  13.253  17.668   7.276 -0.1380 -0.0848 -0.0005
 1055YOPC   C3A15013  13.096  17.667   7.695  0.0264 -0.0774  0.2414
 1055YOPC   C4A15014  12.973  17.896   8.018 -0.0020 -0.2210  0.0559
 1055YOPC   C1B15015  13.273  17.308   6.807  0.3114  0.2317 -0.0163
 1055YOPC   C2B15016  13.379  17.152   7.097 -0.1933 -0.2012 -0.2100
 1055YOPC   D3B15017  13.346  17.238   7.492  0.1571  0.2711  0.0155
 1055YOPC   C4B15018  13.402  16.977   7.942 -0.1303  0.1215  0.0560
 1056YOPC   NC315019   7.763   6.750   5.279 -0.0768  0.0424 -0.2555
 1056YOPC   PO415020   7.980   6.373   5.292  0.0692  0.0226 -0.1706
 1056YOPC   GL115021   7.684   6.370   5.588 -0.3927  0.0586 -0.0434
 1056YOPC   GL215022   7.791   6.106   5.711 -0.1583 -0.1541  0.4800
 1056YOPC   C1A15023   7.449   6.349   5.990 -0.1225  0.0090  0.3078
 1056YOPC   D2A15024   7.293   6.370   6.325 -0.2035  0.0561  0.0444
 1056YOPC   C3A15025   7.511   6.401   6.829  0.0185 -0.0720 -0.3051
 1056YOPC   C4A15026   7.368   6.489   7.220 -0.0768 -0.0086 -0.3000
 1056YOPC   C1B15027   7.961   6.155   6.056 -0.0885 -0.0837  0.3959
 1056YOPC   C2B15028   8.266   6.108   6.432  0.0288 -0.0335  0.3929
 1056YOPC   D3B15029   8.067   5.788   6.775  0.0567  0.2180 -0.3318
 1056YOPC   C4B15030   7.891   5.414   7.061 -0.2233 -0.2118 -0.0780
 1057YOPC   NC315031   5.990  14.706   4.920  0.0095 -0.3035 -0.2463
 1057YOPC   PO415032   6.074  14.634   5.290  0.0081 -0.1524  0.2299
 1057YOPC   GL115033   6.343  14.529   5.605 -0.3394 -0.2513  0.2319
 1057YOPC   GL215034   6.327  14.217   5.695 -0.2886 -0.2347 -0.2085
 1057YOPC   C1A15035   6.593  14.545   6.053 -0.3489 -0.1336  0.1842
 1057YOPC   D2A15036   6.562  14.758   6.433 -0.0461 -0.0702  0.2993
 1057YOPC   C3A15037   6.663  14.811   6.889 -0.1794  0.1071 -0.2525
 1057YOPC   C4A15038   6.594  15.070   7.253  0.0017  0.3378  0.2330
 1057YOPC   C1B15039   6.713  14.116   5.849  0.1632 -0.2874 -0.2562
 1057YOPC   C2B15040   7.092  13.805   6.009 -0.0343  0.1060 -0.2471
 1057YOPC   D3B15041   7.008  13.738   6.428  0.3154 -0.0572 -0.3898
 1057YOPC   C4B15042   6.957  13.726   6.855  0.2928 -0.3851 -0.2616
 1058YOPC   NC315043   8.687  14.448   5.472 -0.0935  0.2563  0.2079
 1058YOPC   PO415044   8.492  14.204   5.728  0.1783 -0.2744  0.0799
 1058YOPC   GL115045   8.345  14.196   6.245  0.1927  0.1297  0.0780
 1058YOPC   GL215046   8.711  14.265   6.304  0.4992 -0.0412 -0.1870
 1058YOPC   C1A15047   8.420  14.074   6.650 -0.0172 -0.0545 -0.1160
 1058YOPC   D2A15048   8.504  13.991   6.971 -0.2767 -0.0775  0.0862
 1058YOPC   C3A15049   8.719  14.250   7.228  0.0936 -0.1619 -0.1721
 1058YOPC   C4A15050   8.813  14.737   7.331  0.1434  0.2075 -0.0650
 1058YOPC   C1B15051   9.011  14.343   6.640  0.0022  0.1729 -0.2009
 1058YOPC   C2B15052   9.210  14.440   7.060  0.3136 -0.4176  0.4228
 1058YOPC   D3B15053   9.575  14.552   7.053  0.1554  0.0144  0.2219
 1058YOPC   C4B15054   9.942  14.242   6.991 -0.0957 -0.0198 -0.4643
 1059YOPC   NC315055   3.608   8.524   4.971 -0.0274  0.2445  0.3722
 1059YOPC   PO415056   3.701   8.789   5.375  0.0394 -0.0189  0.0132
 1059YOPC   GL115057   3.741   8.800   5.886  0.1136 -0.3109  0.3402
 1059YOPC   GL215058   3.643   8.477   5.802  0.0283  0.2882 -0.1578
 1059YOPC   C1A15059   3.695   9.048   6.234 -0.3134  0.4288  0.0278
 1059YOPC   D2A15060   3.936   9.121   6.579 -0.1254  0.0235 -0.1216
 1059YOPC   C3A15061   3.976   9.377   6.983 -0.1086  0.1066 -0.0404
 1059YOPC   C4A15062   4.196   9.609   7.215  0.0300  0.2640 -0.1095
 1059YOPC   C1B15063   3.569   8.459   6.319  0.1580  0.1814  0.1478
 1059YOPC   C2B15064   3.521   8.713   6.707  0.1854  0.3269  0.1654
 1059YOPC   D3B15065   3.341   8.562   7.139  0.1834  0.0069  0.0006
 1059YOPC   C4B15066   2.946   8.452   7.396  0.0592 -0.2036  0.0087
 1060YOPC   NC315067   2.023   2.314   5.230  0.2004  0.0414 -0.1717
 1060YOPC   PO415068   1.480   2.305   5.212  0.0858  0.0038 -0.1531
 1060YOPC   GL115069   1.613   2.263   5.551 -0.0534 -0.0152 -0.2319
 1060YOPC   GL215070   1.381   2.206   5.900 -0.0201  0.1941  0.1225
 1060YOPC   C1A15071   1.777   2.457   5.899 -0.0310  0.0480 -0.0178
 1060YOPC   D2A15072   2.081   2.661   6.101 -0.0906  0.2658 -0.0363
 1060YOPC   C3A15073   1.999   2.703   6.448  0.4311 -0.5605 -0.0859
 1060YOPC   C4A15074   1.652   3.035   6.563 -0.1128 -0.1034  0.0974
 1060YOPC   C1B15075   1.548   2.490   6.305 -0.0622  0.2067  0.0855
 1060YOPC   C2B15076   1.272   2.488   6.663  0.0353 -0.1735 -0.0096
 1060YOPC   D3B15077   0.770   2.312   6.662 -0.0817 -0.2045  0.3321
 1060YOPC   C4B15078   0.458   2.096   6.478  0.4177  0.2044 -0.1775
 1061YOPC   NC315079   7.576  13.671   5.158 -0.1429 -0.2112 -0.1685
 1061YOPC   PO415080   7.609  13.935   5.513 -0.1531 -0.5361  0.0937
 1061YOPC   GL115081   7.563  13.753   5.774  0.1045 -0.0699  0.1385
 1061YOPC   GL215082   7.729  13.438   5.768 -0.1629  0.4048 -0.0721
 1061YOPC   C1A15083   7.555  13.989   6.173 -0.1614  0.0308  0.0421
 1061YOPC   D2A15084   7.869  14.115   6.471 -0.2278 -0.0215  0.4376
 1061YOPC   C3A15085   7.963  14.000   6.863  0.3124 -0.2574  0.0584
 1061YOPC   C4A15086   8.051  14.165   7.212 -0.2393  0.0938 -0.0272
 1061YOPC   C1B15087   7.431  13.452   6.166 -0.1689 -0.1431  0.0501
 1061YOPC   C2B15088   7.106  13.267   6.555 -0.0539 -0.1761  0.0741
 1061YOPC   D3B15089   6.722  13.303   6.674 -0.1584 -0.2625  0.0341
 1061YOPC   C4B15090   6.361  13.401   6.943 -0.1066 -0.1762  0.1110
 1062YOPC   NC315091  16.474  14.004   5.771 -0.0983  0.0396  0.1124
 1062YOPC   PO415092  16.353  13.646   5.827 -0.3022 -0.1281 -0.1185
 1062YOPC   GL115093  16.194  13.510   6.184  0.0472 -0.0342 -0.4479
 1062YOPC   GL215094  16.402  13.314   6.363  0.2545  0.3327 -0.0305
 1062YOPC   C1A15095  16.014  13.439   6.654  0.3181 -0.3208  0.0945
 1062YOPC   D2A15096  15.935  13.589   6.941  0.1448 -0.1987  0.2088
 1062YOPC   C3A15097  15.571  13.815   7.052 -0.1004  0.6585  0.0068
 1062YOPC   C4A15098  15.334  14.068   7.327  0.3921  0.1419 -0.2821
 1062YOPC   C1B15099  16.394  13.204   6.845  0.0928  0.0538 -0.0226
 1062YOPC   C2B15100  16.327  13.314   7.220  0.2638 -0.1102  0.3991
 1062YOPC   D3B15101  16.479  13.492   7.598  0.2642 -0.1369 -0.0142
 1062YOPC   C4B15102  16.909  13.449   7.649  0.2394  0.0816  0.1961
 1063YOPC   NC315103   2.235   1.732   4.819 -0.2175 -0.1906  0.2010
 1063YOPC   PO415104   2.336   1.931   5.234  0.0373  0.0047 -0.0745
 1063YOPC   GL115105   2.101   1.893   5.577  0.0305  0.2467 -0.5202
 1063YOPC   GL215106   2.139   2.186   5.671 -0.0822 -0.1144 -0.3500
 1063YOPC   C1A15107   2.020   1.731   6.018  0.0248  0.1175  0.0909
 1063YOPC   D2A15108   2.301   1.703   6.319  0.0499  0.0156 -0.4694
 1063YOPC   C3A15109   2.192   1.751   6.808  0.1222  0.0487  0.0751
 1063YOPC   C4A15110   2.294   1.713   7.203 -0.0560 -0.0365  0.0733
 1063YOPC   C1B15111   2.286   2.212   6.016 -0.0216 -0.1645 -0.0311
 1063YOPC   C2B15112   2.619   2.349   6.276  0.1567  0.3643  0.0914
 1063YOPC   D3B15113   2.434   2.320   6.631  0.2136 -0.1576  0.0087
 1063YOPC   C4B15114   2.102   2.216   6.959 -0.1635  0.0250 -0.1541
 1064YOPC   NC315115   6.461   0.249   5.419  0.1739  0.0212 -0.2448
 1064YOPC   PO415116   6.926   0.147   5.627 -0.1053  0.2148 -0.0618
 1064YOPC   GL115117   6.705   0.411   5.875 -0.0891 -0.0435  0.0351
 1064YOPC   GL215118   6.292   0.558   5.771 -0.2847 -0.1113  0.0897
 1064YOPC   C1A15119   6.611   0.244   6.319  0.0585  0.0185 -0.2083
 1064YOPC   D2A15120   6.410   0.435   6.600 -0.0920 -0.5913 -0.1178
 1064YOPC   C3A15121   6.656   0.516   7.045 -0.0961  0.2378 -0.2109
 1064YOPC   C4A15122   6.619   0.213   7.389  0.0918 -0.0068 -0.1487
 1064YOPC   C1B15123   6.239   0.704   6.119  0.2957 -0.4761  0.1216
 1064YOPC   C2B15124   6.104   0.952   6.459  0.1831 -0.1179  0.0463
 1064YOPC   D3B15125   6.202   0.812   6.870  0.4534 -0.1976 -0.1157
 1064YOPC   C4B15126   6.381   0.881   7.407  0.2068  0.0838  0.1317
 1065YOPC   NC315127  13.320   6.905   5.452  0.0239  0.0150 -0.1255
 1065YOPC   PO415128  13.688   7.128   5.549 -0.1847 -0.0327  0.1982
 1065YOPC   GL115129  13.671   6.982   5.938  0.0647  0.0327  0.1032
 1065YOPC   GL215130  14.018   6.800   6.080 -0.1711 -0.4047  0.2947
 1065YOPC   C1A15131  13.584   6.607   6.085  0.1559 -0.1444 -0.2489
 1065YOPC   D2A15132  13.452   6.405   6.497 -0.2027  0.0970  0.1799
 1065YOPC   C3A15133  13.366   6.621   6.783 -0.2285  0.3669 -0.0301
 1065YOPC   C4A15134  13.137   6.709   7.221  0.0498  0.1127 -0.3124
 1065YOPC   C1B15135  13.765   6.849   6.482  0.0203 -0.3159 -0.0451
 1065YOPC   C2B15136  13.819   6.790   6.994 -0.1848 -0.0580  0.3444
 1065YOPC   D3B15137  13.514   7.023   7.114  0.0614 -0.3515  0.2191
 1065YOPC   C4B15138  13.290   7.096   7.399  0.2101 -0.0316 -0.0004
 1066YOPC   NC315139   9.846  15.870   5.933  0.0990 -0.2494  0.4539
 1066YOPC   PO415140   9.510  15.669   5.804  0.0091  0.0011  0.0658
 1066YOPC   GL115141   9.207  15.658   6.085  0.0468  0.1512 -0.1991
 1066YOPC   GL215142   9.198  15.407   6.132  0.0279 -0.0718 -0.0704
 1066YOPC   C1A15143   8.928  15.966   6.415 -0.0627  0.2192 -0.1348
 1066YOPC   D2A15144   8.773  16.037   6.845  0.3081  0.0327 -0.1673
 1066YOPC   C3A15145   9.006  15.704   6.950 -0.3110  0.2053  0.0017
 1066YOPC   C4A15146   9.323  15.364   7.023 -0.1861  0.5871 -0.0089
 1066YOPC   C1B15147   9.446  15.170   6.541  0.0743  0.0100 -0.0023
 1066YOPC   C2B15148   9.244  14.820   6.703 -0.1507 -0.1353  0.0546
 1066YOPC   D3B15149   8.882  14.961   6.913 -0.1799 -0.1345 -0.2498
 1066YOPC   C4B15150   8.623  15.307   6.971  0.1756  0.4277  0.0111
 1067YOPC   NC315151  18.643  13.713   5.611 -0.0625 -0.1467  0.0248
 1067YOPC   PO415152  18.863  13.444   5.396 -0.3703  0.0560 -0.0814
 1067YOPC   GL115153  19.163  13.611   5.778  0.1584 -0.1245 -0.1237
 1067YOPC   GL215154  18.993  13.613   5.989 -0.0694  0.4596 -0.1022
 1067YOPC   C1A15155  19.364  13.888   6.089  0.0011  0.1542 -0.0723
 1067YOPC   D2A15156  19.407  14.037   6.522  0.1729 -0.0955  0.0333
 1067YOPC   C3A15157  19.296  14.002   6.978  0.1126  0.1299  0.3183
 1067YOPC   C4A15158  19.010  14.181   7.261 -0.0793  0.1623 -0.4558
 1067YOPC   C1B15159  19.023  13.355   6.446  0.0699  0.0860 -0.0583
 1067YOPC   C2B15160  19.125  13.238   6.920 -0.1283  0.0292  0.2953
 1067YOPC   D3B15161  18.744  13.209   7.277  0.2672  0.0019  0.2568
 1067YOPC   C4B15162  18.351  13.173   7.345  0.0726 -0.2219  0.2639
 1068YOPC   NC315163   9.828   0.497   5.444  0.0997 -0.1894  0.1341
 1068YOPC   PO415164   9.524   0.275   5.655  0.2110 -0.0488 -0.1196
 1068YOPC   GL115165   9.603   0.395   6.053  0.0491  0.2796 -0.1611
 1068YOPC   GL215166   9.371   0.682   6.262 -0.1426 -0.0426 -0.2190
 1068YOPC   C1A15167   9.820   0.424   6.412  0.0458 -0.0739 -0.0464
 1068YOPC   D2A15168   9.705   0.424   6.788  0.0787  0.0347 -0.2156
 1068YOPC   C3A15169   9.908   0.285   7.105  0.1379  0.2506 -0.0518
 1068YOPC   C4A15170   9.948   0.036   7.449  0.3171  0.0450 -0.0620
 1068YOPC   C1B15171   9.466   0.818   6.649  0.2597 -0.1270 -0.4888
 1068YOPC   C2B15172   9.371   0.891   6.986 -0.0914  0.0899  0.1608
 1068YOPC   D3B15173   9.528   0.583   7.293  0.2690  0.1452  0.0863
 1068YOPC   C4B15174   9.265   0.628   7.654  0.0841 -0.1225 -0.0107
 1069YOPC   NC315175   8.235  13.337   5.690 -0.3067  0.0732  0.2411
 1069YOPC   PO415176   8.448  13.347   6.114 -0.1610  0.6255  0.2939
 1069YOPC   GL115177   8.513  13.433   6.536 -0.1168 -0.2072  0.2240
 1069YOPC   GL215178   8.679  13.132   6.662  0.0755  0.0567 -0.5300
 1069YOPC   C1A15179   8.319  13.623   6.749 -0.1022  0.3450 -0.1008
 1069YOPC   D2A15180   8.195  13.634   7.086 -0.0074 -0.0010 -0.0285
 1069YOPC   C3A15181   8.396  13.823   7.488  0.0501 -0.3547  0.0510
 1069YOPC   C4A15182   8.540  13.834   7.850  0.0410  0.0604  0.0660
 1069YOPC   C1B15183   8.685  12.856   7.052 -0.2292  0.2371 -0.0666
 1069YOPC   C2B15184   8.539  12.855   7.551  0.1584  0.4408  0.0333
 1069YOPC   D3B15185   8.288  12.568   7.822  0.6222  0.2194 -0.0877
 1069YOPC   C4B15186   8.202  12.260   8.062 -0.0016  0.0518  0.1603
 1070YOPC   NC315187  14.000   9.121   4.751  0.3587 -0.0998 -0.1226
 1070YOPC   PO415188  14.004   8.887   5.223  0.0683 -0.2660 -0.0530
 1070YOPC   GL115189  13.910   9.170   5.615 -0.0959  0.3353  0.0743
 1070YOPC   GL215190  13.957   9.408   5.622 -0.0149  0.4505 -0.2534
 1070YOPC   C1A15191  13.799   9.040   5.981 -0.2009 -0.0620 -0.1742
 1070YOPC   D2A15192  13.878   8.550   6.157 -0.4226 -0.1464 -0.2753
 1070YOPC   C3A15193  13.741   8.537   6.573  0.1430 -0.1311 -0.2209
 1070YOPC   C4A15194  13.724   8.547   7.077  0.0692 -0.1770 -0.0678
 1070YOPC   C1B15195  14.018   9.509   6.002 -0.1364  0.0998 -0.1553
 1070YOPC   C2B15196  14.204   9.260   6.394 -0.0806 -0.5231  0.2375
 1070YOPC   D3B15197  13.940   8.991   6.699 -0.2969  0.1116 -0.2253
 1070YOPC   C4B15198  13.723   8.991   7.165 -0.2098 -0.1421 -0.1169
 1071YOPC   NC315199   7.851   3.660   5.375 -0.0392  0.0414 -0.1960
 1071YOPC   PO415200   8.215   3.536   5.436  0.2182 -0.0416 -0.3213
 1071YOPC   GL115201   8.173   3.488   5.807 -0.0273  0.3609  0.0373
 1071YOPC   GL215202   8.266   3.238   5.984  0.1654 -0.1369 -0.2294
 1071YOPC   C1A15203   8.058   3.731   6.183 -0.2213  0.2247 -0.0844
 1071YOPC   D2A15204   7.725   3.878   6.414  0.2259 -0.2465 -0.0130
 1071YOPC   C3A15205   7.564   3.791   6.790 -0.4891 -0.1419  0.2655
 1071YOPC   C4A15206   7.175   4.179   7.018  0.0426 -0.0994 -0.1118
 1071YOPC   C1B15207   8.169   3.293   6.342  0.2107  0.0093  0.0722
 1071YOPC   C2B15208   8.285   3.174   6.744  0.2823  0.0398  0.1684
 1071YOPC   D3B15209   8.287   3.301   7.175 -0.2475 -0.1703 -0.0518
 1071YOPC   C4B15210   8.010   3.290   7.477 -0.1527 -0.0472  0.1240
 1072YOPC   NC315211  18.024   5.871   5.177 -0.3166  0.0636  0.2722
 1072YOPC   PO415212  18.379   5.620   4.884 -0.1631  0.0383  0.2328
 1072YOPC   GL115213  18.525   5.450   5.223  0.0634 -0.1140  0.1284
 1072YOPC   GL215214  18.380   5.242   5.203  0.1021 -0.1833  0.3042
 1072YOPC   C1A15215  18.787   5.288   5.617 -0.1358 -0.2621  0.0299
 1072YOPC   D2A15216  19.135   5.274   5.892 -0.2029  0.0585  0.0056
 1072YOPC   C3A15217  19.343   5.282   6.216  0.0454 -0.1511  0.0782
 1072YOPC   C4A15218  19.432   5.245   6.628  0.0445 -0.1278  0.1490
 1072YOPC   C1B15219  18.309   5.396   5.638  0.1245 -0.2121 -0.1801
 1072YOPC   C2B15220  18.417   5.596   5.940 -0.1314  0.0818 -0.0481
 1072YOPC   D3B15221  18.789   5.554   6.041 -0.0428 -0.2404  0.0427
 1072YOPC   C4B15222  19.135   5.673   6.411  0.1985  0.1936  0.1308
 1073YOPC   NC315223   2.066   0.967   5.337  0.1762  0.0358  0.0185
 1073YOPC   PO415224   2.265   0.893   5.567 -0.2028 -0.0976  0.0704
 1073YOPC   GL115225   2.276   1.213   5.713 -0.2695 -0.0927 -0.0431
 1073YOPC   GL215226   2.088   1.167   5.930 -0.1791  0.0327 -0.3391
 1073YOPC   C1A15227   2.631   1.496   5.957  0.3033  0.2157 -0.3354
 1073YOPC   D2A15228   2.741   1.881   6.074  0.0543  0.0042 -0.0510
 1073YOPC   C3A15229   2.735   1.903   6.541 -0.1028  0.0718  0.0794
 1073YOPC   C4A15230   2.778   1.950   6.998 -0.0442 -0.1188 -0.2998
 1073YOPC   C1B15231   1.701   0.893   6.106 -0.1024  0.0425 -0.0996
 1073YOPC   C2B15232   1.541   1.022   6.518  0.1395 -0.3235 -0.0282
 1073YOPC   D3B15233   1.657   0.894   6.848  0.1375 -0.0232  0.3182
 1073YOPC   C4B15234   1.631   0.927   7.321  0.1413 -0.0591  0.0395
 1074YOPC   NC315235  17.861  10.793   5.431  0.1395  0.2721  0.2324
 1074YOPC   PO415236  17.531  11.071   5.449  0.0876 -0.0177 -0.1056
 1074YOPC   GL115237  17.582  11.066   5.890 -0.0634 -0.2086  0.0067
 1074YOPC   GL215238  17.760  11.201   6.103 -0.2757 -0.4017 -0.1438
 1074YOPC   C1A15239  17.380  10.675   6.183 -0.2081  0.0951  0.3262
 1074YOPC   D2A15240  17.566  10.323   6.364 -0.0156 -0.1569  0.3400
 1074YOPC   C3A15241  17.850  10.318   6.635 -0.0053  0.2588 -0.2746
 1074YOPC   C4A15242  18.011  10.374   7.108  0.2620 -0.0080 -0.1175
 1074YOPC   C1B15243  17.493  11.093   6.368 -0.1595 -0.1280 -0.1189
 1074YOPC   C2B15244  17.567  11.190   6.840  0.0459  0.0089 -0.1960
 1074YOPC   D3B15245  17.187  11.204   7.157  0.1426 -0.1036 -0.0988
 1074YOPC   C4B15246  16.944  11.107   7.561  0.0816  0.3830 -0.0059
 1075YOPC   NC315247   2.424  17.622   5.242 -0.1591  0.0011  0.1550
 1075YOPC   PO415248   2.614  17.651   5.613  0.3030  0.1595  0.1497
 1075YOPC   GL115249   2.441  17.487   6.035 -0.0484  0.1868 -0.1357
 1075YOPC   GL215250   2.115  17.320   6.047 -0.0227 -0.0943  0.1575
 1075YOPC   C1A15251   2.219  17.812   6.154 -0.1253 -0.1046  0.1272
 1075YOPC   D2A15252   2.165  18.029   6.548  0.0370  0.1881 -0.1060
 1075YOPC   C3A15253   2.393  17.984   6.895  0.0337 -0.0720  0.0813
 1075YOPC   C4A15254   2.801  17.917   6.877  0.1717  0.4241  0.0833
 1075YOPC   C1B15255   1.943  17.108   6.470  0.0492  0.0304  0.0769
 1075YOPC   C2B15256   1.613  16.983   6.848  0.1366 -0.2285  0.2049
 1075YOPC   D3B15257   1.413  16.788   7.297  0.1404 -0.2054  0.2722
 1075YOPC   C4B15258   1.335  16.468   7.422 -0.0576  0.1192  0.4681
 1076YOPC   NC315259   4.742   0.293   5.349  0.2009  0.2721 -0.1894
 1076YOPC   PO415260   5.175   0.138   5.463 -0.1894 -0.0985  0.2025
 1076YOPC   GL115261   4.867   0.027   5.799 -0.0760  0.3933 -0.0572
 1076YOPC   GL215262   5.240   0.144   5.993  0.1178  0.1236  0.0575
 1076YOPC   C1A15263   4.782   0.153   6.222  0.0313 -0.1591  0.2586
 1076YOPC   D2A15264   4.844   0.266   6.643 -0.3400 -0.0738  0.2570
 1076YOPC   C3A15265   4.644   0.580   6.937  0.0938  0.1391 -0.0092
 1076YOPC   C4A15266   4.678   0.938   7.200 -0.1901  0.1887 -0.1248
 1076YOPC   C1B15267   5.470   0.281   6.281 -0.4237  0.0723 -0.0787
 1076YOPC   C2B15268   5.389   0.271   6.769 -0.0000  0.1626  0.1477
 1076YOPC   D3B15269   5.134   0.478   7.009 -0.0744 -0.0269  0.1127
 1076YOPC   C4B15270   5.075   0.536   7.403 -0.2902 -0.2087  0.0511
 1077YOPC   NC315271  15.735   3.353   5.263 -0.2898 -0.3334 -0.1179
 1077YOPC   PO415272  16.063   3.664   5.305  0.0293 -0.0354  0.1215
 1077YOPC   GL115273  15.950   3.877   5.537 -0.1852 -0.0493  0.0239
 1077YOPC   GL215274  16.061   3.874   5.799  0.0041 -0.0576 -0.4045
 1077YOPC   C1A15275  15.629   4.052   5.792  0.2032 -0.0428 -0.1621
 1077YOPC   D2A15276  15.175   3.987   6.056  0.0261 -0.4528  0.1739
 1077YOPC   C3A15277  14.718   3.906   6.089 -0.0209 -0.3172 -0.0373
 1077YOPC   C4A15278  14.338   3.824   6.277 -0.0528  0.1208 -0.4823
 1077YOPC   C1B15279  15.744   3.787   6.193 -0.2492  0.1880  0.3693
 1077YOPC   C2B15280  15.376   3.831   6.521 -0.0532 -0.2555 -0.0352
 1077YOPC   D3B15281  15.431   3.571   6.773  0.1725  0.0922  0.1491
 1077YOPC   C4B15282  15.124   3.384   7.162  0.1373 -0.0921  0.3073
 1078YOPC   NC315283  12.782  16.606   5.997 -0.3854 -0.4066  0.0309
 1078YOPC   PO415284  12.611  16.876   6.190 -0.2240 -0.0621 -0.3086
 1078YOPC   GL115285  12.665  16.613   6.554  0.0477 -0.0076  0.0224
 1078YOPC   GL215286  12.673  16.344   6.411  0.1128 -0.3034 -0.5309
 1078YOPC   C1A15287  12.651  16.509   6.965  0.2236 -0.0720 -0.0939
 1078YOPC   D2A15288  12.828  16.225   7.286 -0.2724 -0.2057 -0.0897
 1078YOPC   C3A15289  12.837  16.128   7.791  0.0498 -0.0623 -0.0173
 1078YOPC   C4A15290  12.521  16.011   8.097 -0.2565 -0.1566  0.3398
 1078YOPC   C1B15291  12.934  16.153   6.731  0.0442 -0.0083  0.1130
 1078YOPC   C2B15292  13.224  16.196   7.020 -0.1109 -0.2910  0.0524
 1078YOPC   D3B15293  13.284  16.201   7.430 -0.0122 -0.2889  0.0269
 1078YOPC   C4B15294  13.416  16.126   7.819  0.0827 -0.3401 -0.1321
 1079YOPC   NC315295  17.885   4.840   4.953 -0.2831 -0.0766 -0.2958
 1079YOPC   PO415296  17.507   4.937   5.068  0.0513 -0.0371  0.0627
 1079YOPC   GL115297  17.681   5.094   5.419  0.0252 -0.3474 -0.1031
 1079YOPC   GL215298  18.069   4.978   5.459 -0.0775 -0.0712  0.1074
 1079YOPC   C1A15299  17.661   4.968   5.817 -0.0410  0.2256 -0.1247
 1079YOPC   D2A15300  17.771   4.772   6.215  0.2300 -0.3322  0.2635
 1079YOPC   C3A15301  18.148   4.773   6.418  0.2689  0.1408  0.0969
 1079YOPC   C4A15302  18.568   4.828   6.558 -0.3617 -0.1790  0.1841
 1079YOPC   C1B15303  18.183   4.998   5.940 -0.3496 -0.0934  0.0778
 1079YOPC   C2B15304  18.399   5.246   6.329  0.1754  0.0364  0.3973
 1079YOPC   D3B15305  18.341   5.667   6.507  0.3663 -0.0187  0.1058
 1079YOPC   C4B15306  18.297   6.025   6.842  0.2147 -0.3070  0.2409
 1080YOPC   NC315307   5.607   3.478   5.538  0.2149  0.0942  0.1310
 1080YOPC   PO415308   5.638   3.037   5.770  0.0704  0.1320  0.2687
 1080YOPC   GL115309   6.063   2.975   6.126  0.0319 -0.0574  0.1641
 1080YOPC   GL215310   6.249   2.680   6.061 -0.4260 -0.0917  0.2221
 1080YOPC   C1A15311   5.993   3.104   6.605  0.1697 -0.2494  0.0438
 1080YOPC   D2A15312   5.930   3.338   7.013 -0.4578 -0.2621  0.2526
 1080YOPC   C3A15313   5.646   3.456   7.243  0.1931 -0.0844  0.0765
 1080YOPC   C4A15314   5.209   3.628   7.441  0.0691  0.3941 -0.1322
 1080YOPC   C1B15315   6.384   2.900   6.471  0.3662  0.1898 -0.2544
 1080YOPC   C2B15316   6.353   3.030   6.969  0.1830  0.2253 -0.4353
 1080YOPC   D3B15317   6.652   2.888   7.229  0.2063 -0.0764 -0.2552
 1080YOPC   C4B15318   7.104   3.031   7.314 -0.1211  0.1399  0.1509
 1081YOPC   NC315319   4.188  13.795   5.436 -0.2498 -0.0576 -0.1714
 1081YOPC   PO415320   3.819  14.032   5.499 -0.1679  0.2143 -0.0022
 1081YOPC   GL115321   3.749  13.589   5.435 -0.1183  0.3302 -0.0538
 1081YOPC   GL215322   3.925  13.461   5.784  0.0781  0.2294  0.0864
 1081YOPC   C1A15323   3.480  13.324   5.723 -0.0113  0.3263  0.2952
 1081YOPC   D2A15324   3.144  13.026   5.882  0.0423 -0.1956  0.0473
 1081YOPC   C3A15325   3.009  12.957   6.285  0.1551 -0.2627  0.1778
 1081YOPC   C4A15326   2.926  13.098   6.695  0.0336 -0.1875 -0.1959
 1081YOPC   C1B15327   3.918  13.734   6.155 -0.0777 -0.2531  0.1499
 1081YOPC   C2B15328   3.813  14.121   6.372  0.1583  0.1610  0.1623
 1081YOPC   D3B15329   3.931  14.157   6.752  0.2536 -0.2735 -0.1359
 1081YOPC   C4B15330   3.744  14.157   7.027  0.1003 -0.0007  0.2104
 1082YOPC   NC315331   5.942  11.034   5.267 -0.0758 -0.0332  0.0889
 1082YOPC   PO415332   6.248  11.276   5.556 -0.0146 -0.2449  0.0210
 1082YOPC   GL115333   6.167  11.163   5.938 -0.2415  0.1686  0.0261
 1082YOPC   GL215334   6.027  11.522   5.986  0.3133  0.1717 -0.2614
 1082YOPC   C1A15335   6.177  11.150   6.302 -0.0584  0.0778  0.1819
 1082YOPC   D2A15336   6.296  11.144   6.743  0.1699  0.0560 -0.3287
 1082YOPC   C3A15337   5.999  11.136   7.123  0.1617  0.3079  0.2353
 1082YOPC   C4A15338   5.685  11.165   7.407  0.0544 -0.2780  0.0805
 1082YOPC   C1B15339   5.923  11.660   6.323 -0.1256  0.1021  0.0332
 1082YOPC   C2B15340   5.824  11.485   6.750 -0.0053  0.0243 -0.0459
 1082YOPC   D3B15341   5.506  11.538   7.088  0.0365  0.0384 -0.1243
 1082YOPC   C4B15342   5.259  11.444   7.340 -0.0660 -0.0779 -0.2141
 1083YOPC   NC315343   3.903  15.519   5.396 -0.2624  0.1488  0.3684
 1083YOPC   PO415344   3.898  15.040   5.476 -0.0924  0.0749  0.4717
 1083YOPC   GL115345   4.075  15.146   5.908 -0.2363  0.0418 -0.0785
 1083YOPC   GL215346   3.873  15.383   5.923 -0.3855 -0.3184 -0.1461
 1083YOPC   C1A15347   4.055  15.187   6.380  0.0439 -0.1924 -0.1980
 1083YOPC   D2A15348   3.877  15.257   6.657 -0.3405 -0.4545 -0.0307
 1083YOPC   C3A15349   3.924  15.593   6.775  0.1699  0.0700  0.1218
 1083YOPC   C4A15350   4.285  15.675   7.011  0.0152 -0.1741 -0.0708
 1083YOPC   C1B15351   3.998  15.691   6.227  0.0666 -0.1519  0.0552
 1083YOPC   C2B15352   3.971  15.968   6.473  0.0595 -0.0082  0.2591
 1083YOPC   D3B15353   4.115  16.331   6.323 -0.2007  0.3596  0.3331
 1083YOPC   C4B15354   4.323  16.654   6.062 -0.0752  0.3357 -0.0665
 1084YOPC   NC315355  16.362   1.659   5.667 -0.0003 -0.2196  0.1728
 1084YOPC   PO415356  16.689   1.770   5.798  0.2586  0.1853 -0.1089
 1084YOPC   GL115357  16.905   1.990   6.160 -0.1438  0.0385 -0.3069
 1084YOPC   GL215358  17.181   2.212   6.147  0.0549  0.3003  0.1294
 1084YOPC   C1A15359  16.828   2.116   6.539  0.2066 -0.1725 -0.1484
 1084YOPC   D2A15360  16.626   2.374   6.836  0.0942 -0.2576  0.1083
 1084YOPC   C3A15361  16.595   2.043   7.219  0.0712 -0.1429 -0.1268
 1084YOPC   C4A15362  16.337   1.847   7.594  0.1958  0.1885  0.1597
 1084YOPC   C1B15363  17.430   2.247   6.542  0.1719 -0.1617  0.0825
 1084YOPC   C2B15364  17.241   2.300   6.868 -0.0101 -0.0841 -0.1091
 1084YOPC   D3B15365  17.366   2.616   7.033  0.2709 -0.2668  0.0179
 1084YOPC   C4B15366  17.537   2.790   7.423 -0.1672 -0.0462  0.0429
 1085YOPC   NC315367  17.876   9.892   5.324  0.0925  0.0176 -0.4921
 1085YOPC   PO415368  17.626  10.180   5.447 -0.1497 -0.0009 -0.1248
 1085YOPC   GL115369  17.971  10.118   5.758 -0.2529  0.1573 -0.1288
 1085YOPC   GL215370  18.207   9.868   5.680  0.1038 -0.1260 -0.0994
 1085YOPC   C1A15371  17.945   9.975   6.232  0.1391 -0.2355 -0.0533
 1085YOPC   D2A15372  17.721   9.733   6.498  0.3206  0.2867  0.2370
 1085YOPC   C3A15373  17.518   9.974   6.762  0.0146  0.0031 -0.1634
 1085YOPC   C4A15374  17.452  10.284   7.111 -0.3280 -0.1930  0.0066
 1085YOPC   C1B15375  18.395  10.012   6.002  0.0461  0.1005  0.1642
 1085YOPC   C2B15376  18.463   9.776   6.432  0.3209  0.1193 -0.0127
 1085YOPC   D3B15377  18.754   9.753   6.797  0.0815 -0.0566 -0.1960
 1085YOPC   C4B15378  18.893   9.753   7.163  0.0847  0.2834 -0.1178
 1086YOPC   NC315379   9.093   1.018   5.494  0.3462  0.0101  0.0917
 1086YOPC   PO415380   9.169   0.557   5.458  0.0021 -0.1572  0.0324
 1086YOPC   GL115381   9.047   0.606   5.858 -0.0975  0.1100 -0.0393
 1086YOPC   GL215382   8.765   0.669   5.790 -0.0765 -0.4420 -0.1518
 1086YOPC   C1A15383   8.919   0.869   6.190  0.0518 -0.1302  0.0802
 1086YOPC   D2A15384   9.049   0.983   6.537  0.2214  0.1261  0.0476
 1086YOPC   C3A15385   9.069   1.253   6.784  0.2707 -0.0206 -0.1605
 1086YOPC   C4A15386   8.826   1.379   7.137  0.0331 -0.0620  0.2234
 1086YOPC   C1B15387   8.470   0.918   6.014  0.2670  0.0416  0.1191
 1086YOPC   C2B15388   8.225   0.629   6.296  0.2649  0.2077  0.0302
 1086YOPC   D3B15389   8.110   0.821   6.669 -0.1934  0.1444  0.0627
 1086YOPC   C4B15390   7.787   1.211   6.699 -0.0289  0.0614 -0.0278
 1087YOPC   NC315391  16.484   3.689   4.941  0.2370 -0.1390 -0.0074
 1087YOPC   PO415392  16.503   4.082   5.016 -0.0262  0.0566 -0.2785
 1087YOPC   GL115393  16.443   3.976   5.345 -0.2089  0.0932 -0.1409
 1087YOPC   GL215394  16.605   4.217   5.480 -0.3331  0.0366 -0.4025
 1087YOPC   C1A15395  16.597   3.809   5.773  0.1454  0.2092  0.1248
 1087YOPC   D2A15396  16.921   3.550   5.917 -0.2499 -0.1251  0.0208
 1087YOPC   C3A15397  17.253   3.435   6.137 -0.1719 -0.1296  0.5413
 1087YOPC   C4A15398  17.452   3.038   6.324 -0.1990  0.0131 -0.0685
 1087YOPC   C1B15399  16.463   4.265   5.933 -0.0989  0.2546 -0.1447
 1087YOPC   C2B15400  16.748   4.179   6.279 -0.2831  0.0049 -0.2003
 1087YOPC   D3B15401  16.744   4.262   6.583 -0.2089 -0.1028 -0.1236
 1087YOPC   C4B15402  16.800   4.149   7.029  0.2512 -0.2321 -0.0708
 1088YOPC   NC315403  15.754  11.394   4.901 -0.1150  0.1759  0.0516
 1088YOPC   PO415404  15.856  11.389   5.301 -0.3335 -0.4149  0.1544
 1088YOPC   GL115405  15.716  11.245   5.717  0.3245 -0.0275  0.0039
 1088YOPC   GL215406  15.388  11.154   5.675  0.1236  0.2457 -0.0103
 1088YOPC   C1A15407  15.850  11.321   6.105 -0.2430  0.0562 -0.1145
 1088YOPC   D2A15408  15.811  11.305   6.491 -0.1031 -0.2741  0.0506
 1088YOPC   C3A15409  15.928  11.666   6.729 -0.1483 -0.0025 -0.1647
 1088YOPC   C4A15410  15.986  12.077   6.833  0.1394 -0.0703  0.1271
 1088YOPC   C1B15411  15.373  11.044   6.148 -0.3075 -0.1862  0.3481
 1088YOPC   C2B15412  15.331  11.166   6.599  0.1643 -0.3691  0.0316
 1088YOPC   D3B15413  15.201  10.890   6.955  0.1090  0.2937  0.1053
 1088YOPC   C4B15414  14.808  10.965   7.083 -0.0922  0.1812 -0.1574
 1089YOPC   NC315415   0.507  10.757   5.163  0.0968  0.2677 -0.1194
 1089YOPC   PO415416   0.141  10.979   5.240  0.1509  0.1062  0.6003
 1089YOPC   GL115417   0.182  11.154   5.664 -0.0580  0.0589 -0.2814
 1089YOPC   GL215418   0.189  11.364   5.676 -0.1215 -0.0270  0.1724
 1089YOPC   C1A15419   0.225  10.977   6.014  0.3444  0.1651 -0.3587
 1089YOPC   D2A15420   0.351  10.601   6.255 -0.0349 -0.0081 -0.0646
 1089YOPC   C3A15421   0.360  10.419   6.667 -0.0509 -0.3029 -0.0080
 1089YOPC   C4A15422   0.351  10.096   7.021  0.0125 -0.2442 -0.1683
 1089YOPC   C1B15423   0.160  11.658   5.945  0.0665 -0.0563 -0.0817
 1089YOPC   C2B15424   0.086  11.893   6.298 -0.1352 -0.0019 -0.0688
 1089YOPC   D3B15425   0.019  11.733   6.688  0.0304  0.1794 -0.0405
 1089YOPC   C4B15426  -0.003  11.737   7.172  0.1496  0.0781  0.2459
 1090YOPC   NC315427  13.188   9.907   5.689  0.1045  0.2141  0.4038
 1090YOPC   PO415428  12.906   9.759   5.875 -0.2979 -0.0582 -0.0551
 1090YOPC   GL115429  12.853   9.824   6.284  0.3632  0.2043  0.1124
 1090YOPC   GL215430  12.997   9.682   6.521 -0.2011  0.0679  0.1773
 1090YOPC   C1A15431  12.433  10.124   6.440 -0.3140 -0.0176 -0.1705
 1090YOPC   D2A15432  12.440  10.400   6.749  0.1859 -0.0362 -0.0087
 1090YOPC   C3A15433  12.388  10.762   6.648 -0.0022 -0.1871  0.3921
 1090YOPC   C4A15434  12.674  11.035   6.552 -0.3706 -0.1409  0.3051
 1090YOPC   C1B15435  13.101   9.821   6.924 -0.1051 -0.2949  0.0636
 1090YOPC   C2B15436  13.193   9.882   7.362 -0.0677 -0.2968  0.1507
 1090YOPC   D3B15437  13.282   9.614   7.624 -0.1014  0.1211 -0.2730
 1090YOPC   C4B15438  13.380   9.347   8.004  0.3588 -0.0943  0.1248
 1091YOPC   NC315439  13.750   2.957   5.274  0.2377 -0.1372  0.1103
 1091YOPC   PO415440  13.968   3.311   5.164 -0.1457 -0.0135  0.0109
 1091YOPC   GL115441  14.012   3.471   5.616 -0.1823 -0.0310 -0.2467
 1091YOPC   GL215442  14.122   3.910   5.627  0.1045 -0.0902  0.0024
 1091YOPC   C1A15443  14.202   3.400   6.099  0.1367  0.1828 -0.1748
 1091YOPC   D2A15444  14.559   3.370   6.316  0.0017  0.5077 -0.1360
 1091YOPC   C3A15445  14.835   3.773   6.554  0.5239 -0.1220 -0.3599
 1091YOPC   C4A15446  14.994   3.898   6.950 -0.0461  0.0394 -0.0748
 1091YOPC   C1B15447  14.478   3.674   5.763 -0.0188  0.1470 -0.0768
 1091YOPC   C2B15448  14.897   3.477   5.833 -0.0801 -0.0404 -0.2012
 1091YOPC   D3B15449  14.740   3.070   5.970 -0.0379 -0.2580  0.0499
 1091YOPC   C4B15450  14.768   2.800   6.273  0.4418 -0.2841  0.3045
 1092YOPC   NC315451   5.412  17.973   5.107  0.0206 -0.2102  0.0248
 1092YOPC   PO415452   5.126  18.036   5.523 -0.3273  0.1333  0.1119
 1092YOPC   GL115453   5.099  17.897   5.919 -0.0096 -0.3042 -0.2112
 1092YOPC   GL215454   5.315  18.165   6.178  0.1901 -0.0830 -0.1007
 1092YOPC   C1A15455   4.950  17.689   6.369 -0.2449  0.1572 -0.2567
 1092YOPC   D2A15456   5.045  17.827   6.772 -0.4878  0.1191 -0.1540
 1092YOPC   C3A15457   4.949  18.206   7.031 -0.2162  0.1693 -0.0455
 1092YOPC   C4A15458   5.055  18.574   7.358  0.0611 -0.0958  0.1347
 1092YOPC   C1B15459   5.186  18.257   6.570  0.0025  0.2684  0.0618
 1092YOPC   C2B15460   4.709  18.471   6.726 -0.1191 -0.1682  0.2839
 1092YOPC   D3B15461   4.670  18.687   7.070  0.3547  0.1603 -0.0045
 1092YOPC   C4B15462   4.603  18.787   7.492 -0.0364  0.1648  0.0426
 1093YOPC   NC315463  18.036  11.773   5.369  0.0525  0.2319  0.3465
 1093YOPC   PO415464  18.426  11.639   5.134 -0.0380 -0.0523  0.1476
 1093YOPC   GL115465  18.562  11.725   5.507 -0.0371  0.1264  0.0133
 1093YOPC   GL215466  18.550  11.555   5.782 -0.0035  0.1798  0.1256
 1093YOPC   C1A15467  18.517  12.110   5.673 -0.2778 -0.1250  0.2072
 1093YOPC   D2A15468  18.420  12.218   6.178 -0.1191 -0.0146 -0.1336
 1093YOPC   C3A15469  18.496  11.836   6.355 -0.1981 -0.0363  0.0266
 1093YOPC   C4A15470  18.475  11.481   6.591 -0.3367  0.0932 -0.0278
 1093YOPC   C1B15471  18.721  11.350   6.184  0.0952  0.1170 -0.1046
 1093YOPC   C2B15472  18.947  11.254   6.532  0.4773  0.1950 -0.0484
 1093YOPC   D3B15473  19.199  11.348   6.900  0.0817  0.0426 -0.0110
 1093YOPC   C4B15474  19.166  11.376   7.329 -0.2809 -0.0782 -0.2025
 1094YOPC   NC315475  11.858  10.733   5.461  0.0585  0.1159  0.1246
 1094YOPC   PO415476  11.689  10.324   5.621 -0.1155  0.2250 -0.1267
 1094YOPC   GL115477  11.683  10.636   5.921 -0.1683 -0.2699  0.1222
 1094YOPC   GL215478  11.522  10.377   6.151 -0.1398  0.1168  0.1790
 1094YOPC   C1A15479  11.882  10.846   6.345 -0.3963 -0.2269 -0.3414
 1094YOPC   D2A15480  11.835  10.922   6.728  0.2450  0.1013 -0.0954
 1094YOPC   C3A15481  12.179  10.824   7.097 -0.0141  0.0110  0.1994
 1094YOPC   C4A15482  12.418  10.802   7.502  0.5209 -0.3014 -0.1912
 1094YOPC   C1B15483  11.219  10.116   6.277 -0.1252 -0.0140  0.1594
 1094YOPC   C2B15484  10.984   9.859   6.396  0.2992  0.1363  0.0629
 1094YOPC   D3B15485  10.866   9.922   6.860  0.0427 -0.3518 -0.2453
 1094YOPC   C4B15486  10.891  10.249   7.193 -0.1030 -0.1042 -0.3875
 1095YOPC   NC315487   0.724  14.911   5.547  0.2708 -0.0581 -0.0823
 1095YOPC   PO415488   0.461  15.314   5.669  0.2842  0.3599 -0.1848
 1095YOPC   GL115489   0.272  15.419   6.006  0.2801 -0.0420 -0.3234
 1095YOPC   GL215490   0.500  15.548   6.219 -0.2096 -0.1798 -0.1659
 1095YOPC   C1A15491   0.065  15.169   6.480 -0.3361  0.1139  0.0838
 1095YOPC   D2A15492  -0.044  15.065   6.875  0.1459 -0.1469 -0.0824
 1095YOPC   C3A15493   0.118  15.162   7.232  0.0976  0.2340  0.2483
 1095YOPC   C4A15494   0.240  15.248   7.648 -0.2128 -0.1046  0.0788
 1095YOPC   C1B15495   0.522  15.174   6.442  0.2222 -0.1299  0.0206
 1095YOPC   C2B15496   0.463  15.134   6.788 -0.1299  0.0843 -0.0348
 1095YOPC   D3B15497   0.682  15.079   7.112  0.0570 -0.0770  0.0073
 1095YOPC   C4B15498   0.655  15.055   7.513  0.0393 -0.1935 -0.0625
 1096YOPC   NC315499  12.828   9.459   5.528  0.0569 -0.2823  0.0610
 1096YOPC   PO415500  13.275   9.326   5.639  0.0013 -0.0792  0.1699
 1096YOPC   GL115501  13.253   9.114   5.973 -0.0165  0.0123 -0.0618
 1096YOPC   GL215502  12.999   9.298   6.058  0.1387  0.1024 -0.0702
 1096YOPC   C1A15503  13.454   8.952   6.408  0.2605  0.2765  0.0168
 1096YOPC   D2A15504  13.375   8.766   6.788 -0.0952  0.2545  0.0238
 1096YOPC   C3A15505  13.263   9.025   7.069 -0.3281  0.3723 -0.1711
 1096YOPC   C4A15506  13.259   9.081   7.432  0.2638  0.0824  0.1829
 1096YOPC   C1B15507  13.004   9.229   6.474 -0.2361  0.0082 -0.0985
 1096YOPC   C2B15508  12.879   9.332   6.851 -0.0908  0.1307 -0.1043
 1096YOPC   D3B15509  12.927   9.461   7.196 -0.1702 -0.1826  0.2011
 1096YOPC   C4B15510  12.795   9.430   7.522  0.1320  0.0427  0.0658
 1097YOPC   NC315511   9.171   3.899   5.346 -0.0204 -0.0827 -0.0395
 1097YOPC   PO415512   9.402   4.266   5.420  0.0004  0.2082  0.2160
 1097YOPC   GL115513   9.356   4.430   5.826 -0.1299 -0.3014 -0.1898
 1097YOPC   GL215514   9.601   4.494   6.029 -0.1009 -0.0518 -0.0325
 1097YOPC   C1A15515   9.202   4.267   6.260  0.1566  0.2174  0.3183
 1097YOPC   D2A15516   9.109   3.902   6.473  0.1944  0.2378 -0.1852
 1097YOPC   C3A15517   8.852   4.022   6.842  0.0958  0.0816 -0.3736
 1097YOPC   C4A15518   8.790   3.992   7.235 -0.0654  0.1959  0.3273
 1097YOPC   C1B15519   9.534   4.637   6.455 -0.4011 -0.0196 -0.1921
 1097YOPC   C2B15520   9.633   4.563   6.847 -0.0141  0.1082  0.1992
 1097YOPC   D3B15521  10.058   4.393   6.931  0.1261  0.1206  0.2478
 1097YOPC   C4B15522  10.191   4.097   6.814 -0.2164  0.3785 -0.1680
 1098YOPC   NC315523  17.707   6.469   4.789 -0.2766  0.0151  0.0576
 1098YOPC   PO415524  18.003   6.354   5.012  0.1674 -0.1192  0.0519
 1098YOPC   GL115525  18.167   6.343   5.504  0.1512  0.1032  0.0772
 1098YOPC   GL215526  18.168   6.004   5.714 -0.0808  0.0058 -0.2286
 1098YOPC   C1A15527  18.134   6.442   5.945  0.1887  0.3715 -0.0166
 1098YOPC   D2A15528  18.168   6.379   6.379  0.1918 -0.2564 -0.0485
 1098YOPC   C3A15529  18.275   6.675   6.784  0.2374  0.1851 -0.2230
 1098YOPC   C4A15530  18.061   6.806   7.198  0.1439  0.3054 -0.3192
 1098YOPC   C1B15531  18.077   5.910   6.172 -0.0665 -0.1235  0.0965
 1098YOPC   C2B15532  17.869   5.990   6.475  0.0794  0.0793  0.4548
 1098YOPC   D3B15533  17.832   5.718   6.784  0.0653 -0.0183 -0.0626
 1098YOPC   C4B15534  18.110   5.526   6.978 -0.1171  0.0620 -0.2071
 1099YOPC   NC315535   8.780   0.199   5.608 -0.1505  0.0693 -0.0130
 1099YOPC   PO415536   8.418   0.198   5.558 -0.1050 -0.2237  0.1621
 1099YOPC   GL115537   8.352   0.342   5.924 -0.1713 -0.2790 -0.2646
 1099YOPC   GL215538   8.401   0.069   6.145  0.2461  0.1283  0.1857
 1099YOPC   C1A15539   8.723   0.435   6.278 -0.0281  0.0380 -0.3257
 1099YOPC   D2A15540   8.581   0.849   6.553  0.0604  0.0169  0.1661
 1099YOPC   C3A15541   8.798   0.920   6.944 -0.0908 -0.3566  0.2106
 1099YOPC   C4A15542   8.998   0.938   7.409 -0.0527 -0.0705  0.2300
 1099YOPC   C1B15543   8.319   0.238   6.566  0.2616  0.2591  0.1205
 1099YOPC   C2B15544   8.462   0.582   6.975  0.0987  0.1227 -0.0910
 1099YOPC   D3B15545   8.164   0.525   7.370 -0.0662  0.1947  0.1763
 1099YOPC   C4B15546   8.046   0.695   7.791  0.3677  0.1976  0.0770
 1100YOPC   NC315547   2.061   8.971   5.126 -0.0448 -0.2774  0.0939
 1100YOPC   PO415548   2.084   9.386   4.913 -0.4055 -0.1130  0.4623
 1100YOPC   GL115549   2.137   9.375   5.452 -0.1361  0.1847  0.2209
 1100YOPC   GL215550   2.196   9.016   5.615 -0.2851  0.1296 -0.0185
 1100YOPC   C1A15551   2.237   9.595   5.888 -0.0009  0.0189  0.2509
 1100YOPC   D2A15552   2.550   9.565   6.123 -0.1580  0.0926 -0.0788
 1100YOPC   C3A15553   2.618   9.289   6.427  0.4564 -0.0653 -0.2602
 1100YOPC   C4A15554   2.521   9.306   6.869 -0.2938  0.3894 -0.2724
 1100YOPC   C1B15555   2.122   8.602   5.848  0.0578  0.1575  0.1398
 1100YOPC   C2B15556   1.839   8.265   5.891  0.0993  0.0147 -0.2693
 1100YOPC   D3B15557   1.411   8.319   5.936 -0.4734 -0.0701 -0.0394
 1100YOPC   C4B15558   1.168   8.704   5.825 -0.0525  0.2648 -0.2619
 1101YOPC   NC315559   3.002  12.615   5.704 -0.1192 -0.1179  0.2371
 1101YOPC   PO415560   2.610  12.524   5.789 -0.2400  0.3435 -0.0763
 1101YOPC   GL115561   2.644  12.969   5.904 -0.0488 -0.1549 -0.0572
 1101YOPC   GL215562   2.535  12.873   6.177  0.0724 -0.2325  0.0149
 1101YOPC   C1A15563   2.782  13.343   6.094 -0.2660  0.0046  0.2208
 1101YOPC   D2A15564   3.297  13.497   6.169  0.1479  0.2057 -0.1673
 1101YOPC   C3A15565   3.208  13.488   6.581  0.4133 -0.1329  0.0619
 1101YOPC   C4A15566   3.394  13.312   6.888  0.0945  0.1045  0.0952
 1101YOPC   C1B15567   2.607  12.707   6.608 -0.2911  0.1980  0.0201
 1101YOPC   C2B15568   2.728  12.769   7.117  0.3013  0.0675  0.1557
 1101YOPC   D3B15569   3.057  12.993   7.144 -0.1767 -0.3581  0.4617
 1101YOPC   C4B15570   3.514  12.917   7.172 -0.0058 -0.1480 -0.0106
 1102YOPC   NC315571   5.303   4.396   5.396 -0.0742  0.1049 -0.1609
 1102YOPC   PO415572   5.047   4.798   5.410  0.0231 -0.0457  0.1960
 1102YOPC   GL115573   4.978   4.739   5.788 -0.0360  0.0969 -0.1469
 1102YOPC   GL215574   4.979   4.398   5.851 -0.2617 -0.2221 -0.4717
 1102YOPC   C1A15575   4.613   4.651   6.041  0.1351  0.1693 -0.2546
 1102YOPC   D2A15576   4.561   4.505   6.430 -0.2139 -0.2509 -0.1554
 1102YOPC   C3A15577   4.903   4.725   6.691 -0.0276 -0.2640  0.0962
 1102YOPC   C4A15578   5.116   5.201   6.704 -0.1592 -0.1839  0.1347
 1102YOPC   C1B15579   5.030   4.401   6.324 -0.0500 -0.0827  0.3835
 1102YOPC   C2B15580   5.236   4.253   6.706 -0.1172 -0.2621  0.0989
 1102YOPC   D3B15581   5.123   4.090   7.144 -0.0776  0.2894  0.0789
 1102YOPC   C4B15582   5.044   4.108   7.546  0.2550 -0.0640  0.4765
 1103ERGO   ROH15583   0.027  14.407   6.205 -0.1316  0.2397 -0.0022
 1103ERGO    R115584  -0.096  14.242   6.399  0.0094  0.3098  0.1486
 1103ERGO    R215585  -0.043  13.972   6.421 -0.1821  0.2619  0.0181
 1103ERGO    R315586   0.012  14.037   6.679  0.2464  0.1696 -0.0404
 1103ERGO    R415587  -0.001  13.744   6.678  0.0817  0.1711 -0.1007
 1103ERGO    R515588  -0.112  13.879   6.809  0.3483  0.2043  0.1079
 1103ERGO    C115589   0.075  13.673   7.070  0.6375  0.0316 -0.2247
 1103ERGO    C215590   0.188  13.604   7.367  0.0744 -0.3542  0.0868
 1104ERGO   ROH15591  15.602   8.639   5.958 -0.2025 -0.2310 -0.0120
 1104ERGO    R115592  15.388   8.762   6.095 -0.1413 -0.1835  0.0415
 1104ERGO    R215593  15.254   8.640   6.304 -0.1164 -0.1542  0.0744
 1104ERGO    R315594  15.318   8.869   6.436 -0.0332 -0.1680  0.0591
 1104ERGO    R415595  15.148   8.720   6.623  0.1390 -0.2178  0.1781
 1104ERGO    R515596  15.119   8.925   6.556  0.0589 -0.2104  0.2348
 1104ERGO    C115597  15.146   8.981   6.933  0.3659 -0.2678  0.2240
 1104ERGO    C215598  15.307   9.033   7.281 -0.5854  0.0695  0.2647
 1105ERGO   ROH15599   4.302   7.020   5.917  0.1092  0.1287  0.0135
 1105ERGO    R115600   4.376   7.077   6.184  0.1094 -0.0728  0.0564
 1105ERGO    R215601   4.280   7.297   6.321  0.2698 -0.0677  0.1489
 1105ERGO    R315602   4.207   7.110   6.505  0.0820 -0.0987  0.0465
 1105ERGO    R415603   4.168   7.368   6.640  0.4555 -0.1204  0.2293
 1105ERGO    R515604   4.284   7.199   6.714  0.2644 -0.3287  0.0862
 1105ERGO    C115605   4.032   7.235   6.998  0.3873 -0.1803  0.1801
 1105ERGO    C215606   3.809   7.408   7.263 -0.3134  0.2947 -0.0712
 1106ERGO   ROH15607   4.563   4.083   5.723 -0.0374 -0.0709 -0.0528
 1106ERGO    R115608   4.534   3.945   5.968 -0.1635  0.0067 -0.0223
 1106ERGO    R215609   4.746   3.900   6.139 -0.1811 -0.2274 -0.0545
 1106ERGO    R315610   4.582   4.019   6.321 -0.0018  0.0131 -0.0454
 1106ERGO    R415611   4.817   3.938   6.476 -0.0831 -0.2697 -0.0705
 1106ERGO    R515612   4.609   3.889   6.520 -0.1410  0.0058 -0.0319
 1106ERGO    C115613   4.704   4.071   6.841  0.1422 -0.0686 -0.0713
 1106ERGO    C215614   4.605   4.072   7.183 -0.1210 -0.0634  0.0107
 1107ERGO   ROH15615  16.410   4.794   5.698  0.2111  0.1775 -0.0130
 1107ERGO    R115616  16.303   4.844   5.955  0.1825  0.0869 -0.0067
 1107ERGO    R215617  16.319   4.659   6.160  0.1033 -0.0123 -0.0864
 1107ERGO    R315618  16.432   4.866   6.295  0.1358 -0.1013  0.0241
 1107ERGO    R415619  16.413   4.650   6.493  0.0705 -0.1875 -0.0810
 1107ERGO    R515620  16.337   4.853   6.515  0.1141 -0.1831  0.0083
 1107ERGO    C115621  16.575   4.839   6.812  0.0819 -0.3731  0.0259
 1107ERGO    C215622  16.574   4.658   7.073 -0.1999 -0.3535  0.3074
 1108ERGO   ROH15623  12.833  13.646   6.386  0.2215  0.0351 -0.1532
 1108ERGO    R115624  12.791  13.711   6.658  0.1168  0.0271 -0.1664
 1108ERGO    R215625  12.715  13.524   6.846 -0.0315  0.0355 -0.2139
 1108ERGO    R315626  12.935  13.614   6.978 -0.0617 -0.0460 -0.1083
 1108ERGO    R415627  12.743  13.546   7.190 -0.1848  0.0227 -0.2001
 1108ERGO    R515628  12.846  13.736   7.164 -0.1038 -0.0160 -0.1497
 1108ERGO    C115629  12.966  13.643   7.514 -0.3023 -0.0612 -0.0930
 1108ERGO    C215630  12.980  13.598   7.951 -0.1458  0.1663 -0.3063
 1109ERGO   ROH15631   6.508  11.622   5.873 -0.0348  0.2653  0.0598
 1109ERGO    R115632   6.568  11.607   6.149 -0.0238  0.2119  0.0556
 1109ERGO    R215633   6.476  11.793   6.332  0.0577  0.2293  0.0839
 1109ERGO    R315634   6.382  11.573   6.460 -0.0204  0.2506  0.0614
 1109ERGO    R415635   6.371  11.787   6.661  0.4120  0.1497  0.1989
 1109ERGO    R515636   6.468  11.593   6.683  0.2450  0.0393 -0.0191
 1109ERGO    C115637   6.222  11.577   6.973  0.5451  0.1233  0.2447
 1109ERGO    C215638   6.016  11.610   7.243 -0.1688  0.4732 -0.0206
 1110ERGO   ROH15639   7.947   9.460   9.780 -0.0772  0.1130  0.0306
 1110ERGO    R115640   7.853   9.530   9.522  0.0012  0.0742 -0.0094
 1110ERGO    R215641   8.015   9.649   9.332  0.0753 -0.0051  0.0009
 1110ERGO    R315642   7.932   9.440   9.179  0.0667 -0.0238  0.0313
 1110ERGO    R415643   7.943   9.668   8.995  0.0865 -0.0565 -0.0041
 1110ERGO    R515644   7.773   9.536   9.028  0.0782 -0.0392  0.0111
 1110ERGO    C115645   7.824   9.483   8.654  0.0848 -0.1038  0.0215
 1110ERGO    C215646   7.602   9.418   8.549  0.1577  0.1426 -0.0328
 1111ERGO   ROH15647   9.771   2.448   6.071  0.2956  0.1405  0.0146
 1111ERGO    R115648   9.877   2.358   6.318  0.2201  0.1267  0.0442
 1111ERGO    R215649  10.127   2.431   6.408  0.1764  0.1727  0.1577
 1111ERGO    R315650   9.989   2.509   6.629  0.0618  0.1105  0.1070
 1111ERGO    R415651  10.262   2.459   6.725  0.0724  0.3954  0.1831
 1111ERGO    R515652  10.078   2.373   6.805  0.1431  0.2533  0.1669
 1111ERGO    C115653  10.212   2.549   7.117 -0.0958  0.4667  0.1503
 1111ERGO    C215654  10.247   2.652   7.436  0.3254  0.0208  0.1763
 1112ERGO   ROH15655   6.413  11.931   9.716 -0.0337 -0.2158  0.0265
 1112ERGO    R115656   6.348  11.852   9.452 -0.0127 -0.0876 -0.0175
 1112ERGO    R215657   6.405  12.009   9.232 -0.1144  0.0820  0.0757
 1112ERGO    R315658   6.529  11.784   9.145  0.0013  0.2002 -0.0778
 1112ERGO    R415659   6.448  11.923   8.900 -0.2213  0.2529  0.0160
 1112ERGO    R515660   6.403  11.716   8.953 -0.0530  0.1937 -0.0438
 1112ERGO    C115661   6.590  11.661   8.625 -0.1750  0.4633 -0.1630
 1112ERGO    C215662   6.616  11.549   8.364  0.0502  0.0591 -0.0397
 1113ERGO   ROH15663   2.782   5.158   5.763  0.1171  0.2749  0.0283
 1113ERGO    R115664   2.930   5.142   6.004  0.0463  0.1865  0.0661
 1113ERGO    R215665   2.814   5.168   6.252 -0.0381  0.0142  0.0436
 1113ERGO    R315666   2.934   4.929   6.298  0.0183  0.0254 -0.0488
 1113ERGO    R415667   2.810   5.000   6.555 -0.1226 -0.1736 -0.0599
 1113ERGO    R515668   3.019   4.947   6.522 -0.0904 -0.0844  0.0024
 1113ERGO    C115669   2.921   4.678   6.774 -0.1188 -0.2725 -0.2069
 1113ERGO    C215670   2.931   4.694   7.108  0.0587  0.0080  0.1964
 1114ERGO   ROH15671  13.255  10.482   5.959  0.0653  0.0702  0.0111
 1114ERGO    R115672  13.256  10.378   6.222 -0.0045  0.0122 -0.0119
 1114ERGO    R215673  13.335  10.119   6.279  0.0544  0.0282 -0.0405
 1114ERGO    R315674  13.505  10.243   6.451 -0.0522  0.0399  0.0584
 1114ERGO    R415675  13.405  10.011   6.599  0.0121 -0.0784 -0.0664
 1114ERGO    R515676  13.401  10.218   6.666 -0.1065 -0.1024  0.0206
 1114ERGO    C115677  13.605  10.064   6.948 -0.1127 -0.1296  0.0114
 1114ERGO    C215678  13.681   9.882   7.149 -0.0159  0.2162  0.0405
 1115ERGO   ROH15679   5.689  15.731   6.310  0.1739 -0.0157 -0.1233
 1115ERGO    R115680   5.605  15.461   6.315  0.0266  0.0295 -0.1080
 1115ERGO    R215681   5.728  15.270   6.472  0.0380 -0.0653 -0.2305
 1115ERGO    R315682   5.475  15.229   6.563  0.0803  0.0607 -0.0505
 1115ERGO    R415683   5.598  14.964   6.566  0.0120  0.0300  0.0556
 1115ERGO    R515684   5.411  15.019   6.469 -0.0318  0.0122  0.1298
 1115ERGO    C115685   5.285  14.747   6.706  0.0365  0.2038  0.3912
 1115ERGO    C215686   4.931  14.591   6.783 -0.1401 -0.1091 -0.0538
 1116ERGO   ROH15687   7.029  15.862   6.052  0.0335 -0.1864 -0.1505
 1116ERGO    R115688   7.193  15.803   6.275 -0.0011 -0.1324 -0.1108
 1116ERGO    R215689   7.205  15.966   6.497 -0.0513 -0.0918 -0.1388
 1116ERGO    R315690   7.143  15.736   6.629 -0.0555 -0.0700 -0.1069
 1116ERGO    R415691   7.166  15.939   6.840  0.1871 -0.0875 -0.1093
 1116ERGO    R515692   7.270  15.748   6.832  0.0989 -0.1334 -0.1971
 1116ERGO    C115693   7.085  15.708   7.163  0.3219 -0.0646 -0.0620
 1116ERGO    C215694   6.834  15.535   7.489  0.1793  0.2949 -0.0383
 1117ERGO   ROH15695   0.926  13.862   5.933  0.0650  0.1416 -0.1399
 1117ERGO    R115696   1.030  13.771   6.179  0.0901  0.0524 -0.1825
 1117ERGO    R215697   1.167  13.936   6.353  0.2060 -0.0355 -0.1850
 1117ERGO    R315698   0.982  13.848   6.532  0.2121  0.0104 -0.1568
 1117ERGO    R415699   1.230  13.871   6.687  0.2376 -0.0526 -0.1948
 1117ERGO    R515700   1.102  13.695   6.671  0.1927 -0.0190 -0.1752
 1117ERGO    C115701   1.093  13.750   7.049  0.2618 -0.0195 -0.1740
 1117ERGO    C215702   1.115  13.760   7.413 -0.1836  0.1769  0.1005
 1118ERGO   ROH15703  17.390   1.189   6.072  0.0298 -0.1611 -0.1419
 1118ERGO    R115704  17.443   1.300   6.327 -0.0086 -0.0872 -0.1651
 1118ERGO    R215705  17.287   1.245   6.548 -0.0542 -0.0093 -0.1739
 1118ERGO    R315706  17.525   1.174   6.658 -0.0782  0.0055 -0.1131
 1118ERGO    R415707  17.390   1.329   6.867 -0.1333 -0.0013 -0.1507
 1118ERGO    R515708  17.590   1.364   6.788 -0.1182  0.0073 -0.1001
 1118ERGO    C115709  17.673   1.311   7.156 -0.2019  0.0173 -0.0801
 1118ERGO    C215710  17.876   1.545   7.417  0.0206  0.2942 -0.2838
 1119ERGO   ROH15711   4.226   9.062   6.000 -0.1187  0.1557 -0.0168
 1119ERGO    R115712   4.407   9.202   6.167 -0.0696  0.1372 -0.0568
 1119ERGO    R215713   4.333   9.304   6.412  0.0316  0.0177  0.0169
 1119ERGO    R315714   4.546   9.159   6.500  0.1211  0.0452 -0.1445
 1119ERGO    R415715   4.483   9.343   6.721  0.1278 -0.0927 -0.0135
 1119ERGO    R515716   4.677   9.317   6.625  0.1075  0.0330 -0.1051
 1119ERGO    C115717   4.769   9.229   6.985  0.2678 -0.1313 -0.1827
 1119ERGO    C215718   4.920   9.052   7.355  0.0233  0.0448  0.1703
 1120ERGO   ROH15719  15.412  13.560   9.825  0.1819 -0.0199 -0.0386
 1120ERGO    R115720  15.435  13.579   9.544  0.1582 -0.1158 -0.0484
 1120ERGO    R215721  15.234  13.681   9.385  0.1178 -0.2250 -0.0755
 1120ERGO    R315722  15.432  13.845   9.296  0.0701 -0.2051 -0.1424
 1120ERGO    R415723  15.286  13.767   9.054 -0.0286 -0.1776 -0.0859
 1120ERGO    R515724  15.500  13.748   9.088 -0.0158 -0.1714 -0.1837
 1120ERGO    C115725  15.502  13.971   8.778 -0.1586 -0.1313 -0.1549
 1120ERGO    C215726  15.410  13.908   8.425 -0.0596 -0.1168  0.2237
 1121ERGO   ROH15727   5.039   1.516   5.968  0.0303  0.0260 -0.1844
 1121ERGO    R115728   4.981   1.780   6.052  0.0190  0.0027 -0.1183
 1121ERGO    R215729   4.728   1.889   6.036  0.0122 -0.0080 -0.0803
 1121ERGO    R315730   4.767   1.938   6.301  0.0216 -0.0690 -0.0702
 1121ERGO    R415731   4.506   2.057   6.241  0.0139 -0.0661 -0.0304
 1121ERGO    R515732   4.676   2.157   6.335  0.0137 -0.0810 -0.0142
 1121ERGO    C115733   4.415   2.201   6.609  0.0239 -0.1572  0.0082
 1121ERGO    C215734   4.361   2.326   7.005  0.0516  0.2304  0.1436
 1122ERGO   ROH15735   5.706   0.708   6.074 -0.0895  0.1412  0.0243
 1122ERGO    R115736   5.640   0.849   6.311 -0.0691  0.0724  0.0714
 1122ERGO    R215737   5.501   0.732   6.520 -0.0835  0.0219  0.0343
 1122ERGO    R315738   5.713   0.819   6.666 -0.0708 -0.0546  0.0613
 1122ERGO    R415739   5.503   0.769   6.863 -0.0815 -0.0746  0.0448
 1122ERGO    R515740   5.616   0.953   6.838 -0.0503 -0.0865  0.0978
 1122ERGO    C115741   5.704   0.872   7.200 -0.0685 -0.2027  0.0763
 1122ERGO    C215742   5.866   0.937   7.469  0.2069 -0.1440 -0.1125
 1123ERGO   ROH15743  17.489  15.244   6.112 -0.0280 -0.2986  0.0041
 1123ERGO    R115744  17.531  15.360   6.367 -0.1087 -0.1166 -0.0642
 1123ERGO    R215745  17.327  15.474   6.514 -0.2028 -0.2363 -0.1047
 1123ERGO    R315746  17.413  15.302   6.706 -0.0088 -0.0476 -0.0166
 1123ERGO    R415747  17.269  15.509   6.853 -0.2006 -0.1056 -0.1167
 1123ERGO    R515748  17.472  15.442   6.890 -0.1260  0.1162 -0.0994
 1123ERGO    C115749  17.316  15.368   7.231 -0.0170  0.1476 -0.0409
 1123ERGO    C215750  17.264  15.210   7.462 -0.0661  0.1215  0.0112
 1124ERGO   ROH15751   9.023   5.356   6.074  0.0041  0.0844  0.0141
 1124ERGO    R115752   8.957   5.420   6.342 -0.2456  0.1940 -0.0702
 1124ERGO    R215753   9.148   5.438   6.542 -0.4807 -0.2801  0.2175
 1124ERGO    R315754   9.039   5.685   6.578  0.0288 -0.0207  0.0806
 1124ERGO    R415755   9.125   5.601   6.845 -0.4429 -0.2015  0.1789
 1124ERGO    R515756   8.926   5.670   6.789 -0.2378  0.2472 -0.0382
 1124ERGO    C115757   9.010   5.928   7.057  0.0575  0.0878  0.0280
 1124ERGO    C215758   9.177   6.160   7.382 -0.1505  0.4506  0.0880
 1125ERGO   ROH15759   4.747  14.319   6.431 -0.0028  0.0906  0.1812
 1125ERGO    R115760   4.683  14.079   6.567  0.0002  0.1722  0.3262
 1125ERGO    R215761   4.858  13.866   6.583 -0.1944 -0.0132 -0.0007
 1125ERGO    R315762   4.815  13.892   6.850  0.3534  0.0537  0.0922
 1125ERGO    R415763   4.928  13.623   6.819 -0.3930 -0.2656 -0.1943
 1125ERGO    R515764   4.742  13.675   6.920 -0.0980  0.2113  0.1599
 1125ERGO    C115765   4.929  13.507   7.207  0.0056 -0.3498 -0.2199
 1125ERGO    C215766   5.040  13.245   7.201 -0.2354 -0.0279  0.3483
 1126ERGO   ROH15767   5.697  18.671   5.890  0.2800  0.0249  0.0347
 1126ERGO    R115768   5.610  18.721   6.154  0.1814 -0.0857  0.0243
 1126ERGO    R215769   5.643  18.539   6.359  0.3632 -0.0590  0.0213
 1126ERGO    R315770   5.765  18.748   6.483  0.1049  0.0799  0.0479
 1126ERGO    R415771   5.728  18.548   6.694  0.3551  0.0028  0.0217
 1126ERGO    R515772   5.664  18.756   6.700  0.0944 -0.0751  0.0501
 1126ERGO    C115773   5.893  18.750   7.005  0.1079  0.1695  0.0469
 1126ERGO    C215774   6.006  18.684   7.260 -0.4341  0.1338 -0.3316
 1127ERGO   ROH15775  14.771   8.772   9.212  0.1987  0.2471 -0.0551
 1127ERGO    R115776  14.685   8.802   8.944  0.0491  0.1057 -0.0249
 1127ERGO    R215777  14.852   8.893   8.744 -0.0729  0.0400 -0.1592
 1127ERGO    R315778  14.775   8.663   8.620 -0.1018 -0.0326 -0.0085
 1127ERGO    R415779  14.721   8.875   8.424 -0.0010 -0.1631 -0.1790
 1127ERGO    R515780  14.580   8.725   8.496 -0.0560 -0.0741 -0.1015
 1127ERGO    C115781  14.572   8.650   8.122  0.0138 -0.3496 -0.0491
 1127ERGO    C215782  14.696   8.595   7.776 -0.0713 -0.0632 -0.0556
 1128ERGO   ROH15783  12.222   3.303   6.342  0.0720  0.0938  0.2184
 1128ERGO    R115784  12.054   3.368   6.560  0.0109  0.2461  0.1277
 1128ERGO    R215785  12.152   3.473   6.797 -0.0415  0.3010  0.1256
 1128ERGO    R315786  11.969   3.668   6.748  0.0543  0.3542 -0.0235
 1128ERGO    R415787  12.071   3.728   7.016 -0.2516  0.2386  0.1230
 1128ERGO    R515788  11.862   3.704   6.959 -0.1912  0.2997 -0.1352
 1128ERGO    C115789  11.853   4.060   7.097 -0.2842  0.2523 -0.0184
 1128ERGO    C215790  11.881   4.317   7.066 -0.1928  0.0912  0.0728
 1129ERGO   ROH15791  13.036   2.827   6.282  0.1844 -0.0467 -0.1090
 1129ERGO    R115792  13.004   2.655   6.505  0.1727  0.0138 -0.0635
 1129ERGO    R215793  13.010   2.747   6.766 -0.0315  0.1144 -0.0914
 1129ERGO    R315794  12.770   2.621   6.781  0.0401 -0.0360 -0.1811
 1129ERGO    R415795  12.904   2.555   7.033  0.0024  0.0188 -0.1465
 1129ERGO    R515796  12.817   2.414   6.891  0.1333 -0.0193 -0.1898
 1129ERGO    C115797  12.616   2.325   7.203  0.0892 -0.1782 -0.2628
 1129ERGO    C215798  12.532   2.341   7.570 -0.2694 -0.2623  0.1422
 1130ERGO   ROH15799  13.726   5.457   5.893  0.0176 -0.4497  0.0412
 1130ERGO    R115800  13.679   5.490   6.170  0.0077 -0.2584  0.0178
 1130ERGO    R215801  13.618   5.279   6.337 -0.1917 -0.1180  0.1267
 1130ERGO    R315802  13.830   5.372   6.480 -0.1314 -0.2158  0.1026
 1130ERGO    R415803  13.676   5.212   6.671 -0.1487 -0.1970  0.1040
 1130ERGO    R515804  13.739   5.419   6.696 -0.0729 -0.2230  0.1288
 1130ERGO    C115805  13.908   5.261   7.000 -0.0671 -0.3349  0.0681
 1130ERGO    C215806  13.928   5.154   7.382 -0.0600  0.0256  0.1008
 1131ERGO   ROH15807   5.308  13.417   5.580 -0.0434 -0.2959 -0.0926
 1131ERGO    R115808   5.227  13.271   5.809 -0.0972  0.0595  0.1277
 1131ERGO    R215809   5.321  13.017   5.864 -0.6181 -0.1526  0.1813
 1131ERGO    R315810   5.387  13.129   6.103 -0.0243 -0.1025  0.0053
 1131ERGO    R415811   5.402  12.841   6.151 -0.1236 -0.0618  0.1037
 1131ERGO    R515812   5.288  12.986   6.266  0.2326  0.0544  0.2887
 1131ERGO    C115813   5.511  12.845   6.541  0.7218  0.0382 -0.1066
 1131ERGO    C215814   5.598  12.800   6.798  0.2812  0.1251 -0.0348
 1132ERGO   ROH15815  16.769   9.700   6.083  0.1766  0.0972  0.0925
 1132ERGO    R115816  16.581   9.780   6.279  0.1326  0.1710  0.0200
 1132ERGO    R215817  16.600   9.703   6.544 -0.0347  0.1111  0.0126
 1132ERGO    R315818  16.587   9.971   6.589  0.0994  0.1108  0.0588
 1132ERGO    R415819  16.520   9.848   6.847  0.0205  0.0936  0.0361
 1132ERGO    R515820  16.403   9.997   6.739  0.1007  0.1752  0.0534
 1132ERGO    C115821  16.462  10.184   7.066  0.1785  0.0830  0.0932
 1132ERGO    C215822  16.511  10.431   7.347 -0.1613  0.3834 -0.1513
 1133ERGO   ROH15823   5.750   6.107   5.948 -0.0151  0.1019  0.1479
 1133ERGO    R115824   5.609   6.061   6.189 -0.2034  0.1508  0.0501
 1133ERGO    R215825   5.701   6.149   6.434 -0.1019 -0.2844  0.1788
 1133ERGO    R315826   5.456   6.265   6.449  0.1271  0.2205  0.1942
 1133ERGO    R415827   5.524   6.197   6.727 -0.2223 -0.4519  0.1343
 1133ERGO    R515828   5.342   6.141   6.620 -0.2731  0.1340 -0.1223
 1133ERGO    C115829   5.190   6.335   6.911 -0.0774 -0.0754  0.1227
 1133ERGO    C215830   5.251   6.350   7.225  0.3808 -0.1105  0.1617
 1134ERGO   ROH15831   3.439   5.330   9.313 -0.1136  0.3287 -0.1860
 1134ERGO    R115832   3.298   5.345   9.068  0.0891  0.2097 -0.3148
 1134ERGO    R215833   3.408   5.266   8.827  0.1863 -0.2080 -0.1487
 1134ERGO    R315834   3.185   5.111   8.813  0.0127  0.0348 -0.1215
 1134ERGO    R415835   3.319   5.073   8.554 -0.1046 -0.0592 -0.1616
 1134ERGO    R515836   3.112   5.133   8.586 -0.0291  0.1580 -0.0926
 1134ERGO    C115837   3.059   4.815   8.382 -0.4369  0.2552 -0.1436
 1134ERGO    C215838   3.158   4.766   8.029 -0.0138 -0.2549  0.1189
 1135ERGO   ROH15839  13.813  15.472   6.392  0.0315  0.0037  0.0147
 1135ERGO    R115840  13.678  15.404   6.632  0.1038 -0.1249  0.0189
 1135ERGO    R215841  13.708  15.158   6.754  0.4970 -0.0283  0.1225
 1135ERGO    R315842  13.772  15.309   6.971  0.2074  0.1699  0.0774
 1135ERGO    R415843  13.575  15.115   7.070  0.3584 -0.0074  0.0683
 1135ERGO    R515844  13.565  15.332   7.090  0.1028  0.0033 -0.0571
 1135ERGO    C115845  13.558  15.232   7.458  0.0058  0.1909 -0.0056
 1135ERGO    C215846  13.356  15.249   7.878  0.3426  0.1287 -0.0554
 1136ERGO   ROH15847   5.835  15.820   5.825 -0.3430 -0.0382  0.1012
 1136ERGO    R115848   5.993  15.967   6.009 -0.2879  0.0239  0.0064
 1136ERGO    R215849   5.882  16.136   6.199 -0.2370  0.0248  0.0416
 1136ERGO    R315850   6.029  15.985   6.370 -0.1189  0.0781 -0.0134
 1136ERGO    R415851   6.035  16.253   6.486 -0.3706  0.0255  0.1124
 1136ERGO    R515852   6.207  16.128   6.440 -0.2555  0.2029  0.0731
 1136ERGO    C115853   6.262  16.179   6.814 -0.3375  0.0761  0.1019
 1136ERGO    C215854   6.362  15.990   7.102  0.2819 -0.0083  0.0435
 1137ERGO   ROH15855   3.250   8.814   5.747 -0.1205 -0.1095 -0.1501
 1137ERGO    R115856   3.206   8.959   5.986 -0.0422 -0.0415 -0.1756
 1137ERGO    R215857   2.980   8.926   6.141 -0.0535  0.0926 -0.1544
 1137ERGO    R315858   3.162   8.881   6.339 -0.0609  0.0456 -0.1596
 1137ERGO    R415859   2.906   8.914   6.478 -0.0304  0.1769 -0.1468
 1137ERGO    R515860   3.090   9.023   6.518  0.0160  0.1013 -0.1769
 1137ERGO    C115861   3.033   8.865   6.860 -0.0238  0.1820 -0.1473
 1137ERGO    C215862   2.769   8.746   7.053 -0.1507 -0.4298 -0.1189
 1138ERGO   ROH15863  12.573  18.351   6.562 -0.1453 -0.1702  0.0876
 1138ERGO    R115864  12.766  18.280   6.756 -0.1317 -0.0295  0.1281
 1138ERGO    R215865  13.038  18.302   6.710 -0.1284 -0.1268  0.0662
 1138ERGO    R315866  13.032  18.448   6.939 -0.0730  0.0922 -0.0700
 1138ERGO    R415867  13.288  18.307   6.948 -0.1266  0.0293  0.0619
 1138ERGO    R515868  13.135  18.307   7.103 -0.1153  0.2238  0.0639
 1138ERGO    C115869  13.429  18.447   7.302 -0.0737  0.3259 -0.0684
 1138ERGO    C215870  13.771  18.379   7.533 -0.2873  0.0279  0.3564
 1139ERGO   ROH15871   9.506   9.571   5.847 -0.0488  0.0237 -0.1570
 1139ERGO    R115872   9.530   9.604   6.127  0.0977  0.1373 -0.1815
 1139ERGO    R215873   9.578   9.849   6.243 -0.1792  0.2464 -0.2850
 1139ERGO    R315874   9.355   9.788   6.387  0.0039 -0.0436 -0.1161
 1139ERGO    R415875   9.502   9.981   6.554 -0.2455  0.3489 -0.3443
 1139ERGO    R515876   9.432   9.783   6.615  0.1396  0.2653 -0.1525
 1139ERGO    C115877   9.249  10.000   6.870 -0.1122  0.1363 -0.2203
 1139ERGO    C215878   9.058  10.157   7.137 -0.4636  0.4664  0.1380
 1140ERGO   ROH15879   1.044  18.445   5.996  0.0195  0.1638 -0.1647
 1140ERGO    R115880   0.865  18.496   6.209  0.0801 -0.0780 -0.0535
 1140ERGO    R215881   0.903  18.392   6.463  0.4767  0.1111 -0.0322
 1140ERGO    R315882   0.883  18.653   6.537  0.0299  0.1170 -0.1417
 1140ERGO    R415883   0.722  18.510   6.733  0.4650 -0.1236  0.0649
 1140ERGO    R515884   0.657  18.678   6.612  0.0310 -0.2937  0.0329
 1140ERGO    C115885   0.598  18.823   6.959  0.0388 -0.2549  0.0188
 1140ERGO    C215886   0.554  18.706   7.206  0.2993  0.0908 -0.1116
 1141ERGO   ROH15887  10.337  10.096   9.561  0.4137  0.0878 -0.1787
 1141ERGO    R115888  10.413  10.032   9.296  0.1764  0.0100 -0.2306
 1141ERGO    R215889  10.295   9.827   9.153  0.0119 -0.0022 -0.0853
 1141ERGO    R315890  10.252  10.022   8.970 -0.1050 -0.0351 -0.0928
 1141ERGO    R415891  10.224   9.772   8.819 -0.1771 -0.0571 -0.0369
 1141ERGO    R515892  10.354   9.940   8.769 -0.2165 -0.0592 -0.1386
 1141ERGO    C115893  10.142   9.924   8.453 -0.3968 -0.1200 -0.0157
 1141ERGO    C215894  10.090   9.918   8.173 -0.1167 -0.6269  0.0300
 1142ERGO   ROH15895  18.678   6.563   5.497  0.0776 -0.0660  0.2262
 1142ERGO    R115896  18.567   6.443   5.728  0.0267 -0.2176  0.1268
 1142ERGO    R215897  18.598   6.174   5.785  0.2422 -0.2127  0.0975
 1142ERGO    R315898  18.692   6.269   6.022 -0.0064 -0.1543  0.1742
 1142ERGO    R415899  18.621   5.989   6.076  0.6248 -0.3450 -0.0129
 1142ERGO    R515900  18.553   6.165   6.187  0.2106 -0.5747  0.0908
 1142ERGO    C115901  18.724   5.971   6.468  0.6138 -0.3670 -0.0053
 1142ERGO    C215902  18.758   5.836   6.768  0.0729 -0.2559  0.1862
 1143ERGO   ROH15903  10.955  12.963   9.354  0.0790  0.0359  0.0021
 1143ERGO    R115904  11.017  12.953   9.078  0.0114 -0.0563 -0.0110
 1143ERGO    R215905  10.893  12.778   8.904  0.0053 -0.1541  0.0853
 1143ERGO    R315906  10.839  13.005   8.765 -0.0821 -0.2177  0.0154
 1143ERGO    R415907  10.797  12.788   8.572  0.0890 -0.2816  0.0570
 1143ERGO    R515908  10.925  12.963   8.546 -0.0015 -0.2201  0.0501
 1143ERGO    C115909  10.691  13.007   8.249  0.0557 -0.4156 -0.0251
 1143ERGO    C215910  10.489  13.003   8.093  0.2197 -0.1790  0.0768
 1144ERGO   ROH15911  16.502  12.197   6.482 -0.1042 -0.1038  0.0170
 1144ERGO    R115912  16.450  12.308   6.738 -0.1767 -0.0749 -0.0099
 1144ERGO    R215913  16.430  12.153   6.966 -0.0491 -0.0310  0.0317
 1144ERGO    R315914  16.621  12.323   7.058 -0.1723  0.1391 -0.0204
 1144ERGO    R415915  16.464  12.253   7.295  0.0574 -0.1435  0.0552
 1144ERGO    R515916  16.510  12.454   7.225 -0.2097 -0.0578  0.1132
 1144ERGO    C115917  16.664  12.470   7.574  0.0038 -0.0495  0.0199
 1144ERGO    C215918  16.831  12.417   7.930  0.0945 -0.0000  0.0043
 1145ERGO   ROH15919  14.820   7.589   5.744 -0.2913  0.0971 -0.0876
 1145ERGO    R115920  14.865   7.690   6.005 -0.2575  0.1371 -0.1093
 1145ERGO    R215921  14.733   7.592   6.227 -0.0647  0.0187 -0.0485
 1145ERGO    R315922  14.986   7.558   6.322  0.0122  0.2450 -0.1632
 1145ERGO    R415923  14.816   7.569   6.562  0.0673 -0.1656 -0.0917
 1145ERGO    R515924  14.992   7.691   6.521 -0.0908  0.0887 -0.0497
 1145ERGO    C115925  15.101   7.524   6.846  0.2163 -0.0604 -0.2245
 1145ERGO    C215926  14.889   7.516   7.074  0.1709  0.1280 -0.0261
 1146ERGO   ROH15927  15.575   5.790   6.029 -0.0632 -0.0698  0.0548
 1146ERGO    R115928  15.758   5.709   6.230 -0.0864 -0.0648  0.0765
 1146ERGO    R215929  15.978   5.861   6.301 -0.0639 -0.0946  0.0525
 1146ERGO    R315930  15.872   5.838   6.550 -0.0716 -0.0258  0.0570
 1146ERGO    R415931  16.140   5.948   6.593 -0.1026  0.0827  0.0240
 1146ERGO    R515932  16.056   5.770   6.687 -0.0515  0.0897  0.0948
 1146ERGO    C115933  16.136   5.976   6.997 -0.1326  0.2505  0.0117
 1146ERGO    C215934  16.256   6.143   7.158 -0.1778 -0.0680 -0.3733
 1147ERGO   ROH15935   6.835  13.967   7.376  0.0847  0.1718 -0.4248
 1147ERGO    R115936   7.091  14.085   7.355  0.1504  0.0590 -0.2603
 1147ERGO    R215937   7.200  14.242   7.554  0.1210 -0.0690 -0.1565
 1147ERGO    R315938   7.407  14.066   7.535  0.0637 -0.1520 -0.1165
 1147ERGO    R415939   7.518  14.296   7.679  0.0075 -0.3244  0.2653
 1147ERGO    R515940   7.599  14.204   7.499  0.1706 -0.1777  0.2380
 1147ERGO    C115941   7.897  14.162   7.734 -0.1124 -0.5511  0.5484
 1147ERGO    C215942   8.167  14.093   7.835  0.0008 -0.0163  0.0610
 1148ERGO   ROH15943   7.614  17.486   6.174  0.1999  0.2059  0.0915
 1148ERGO    R115944   7.522  17.395   6.426 -0.0305  0.1574 -0.0071
 1148ERGO    R215945   7.689  17.363   6.643 -0.1490 -0.2595  0.0383
 1148ERGO    R315946   7.508  17.525   6.766  0.0496 -0.0673  0.0824
 1148ERGO    R415947   7.633  17.374   6.984  0.0592 -0.0626  0.0684
 1148ERGO    R515948   7.419  17.391   6.943  0.0509  0.0835  0.1937
 1148ERGO    C115949   7.430  17.532   7.298  0.3668  0.2324  0.1273
 1148ERGO    C215950   7.529  17.503   7.624  0.1055  0.0862 -0.2290
 1149ERGO   ROH15951   8.988  17.820   6.161 -0.0947  0.0253  0.0013
 1149ERGO    R115952   9.043  17.963   6.399 -0.0234 -0.0189  0.0114
 1149ERGO    R215953   8.871  17.964   6.615  0.0089 -0.0031  0.0350
 1149ERGO    R315954   9.093  17.883   6.751  0.0081 -0.0755 -0.0055
 1149ERGO    R415955   8.891  17.929   6.959  0.0135 -0.1542  0.0206
 1149ERGO    R515956   9.091  18.015   6.951  0.0197 -0.1616  0.0533
 1149ERGO    C115957   9.110  17.833   7.286  0.0153 -0.3106 -0.0259
 1149ERGO    C215958   8.969  17.753   7.496  0.0395  0.1308 -0.0990
 1150ERGO   ROH15959  10.578  12.960   6.154  0.0810  0.1537  0.0932
 1150ERGO    R115960  10.544  12.982   6.434 -0.0180  0.0473  0.0902
 1150ERGO    R215961  10.298  12.951   6.558 -0.0501 -0.0612 -0.0023
 1150ERGO    R315962  10.432  12.765   6.704 -0.0505 -0.0764 -0.0208
 1150ERGO    R415963  10.221  12.860   6.882  0.1363  0.1345  0.0996
 1150ERGO    R515964  10.434  12.853   6.926  0.1698  0.0268 -0.0586
 1150ERGO    C115965  10.302  12.633   7.208  0.2444  0.2341  0.1415
 1150ERGO    C215966  10.270  12.335   7.542 -0.0616 -0.0209  0.2339
 1151ERGO   ROH15967   0.400  10.104   5.999  0.0979 -0.2443 -0.0355
 1151ERGO    R115968   0.340   9.911   6.196  0.0235 -0.1260  0.0584
 1151ERGO    R215969   0.536   9.760   6.320 -0.0360 -0.1266  0.1418
 1151ERGO    R315970   0.421   9.857   6.547 -0.0148  0.0190  0.0917
 1151ERGO    R415971   0.538   9.600   6.627 -0.1056  0.0028  0.2107
 1151ERGO    R515972   0.331   9.664   6.656 -0.0906  0.0927  0.1710
 1151ERGO    C115973   0.432   9.599   7.018 -0.1262  0.2147  0.2038
 1151ERGO    C215974   0.479   9.549   7.358  0.4651 -0.0323  0.0745
 1152ERGO   ROH15975   1.856   5.644   5.825 -0.0379 -0.1629 -0.0044
 1152ERGO    R115976   1.584   5.649   5.903 -0.0901  0.1571 -0.1916
 1152ERGO    R215977   1.505   5.652   6.167 -0.2618 -0.1098 -0.2412
 1152ERGO    R315978   1.367   5.873   6.089  0.1363  0.2381 -0.0156
 1152ERGO    R415979   1.298   5.837   6.373 -0.4723 -0.3840 -0.2023
 1152ERGO    R515980   1.158   5.855   6.206 -0.1302  0.1642 -0.4690
 1152ERGO    C115981   1.046   6.151   6.419 -0.2211 -0.2170  0.0321
 1152ERGO    C215982   0.897   6.241   6.743  0.2357  0.0686  0.2251
 1153ERGO   ROH15983  18.309  11.192   6.044  0.2065  0.0134 -0.0832
 1153ERGO    R115984  18.353  10.973   6.218 -0.0715  0.1379  0.1502
 1153ERGO    R215985  18.596  10.840   6.232 -0.3008 -0.2857  0.1334
 1153ERGO    R315986  18.575  10.898   6.497 -0.0110  0.0711  0.0868
 1153ERGO    R415987  18.815  10.731   6.476 -0.1795 -0.1918  0.0688
 1153ERGO    R515988  18.645  10.697   6.607 -0.1035  0.1334  0.2727
 1153ERGO    C115989  18.924  10.722   6.866  0.1632  0.1979 -0.0127
 1153ERGO    C215990  19.131  10.646   7.073  0.0179 -0.3181 -0.0102
 1154ERGO   ROH15991  17.576  17.360   9.487  0.2304  0.0611 -0.1049
 1154ERGO    R115992  17.522  17.328   9.211  0.1493 -0.0936 -0.0723
 1154ERGO    R215993  17.313  17.173   9.117 -0.0468  0.0694  0.0855
 1154ERGO    R315994  17.245  17.401   8.986  0.1932  0.0488 -0.0822
 1154ERGO    R415995  17.245  17.193   8.779 -0.1921 -0.1483  0.0993
 1154ERGO    R515996  17.354  17.382   8.773  0.0638 -0.2921 -0.1268
 1154ERGO    C115997  17.142  17.419   8.459 -0.0514 -0.2943 -0.0501
 1154ERGO    C215998  16.922  17.347   8.136 -0.2181  0.4038  0.0015
 1155ERGO   ROH15999  11.145  18.125   6.408 -0.1257 -0.3511  0.1646
 1155ERGO    R116000  11.229  18.103   6.677 -0.0349 -0.1674  0.1532
 1155ERGO    R216001  11.077  18.196   6.888 -0.0188 -0.1277  0.1490
 1155ERGO    R316002  11.107  17.942   6.980  0.1310 -0.0665  0.2749
 1155ERGO    R416003  11.092  18.109   7.222 -0.2552  0.0158  0.1995
 1155ERGO    R516004  11.249  17.965   7.172 -0.0713  0.1403  0.4048
 1155ERGO    C116005  11.128  17.819   7.503 -0.2522  0.1567  0.3471
 1155ERGO    C216006  11.147  17.937   7.858 -0.0971 -0.0771 -0.1035
 1156ERGO   ROH16007  17.886   5.549   5.510  0.0209 -0.0953 -0.0182
 1156ERGO    R116008  17.871   5.611   5.786 -0.0615 -0.1016 -0.0208
 1156ERGO    R216009  17.703   5.477   5.960 -0.0460 -0.1695 -0.0552
 1156ERGO    R316010  17.933   5.438   6.100 -0.0581 -0.0785 -0.0094
 1156ERGO    R416011  17.722   5.323   6.269 -0.0773  0.1077  0.0875
 1156ERGO    R516012  17.870   5.472   6.329 -0.0586  0.1381 -0.0424
 1156ERGO    C116013  17.949   5.197   6.580 -0.1069  0.3545  0.2137
 1156ERGO    C216014  17.766   4.947   6.710 -0.1052 -0.1412  0.1038
 1157ERGO   ROH16015   5.024   8.440   5.983  0.1299  0.1027  0.0465
 1157ERGO    R116016   5.070   8.338   6.243 -0.0598  0.1313  0.0927
 1157ERGO    R216017   5.315   8.357   6.369 -0.0451 -0.1846  0.1196
 1157ERGO    R316018   5.169   8.473   6.567  0.0941  0.1118  0.0549
 1157ERGO    R416019   5.395   8.348   6.706 -0.1370 -0.2261  0.1404
 1157ERGO    R516020   5.183   8.319   6.750 -0.2010  0.1318  0.1006
 1157ERGO    C116021   5.303   8.451   7.087 -0.0598  0.0278  0.0919
 1157ERGO    C216022   5.291   8.527   7.369 -0.0899  0.1576  0.4149
 1158ERGO   ROH16023   9.099  13.815   6.680  0.0960  0.1122  0.0968
 1158ERGO    R116024   8.894  13.641   6.769  0.1116  0.0571  0.0274
 1158ERGO    R216025   8.941  13.434   6.946  0.1136  0.0383  0.0094
 1158ERGO    R316026   8.742  13.553   7.088  0.0618 -0.0200 -0.0189
 1158ERGO    R416027   8.808  13.312   7.240  0.0567 -0.0321 -0.0460
 1158ERGO    R516028   8.610  13.371   7.170  0.0694 -0.0509 -0.0831
 1158ERGO    C116029   8.543  13.352   7.545 -0.0249 -0.1278 -0.1048
 1158ERGO    C216030   8.474  13.347   7.852  0.0273  0.0570 -0.1416
 1159ERGO   ROH16031   4.455  16.178   5.873 -0.2268  0.0784  0.3381
 1159ERGO    R116032   4.583  16.032   6.079 -0.1084 -0.0966  0.1426
 1159ERGO    R216033   4.471  15.997   6.329  0.1104 -0.1592  0.2290
 1159ERGO    R316034   4.513  15.734   6.275 -0.0811 -0.1599  0.0591
 1159ERGO    R416035   4.419  15.740   6.554  0.2958 -0.2252  0.1999
 1159ERGO    R516036   4.602  15.646   6.480  0.1602 -0.2829 -0.0900
 1159ERGO    C116037   4.429  15.343   6.635  0.2240 -0.2644  0.0233
 1159ERGO    C216038   4.406  15.061   6.829 -0.4690  0.0641 -0.1195
 1160ERGO   ROH16039  17.509   2.385   9.456 -0.1320 -0.1053  0.0256
 1160ERGO    R116040  17.391   2.394   9.199 -0.0542 -0.3161 -0.0196
 1160ERGO    R216041  17.463   2.581   9.008 -0.3485 -0.1457  0.0284
 1160ERGO    R316042  17.504   2.360   8.854  0.1534 -0.0589  0.0204
 1160ERGO    R416043  17.452   2.576   8.663 -0.3751 -0.1678  0.0296
 1160ERGO    R516044  17.349   2.384   8.674  0.0700 -0.4192  0.0380
 1160ERGO    C116045  17.483   2.366   8.317  0.0805 -0.0992  0.0227
 1160ERGO    C216046  17.602   2.533   8.017 -0.0924  0.1634 -0.0863
 1161ERGO   ROH16047   8.234  10.838   5.976 -0.2793 -0.1348  0.1520
 1161ERGO    R116048   8.176  10.858   6.253 -0.1740 -0.2158  0.1799
 1161ERGO    R216049   8.159  10.636   6.417  0.1193 -0.2490  0.1695
 1161ERGO    R316050   8.343  10.771   6.564  0.0544 -0.0789  0.0984
 1161ERGO    R416051   8.190  10.617   6.761  0.1290 -0.0533  0.1808
 1161ERGO    R516052   8.227  10.832   6.765  0.0234 -0.0301  0.0671
 1161ERGO    C116053   8.381  10.733   7.099  0.0738  0.2204  0.1207
 1161ERGO    C216054   8.348  10.554   7.484  0.0457 -0.1319 -0.0334
 1162ERGO   ROH16055   1.438  16.705   6.175 -0.1977  0.2604  0.0301
 1162ERGO    R116056   1.365  16.758   6.443 -0.3139  0.3396 -0.0157
 1162ERGO    R216057   1.102  16.763   6.528 -0.3385 -0.2077 -0.0151
 1162ERGO    R316058   1.191  16.581   6.709  0.1103  0.1603  0.1499
 1162ERGO    R416059   0.928  16.661   6.809 -0.1590 -0.4956 -0.0050
 1162ERGO    R516060   1.115  16.665   6.920 -0.1964  0.1052  0.0620
 1162ERGO    C116061   0.912  16.432   7.143  0.3668 -0.3179  0.1558
 1162ERGO    C216062   0.823  16.327   7.483 -0.0545 -0.0538  0.0028
 1163ERGO   ROH16063  14.946  11.086   9.648  0.4766 -0.2282 -0.0142
 1163ERGO    R116064  15.049  11.056   9.386  0.1486 -0.4229 -0.1289
 1163ERGO    R216065  14.913  10.922   9.187 -0.4026 -0.0305 -0.0460
 1163ERGO    R316066  14.951  11.154   9.050  0.0545 -0.0708 -0.0017
 1163ERGO    R416067  14.880  10.957   8.845 -0.5058  0.1400 -0.0189
 1163ERGO    R516068  15.056  11.086   8.846 -0.2054 -0.2570 -0.0744
 1163ERGO    C116069  14.896  11.195   8.517 -0.1367  0.2015  0.0385
 1163ERGO    C216070  14.846  11.202   8.223 -0.1042  0.0902  0.0279
 1164ERGO   ROH16071   6.306   8.338   5.886  0.1119  0.0102  0.1406
 1164ERGO    R116072   6.407   8.262   6.139  0.0689 -0.1327  0.1163
 1164ERGO    R216073   6.477   8.446   6.333  0.2459 -0.2321  0.1534
 1164ERGO    R316074   6.306   8.301   6.487  0.1305 -0.1194  0.1319
 1164ERGO    R416075   6.460   8.462   6.678  0.0788 -0.0881  0.1394
 1164ERGO    R516076   6.434   8.246   6.682  0.0164 -0.0762  0.2173
 1164ERGO    C116077   6.290   8.336   7.023 -0.1267  0.1015  0.1111
 1164ERGO    C216078   6.187   8.335   7.325  0.2102 -0.0764  0.1547
 1165ERGO   ROH16079  17.105  18.522   6.061  0.1613  0.1945 -0.1604
 1165ERGO    R116080  17.264  18.351   6.221 -0.0243 -0.0167 -0.1976
 1165ERGO    R216081  17.449  18.447   6.402  0.2127 -0.2563 -0.3110
 1165ERGO    R316082  17.311  18.291   6.577  0.0519 -0.0058 -0.2041
 1165ERGO    R416083  17.580  18.311   6.692  0.1278 -0.3256 -0.3035
 1165ERGO    R516084  17.470  18.127   6.649 -0.1408 -0.2000 -0.1981
 1165ERGO    C116085  17.527  18.085   7.024 -0.0727 -0.1304 -0.1986
 1165ERGO    C216086  17.594  17.904   7.348 -0.3345 -0.0712 -0.3082
 1166ERGO   ROH16087   6.665   9.860   5.950 -0.1699  0.1354 -0.1022
 1166ERGO    R116088   6.805   9.910   6.191 -0.1275 -0.1430 -0.0659
 1166ERGO    R216089   6.836  10.164   6.296  0.2987 -0.2003 -0.0241
 1166ERGO    R316090   6.728  10.049   6.518  0.0467 -0.0479 -0.0650
 1166ERGO    R416091   6.861  10.290   6.617  0.3645 -0.2485 -0.0106
 1166ERGO    R516092   6.890  10.087   6.690  0.0382 -0.2927 -0.0039
 1166ERGO    C116093   6.775  10.256   7.012  0.1663 -0.1336 -0.0412
 1166ERGO    C216094   6.972  10.315   7.405 -0.2374  0.1304 -0.0992
 1167ERGO   ROH16095   4.098   3.934   9.443 -0.1171 -0.0522 -0.0347
 1167ERGO    R116096   4.022   4.038   9.191 -0.0513 -0.1112 -0.0780
 1167ERGO    R216097   4.202   4.162   9.021 -0.0106 -0.1449 -0.0534
 1167ERGO    R316098   4.111   3.979   8.842  0.0444 -0.1850 -0.0424
 1167ERGO    R416099   4.198   4.206   8.678  0.1958 -0.2602 -0.0733
 1167ERGO    R516100   4.002   4.109   8.673  0.1715 -0.2136 -0.1505
 1167ERGO    C116101   4.110   4.059   8.311  0.3676 -0.3650 -0.0746
 1167ERGO    C216102   4.021   4.068   8.012 -0.3695 -0.1867 -0.1789
 1168ERGO   ROH16103   6.975  10.464   5.944 -0.1181  0.0642  0.0315
 1168ERGO    R116104   7.034  10.713   6.066  0.0571  0.0487 -0.0201
 1168ERGO    R216105   6.974  10.767   6.330 -0.0131  0.1828 -0.0657
 1168ERGO    R316106   7.238  10.829   6.343  0.0426 -0.0535  0.0356
 1168ERGO    R416107   7.130  10.912   6.602 -0.0983  0.4908 -0.1775
 1168ERGO    R516108   7.245  11.036   6.464  0.1371  0.1538 -0.3030
 1168ERGO    C116109   7.468  11.056   6.773 -0.0956  0.4483 -0.1475
 1168ERGO    C216110   7.765  11.111   6.987  0.0010  0.1777  0.2128
 1169ERGO   ROH16111  10.486   8.315   5.992 -0.0167  0.0911  0.0396
 1169ERGO    R116112  10.553   8.410   6.250  0.0334 -0.0051  0.0639
 1169ERGO    R216113  10.408   8.608   6.378  0.1449  0.0607  0.1000
 1169ERGO    R316114  10.392   8.423   6.577  0.0237  0.0188  0.0585
 1169ERGO    R416115  10.326   8.677   6.707  0.1643  0.0264  0.1117
 1169ERGO    R516116  10.479   8.535   6.769  0.0785 -0.0791  0.0908
 1169ERGO    C116117  10.264   8.544   7.084  0.0619 -0.0330  0.0796
 1169ERGO    C216118   9.992   8.720   7.243  0.2627 -0.2105 -0.2388
 1170ERGO   ROH16119  17.343   0.771   6.415  0.0678 -0.1790  0.0768
 1170ERGO    R116120  17.294   0.732   6.691 -0.0124 -0.0847  0.0775
 1170ERGO    R216121  17.497   0.717   6.878 -0.0529 -0.1823  0.1234
 1170ERGO    R316122  17.356   0.915   6.999  0.0561 -0.0553  0.0447
 1170ERGO    R416123  17.545   0.825   7.203 -0.0569 -0.1266  0.1048
 1170ERGO    R516124  17.329   0.840   7.225 -0.0458  0.0260  0.0554
 1170ERGO    C116125  17.440   1.073   7.506  0.0432  0.0250  0.0200
 1170ERGO    C216126  17.509   1.273   7.697 -0.1625  0.1585 -0.2300
 1171ERGO   ROH16127  12.372   5.263   5.855 -0.0060  0.0384  0.0168
 1171ERGO    R116128  12.255   5.257   6.113 -0.1906  0.0442 -0.0645
 1171ERGO    R216129  12.038   5.098   6.174  0.0072 -0.2545 -0.1147
 1171ERGO    R316130  12.201   5.009   6.373  0.0059  0.1422  0.0725
 1171ERGO    R416131  11.929   4.984   6.482 -0.0679 -0.4066 -0.1974
 1171ERGO    R516132  12.097   5.088   6.574 -0.3727 -0.0185 -0.0501
 1171ERGO    C116133  12.017   4.834   6.848 -0.1128 -0.1227 -0.0699
 1171ERGO    C216134  11.991   4.849   7.305  0.1744  0.0314 -0.0709
 1172ERGO   ROH16135  12.586  11.771   6.068 -0.1915  0.2003  0.2097
 1172ERGO    R116136  12.664  11.642   6.307 -0.2449  0.0728  0.1593
 1172ERGO    R216137  12.817  11.767   6.501  0.0114 -0.1427  0.1015
 1172ERGO    R316138  12.613  11.692   6.664 -0.0117  0.1053  0.1900
 1172ERGO    R416139  12.831  11.767   6.846  0.1874 -0.2183  0.0956
 1172ERGO    R516140  12.721  11.579   6.846 -0.0709 -0.0734  0.1163
 1172ERGO    C116141  12.647  11.697   7.201  0.2680 -0.0297  0.1752
 1172ERGO    C216142  12.602  11.574   7.526  0.1247 -0.0519 -0.0500
 1173ERGO   ROH16143  13.226   4.304   6.724 -0.0985 -0.0768  0.1136
 1173ERGO    R116144  13.351   4.255   6.973 -0.0343 -0.2039  0.0584
 1173ERGO    R216145  13.285   4.396   7.202  0.2736 -0.0724  0.0741
 1173ERGO    R316146  13.245   4.147   7.305 -0.0149 -0.0041  0.1293
 1173ERGO    R416147  13.317   4.311   7.536  0.2620 -0.0624  0.0772
 1173ERGO    R516148  13.412   4.125   7.475  0.0039 -0.1918  0.0827
 1173ERGO    C116149  13.299   4.029   7.826 -0.0157  0.0076  0.1307
 1173ERGO    C216150  13.496   3.923   8.142  0.1079  0.2406 -0.3900
 1174ERGO   ROH16151  15.330  18.671   6.564  0.3590 -0.0426  0.1835
 1174ERGO    R116152  15.234  18.699   6.828  0.2080 -0.1263  0.1386
 1174ERGO    R216153  15.320  18.538   7.036  0.2760 -0.0301  0.1837
 1174ERGO    R316154  15.376  18.776   7.154 -0.0182  0.0343  0.2024
 1174ERGO    R416155  15.372  18.583   7.375  0.4110 -0.0344  0.1638
 1174ERGO    R516156  15.259  18.769   7.363  0.1136 -0.1997  0.2736
 1174ERGO    C116157  15.456  18.832   7.683  0.2134  0.0238  0.1699
 1174ERGO    C216158  15.579  18.707   7.909  0.2311  0.0157 -0.0078
 1175ERGO   ROH16159   1.000   4.863   9.208  0.2074  0.1764 -0.1445
 1175ERGO    R116160   1.147   4.797   8.975  0.3667  0.3066 -0.0841
 1175ERGO    R216161   1.032   4.672   8.757  0.6364 -0.1109 -0.0055
 1175ERGO    R316162   1.136   4.884   8.622  0.1980  0.0195 -0.1504
 1175ERGO    R416163   1.126   4.667   8.424  0.6738 -0.1433  0.0064
 1175ERGO    R516164   1.300   4.787   8.477  0.4174  0.2677 -0.0667
 1175ERGO    C116165   1.277   4.863   8.103  0.2839 -0.0397 -0.1227
 1175ERGO    C216166   1.189   4.907   7.748  0.0115  0.1083  0.0809
 1176ERGO   ROH16167   9.468  12.793   6.341 -0.2243 -0.0647  0.1089
 1176ERGO    R116168   9.496  12.755   6.620 -0.1207 -0.0571  0.0991
 1176ERGO    R216169   9.711  12.624   6.731 -0.0522 -0.0004  0.0251
 1176ERGO    R316170   9.734  12.851   6.878 -0.0591  0.0036  0.0215
 1176ERGO    R416171   9.869  12.644   7.038 -0.0622  0.0007  0.0309
 1176ERGO    R516172   9.709  12.778   7.105 -0.0683  0.0034  0.0235
 1176ERGO    C116173   9.983  12.870   7.355 -0.0744  0.0050  0.0310
 1176ERGO    C216174  10.062  12.708   7.713 -0.1136  0.3409 -0.1402
 1177ERGO   ROH16175  10.346  16.574   6.491 -0.1931  0.0941  0.0121
 1177ERGO    R116176  10.311  16.666   6.756 -0.0778  0.3187 -0.0490
 1177ERGO    R216177  10.462  16.573   6.968 -0.3124  0.1345  0.0346
 1177ERGO    R316178  10.513  16.837   7.006  0.2051  0.0671 -0.0972
 1177ERGO    R416179  10.647  16.704   7.229 -0.4366 -0.0842  0.2369
 1177ERGO    R516180  10.503  16.867   7.243 -0.1207  0.2570 -0.1224
 1177ERGO    C116181  10.802  17.028   7.417 -0.0231 -0.2748  0.2310
 1177ERGO    C216182  10.917  17.348   7.480 -0.1367 -0.1461  0.2076
 1178ERGO   ROH16183   5.424  17.678   6.381 -0.1312  0.1213  0.2454
 1178ERGO    R116184   5.386  17.458   6.556  0.0438  0.0512  0.1968
 1178ERGO    R216185   5.451  17.468   6.824 -0.0147  0.0627  0.2099
 1178ERGO    R316186   5.193  17.389   6.856  0.0518 -0.1885  0.1490
 1178ERGO    R416187   5.323  17.330   7.113 -0.0052  0.1706  0.2666
 1178ERGO    R516188   5.209  17.190   6.990  0.2035 -0.0611  0.3268
 1178ERGO    C116189   5.006  17.175   7.312  0.0627 -0.0024  0.2423
 1178ERGO    C216190   4.637  17.158   7.517 -0.0402  0.1490 -0.3292
 1179ERGO   ROH16191  18.654  17.490   6.163 -0.0976 -0.0098 -0.0212
 1179ERGO    R116192  18.705  17.534   6.438 -0.0893 -0.2012  0.0098
 1179ERGO    R216193  18.775  17.329   6.611  0.1577 -0.2895 -0.1817
 1179ERGO    R316194  18.986  17.492   6.665  0.0016 -0.1145 -0.0883
 1179ERGO    R416195  19.021  17.264   6.845  0.2078 -0.1623 -0.1991
 1179ERGO    R516196  19.017  17.474   6.901  0.0052 -0.1963 -0.0986
 1179ERGO    C116197  19.362  17.379   7.032  0.0906  0.0757 -0.1215
 1179ERGO    C216198  19.550  17.366   7.356  0.0484  0.1264  0.0374
 1180ERGO   ROH16199   5.562   3.051   6.272 -0.0167  0.1309 -0.1178
 1180ERGO    R116200   5.508   2.840   6.453  0.1467  0.1203 -0.0776
 1180ERGO    R216201   5.540   2.866   6.726  0.1909  0.1743 -0.0793
 1180ERGO    R316202   5.282   2.782   6.732  0.2405  0.0282 -0.0233
 1180ERGO    R416203   5.363   2.793   7.013  0.2088  0.3016 -0.0370
 1180ERGO    R516204   5.275   2.623   6.910  0.3160  0.1721  0.1015
 1180ERGO    C116205   5.017   2.672   7.186  0.2657  0.2387  0.0402
 1180ERGO    C216206   4.764   2.591   7.310  0.2850 -0.3391  0.0945
 1181ERGO   ROH16207   1.268  17.767   6.273 -0.2078 -0.2144  0.0942
 1181ERGO    R116208   1.442  17.905   6.449 -0.0256 -0.1684 -0.1151
 1181ERGO    R216209   1.382  17.946   6.716  0.1232  0.1354 -0.1162
 1181ERGO    R316210   1.624  17.827   6.754  0.0514 -0.0108 -0.1229
 1181ERGO    R416211   1.586  17.996   6.991  0.2226  0.0916 -0.1830
 1181ERGO    R516212   1.758  17.996   6.858  0.1897 -0.0726 -0.2141
 1181ERGO    C116213   1.931  17.913   7.187  0.2130 -0.0712 -0.2282
 1181ERGO    C216214   1.991  17.919   7.578 -0.5747 -0.2359  0.1598
 1182ERGO   ROH16215  14.055   4.552   5.767 -0.1335 -0.2769 -0.1008
 1182ERGO    R116216  13.884   4.478   5.979 -0.1274 -0.1405 -0.0485
 1182ERGO    R216217  13.907   4.236   6.112 -0.1191 -0.0498  0.1086
 1182ERGO    R316218  13.921   4.395   6.332 -0.1224  0.0929  0.0088
 1182ERGO    R416219  13.899   4.122   6.438 -0.2205  0.1585  0.1817
 1182ERGO    R516220  13.772   4.292   6.488 -0.1878  0.2316  0.0446
 1182ERGO    C116221  13.907   4.204   6.834 -0.2827  0.4137  0.1306
 1182ERGO    C216222  13.795   4.276   7.170  0.2275 -0.1388 -0.1432
 1183ERGO   ROH16223   1.407   7.306   5.696  0.0561  0.1286 -0.0590
 1183ERGO    R116224   1.354   7.301   5.974  0.0649  0.0320 -0.0591
 1183ERGO    R216225   1.149   7.447   6.088  0.0589 -0.0235 -0.0058
 1183ERGO    R316226   1.076   7.205   6.188  0.0794 -0.0614 -0.0801
 1183ERGO    R416227   0.959   7.401   6.373 -0.1063 -0.1164 -0.1287
 1183ERGO    R516228   1.088   7.233   6.426 -0.0785 -0.0802 -0.0661
 1183ERGO    C116229   0.780   7.147   6.633 -0.1831 -0.2061 -0.2700
 1183ERGO    C216230   0.420   7.281   6.675 -0.1377  0.1499  0.0450
 1184ERGO   ROH16231   3.757  11.495   9.179 -0.0540  0.0025 -0.1312
 1184ERGO    R116232   3.702  11.617   8.929 -0.0335  0.0915 -0.0929
 1184ERGO    R216233   3.894  11.753   8.784 -0.0149  0.1243 -0.0405
 1184ERGO    R316234   3.818  11.583   8.586 -0.0223  0.1961 -0.0996
 1184ERGO    R416235   4.009  11.765   8.459  0.2830 -0.0083  0.0566
 1184ERGO    R516236   3.807  11.720   8.391  0.2926  0.2020 -0.1177
 1184ERGO    C116237   4.005  11.613   8.083  0.4495 -0.0183  0.0576
 1184ERGO    C216238   3.963  11.640   7.766 -0.1785 -0.1515 -0.0234
 1185ERGO   ROH16239  11.436  14.898   6.377  0.1350  0.0358 -0.0346
 1185ERGO    R116240  11.528  15.153   6.458  0.1612  0.0444 -0.0927
 1185ERGO    R216241  11.492  15.250   6.715 -0.0415  0.2016 -0.1789
 1185ERGO    R316242  11.761  15.285   6.704 -0.0149  0.0882  0.0539
 1185ERGO    R416243  11.675  15.435   6.941 -0.2049  0.3891 -0.1968
 1185ERGO    R516244  11.794  15.511   6.775 -0.0061  0.1588 -0.1668
 1185ERGO    C116245  12.035  15.576   7.064 -0.2754  0.3917  0.0113
 1185ERGO    C216246  12.148  15.523   7.340  0.0961  0.0954  0.1700
 1186ERGO   ROH16247   1.534  11.748   5.874  0.0160 -0.1538  0.0052
 1186ERGO    R116248   1.374  11.520   5.924  0.0017 -0.1206  0.1142
 1186ERGO    R216249   1.347  11.409   6.176  0.0266 -0.0231  0.1598
 1186ERGO    R316250   1.082  11.441   6.126  0.0225 -0.0182  0.1857
 1186ERGO    R416251   1.101  11.185   6.269  0.0254  0.0183  0.2562
 1186ERGO    R516252   1.004  11.220   6.076  0.0020 -0.0284  0.2579
 1186ERGO    C116253   0.708  11.085   6.276  0.0208  0.0469  0.3366
 1186ERGO    C216254   0.452  10.930   6.603  0.1846  0.1881  0.1154
 1187ERGO   ROH16255  14.797  13.389   6.487  0.0074 -0.1478  0.0650
 1187ERGO    R116256  14.812  13.333   6.764 -0.0416 -0.0837  0.0797
 1187ERGO    R216257  15.036  13.386   6.915 -0.0709 -0.0539  0.1025
 1187ERGO    R316258  14.860  13.522   7.070 -0.0919 -0.0159  0.0480
 1187ERGO    R416259  15.115  13.538   7.215 -0.0708  0.1213  0.0158
 1187ERGO    R516260  14.924  13.468   7.295 -0.0509  0.1124  0.0730
 1187ERGO    C116261  14.995  13.755   7.536 -0.0903  0.2589 -0.0858
 1187ERGO    C216262  15.152  13.948   7.767 -0.1379  0.2138  0.4039
 1188ERGO   ROH16263  12.369  13.035   6.190  0.3508  0.0153 -0.1289
 1188ERGO    R116264  12.312  12.861   6.406  0.2102  0.0734 -0.1179
 1188ERGO    R216265  12.502  12.694   6.517  0.1123  0.0239 -0.0172
 1188ERGO    R316266  12.428  12.818   6.748  0.0709  0.0941 -0.0681
 1188ERGO    R416267  12.615  12.608   6.833  0.0979  0.1634  0.0265
 1188ERGO    R516268  12.413  12.640   6.908  0.0890  0.1539 -0.0035
 1188ERGO    C116269  12.611  12.674   7.233  0.0507  0.3105  0.0041
 1188ERGO    C216270  12.761  12.688   7.556 -0.2030  0.4393 -0.0512
 1189ERGO   ROH16271   5.293  12.351   5.679  0.0235  0.1438 -0.0270
 1189ERGO    R116272   5.184  12.474   5.909  0.0365  0.1218 -0.0086
 1189ERGO    R216273   4.977  12.363   6.054  0.0209  0.1236 -0.0263
 1189ERGO    R316274   5.150  12.392   6.262  0.0247  0.0708 -0.0222
 1189ERGO    R416275   4.894  12.496   6.362  0.0904  0.2769 -0.0732
 1189ERGO    R516276   5.086  12.600   6.363  0.1604  0.1455 -0.0910
 1189ERGO    C116277   5.007  12.602   6.736  0.1344  0.3167 -0.0967
 1189ERGO    C216278   4.747  12.718   6.969 -0.3193 -0.0157 -0.0769
 1190ERGO   ROH16279   9.098   8.169   6.167  0.1182  0.0884  0.0523
 1190ERGO    R116280   9.148   8.057   6.423  0.0651 -0.0652 -0.0024
 1190ERGO    R216281   9.365   8.128   6.577  0.0695 -0.1996  0.0649
 1190ERGO    R316282   9.175   8.179   6.764  0.0573 -0.2571  0.0665
 1190ERGO    R416283   9.420   8.126   6.918  0.0957 -0.0569  0.0612
 1190ERGO    R516284   9.227   8.028   6.943  0.1625 -0.1651  0.1099
 1190ERGO    C116285   9.273   8.173   7.293  0.0996 -0.0278  0.0605
 1190ERGO    C216286   9.320   8.115   7.569 -0.2756  0.1112 -0.2845
 1191ERGO   ROH16287  14.101  12.495   6.192 -0.0836  0.1998 -0.1357
 1191ERGO    R116288  14.181  12.604   6.440  0.0278  0.2012 -0.1730
 1191ERGO    R216289  14.052  12.818   6.558 -0.0977  0.0192  0.0148
 1191ERGO    R316290  14.034  12.649   6.770  0.2816 -0.0721 -0.0146
 1191ERGO    R416291  14.100  12.910   6.887 -0.5064  0.1377  0.0466
 1191ERGO    R516292  14.207  12.722   6.919  0.0251  0.4161  0.0717
 1191ERGO    C116293  14.110  12.806   7.278 -0.3884  0.1208  0.0374
 1191ERGO    C216294  14.159  12.900   7.540 -0.2326 -0.1907 -0.1617
 1192ERGO   ROH16295   9.391  16.057   6.324 -0.1101  0.0146  0.0851
 1192ERGO    R116296   9.409  16.199   6.568 -0.0525 -0.0022  0.0915
 1192ERGO    R216297   9.252  16.139   6.787 -0.1223  0.0906  0.0716
 1192ERGO    R316298   9.492  16.122   6.914 -0.1478 -0.0661  0.0996
 1192ERGO    R416299   9.299  16.168   7.129 -0.1310  0.1264  0.0693
 1192ERGO    R516300   9.479  16.284   7.090 -0.0397 -0.0203  0.0637
 1192ERGO    C116301   9.551  16.168   7.446 -0.1601 -0.0001  0.0944
 1192ERGO    C216302   9.417  16.109   7.853  0.0315  0.0790  0.0496
 1193ERGO   ROH16303  13.348   4.482   9.499  0.1850  0.1393  0.0174
 1193ERGO    R116304  13.266   4.629   9.271 -0.0841 -0.0693 -0.0257
 1193ERGO    R216305  13.446   4.722   9.082 -0.2417  0.2560 -0.0198
 1193ERGO    R316306  13.285   4.587   8.910  0.0495 -0.1114 -0.0150
 1193ERGO    R416307  13.477   4.726   8.738 -0.1454  0.1777 -0.0123
 1193ERGO    R516308  13.260   4.734   8.723 -0.1661 -0.2241 -0.0802
 1193ERGO    C116309  13.343   4.601   8.376  0.1841 -0.2127 -0.0035
 1193ERGO    C216310  13.387   4.444   8.042  0.1508 -0.0063  0.1536
 1194ERGO   ROH16311  15.776  16.136   6.425 -0.0907 -0.2258 -0.0422
 1194ERGO    R116312  15.957  15.987   6.584  0.0239 -0.0548 -0.0071
 1194ERGO    R216313  16.087  16.094   6.803 -0.1030  0.0896  0.0015
 1194ERGO    R316314  15.978  15.880   6.931  0.0640 -0.0088  0.0089
 1194ERGO    R416315  16.194  15.970   7.107  0.1096  0.0867 -0.0731
 1194ERGO    R516316  16.165  15.769   7.030  0.1831  0.0711 -0.1057
 1194ERGO    C116317  16.155  15.697   7.404  0.3901 -0.0074 -0.1095
 1194ERGO    C216318  16.211  15.693   7.785 -0.0735  0.3121 -0.3163
 1195ERGO   ROH16319  14.523  14.912   6.401 -0.0115 -0.2140  0.0059
 1195ERGO    R116320  14.623  15.041   6.632  0.1936 -0.0817 -0.1520
 1195ERGO    R216321  14.650  14.911   6.875 -0.0550  0.1747  0.0208
 1195ERGO    R316322  14.907  14.999   6.856  0.1117 -0.2895 -0.0821
 1195ERGO    R416323  14.880  14.904   7.133 -0.2193  0.4713  0.1807
 1195ERGO    R516324  14.950  15.100   7.069  0.1452  0.2120 -0.3106
 1195ERGO    C116325  15.255  14.982   7.266 -0.1584  0.2083  0.1771
 1195ERGO    C216326  15.545  14.994   7.269 -0.1632 -0.1755  0.0964
 1196ERGO   ROH16327  18.364   9.389   5.787 -0.2245 -0.3568  0.0350
 1196ERGO    R116328  18.327   9.458   6.059  0.0507 -0.3449  0.0751
 1196ERGO    R216329  18.087   9.422   6.191  0.0564  0.0018  0.2271
 1196ERGO    R316330  18.242   9.284   6.367 -0.0309 -0.2780  0.0846
 1196ERGO    R416331  18.011   9.371   6.524  0.3570  0.2477  0.3351
 1196ERGO    R516332  18.221   9.404   6.572  0.4763 -0.1867  0.0787
 1196ERGO    C116333  18.112   9.212   6.883  0.4500  0.1282  0.2641
 1196ERGO    C216334  18.102   9.180   7.159  0.0791  0.0968 -0.0203
 1197ERGO   ROH16335   7.337   7.124   5.806  0.1434 -0.1411 -0.1204
 1197ERGO    R116336   7.219   6.977   6.017 -0.0751  0.1238 -0.0535
 1197ERGO    R216337   7.368   6.847   6.209 -0.2588 -0.1055 -0.0689
 1197ERGO    R316338   7.214   6.992   6.380  0.0487  0.2195 -0.0537
 1197ERGO    R416339   7.345   6.792   6.550 -0.2606 -0.0010 -0.0508
 1197ERGO    R516340   7.131   6.831   6.537 -0.2061  0.3920  0.0018
 1197ERGO    C116341   7.187   6.896   6.909  0.0270  0.3650 -0.0261
 1197ERGO    C216342   7.168   7.058   7.189  0.0420 -0.0228  0.2440
 1198ERGO   ROH16343   8.878  11.231   9.723  0.1045 -0.0745 -0.0772
 1198ERGO    R116344   8.768  11.305   9.474 -0.0150 -0.1476 -0.0464
 1198ERGO    R216345   8.877  11.504   9.316 -0.1683 -0.1040 -0.0946
 1198ERGO    R316346   8.878  11.309   9.127 -0.1312 -0.1144 -0.0843
 1198ERGO    R416347   8.896  11.559   8.975 -0.0168 -0.1179 -0.0894
 1198ERGO    R516348   8.749  11.400   8.946 -0.0409 -0.0919 -0.1416
 1198ERGO    C116349   8.907  11.408   8.599  0.1062 -0.1359 -0.0767
 1198ERGO    C216350   8.882  11.634   8.274  0.5276 -0.0018  0.0098
 1199ERGO   ROH16351  17.731  14.261   6.443 -0.1847  0.3024  0.1555
 1199ERGO    R116352  17.596  14.337   6.679  0.0246  0.2799  0.2851
 1199ERGO    R216353  17.487  14.153   6.854 -0.1516  0.2697  0.1665
 1199ERGO    R316354  17.639  14.285   7.037  0.1154 -0.1010  0.2231
 1199ERGO    R416355  17.388  14.225   7.177 -0.0065  0.3177  0.2007
 1199ERGO    R516356  17.482  14.421   7.157  0.3753  0.1530  0.2867
 1199ERGO    C116357  17.473  14.391   7.537  0.3285 -0.0024  0.2737
 1199ERGO    C216358  17.442  14.274   7.843  0.1613 -0.3193 -0.0458
 1200ERGO   ROH16359  10.348  14.038   6.524  0.0889  0.1246  0.0376
 1200ERGO    R116360  10.439  13.906   6.757 -0.1369 -0.0281  0.0407
 1200ERGO    R216361  10.595  14.032   6.948  0.0516 -0.2806  0.0467
 1200ERGO    R316362  10.399  13.947   7.117 -0.0946  0.0264  0.0415
 1200ERGO    R416363  10.637  13.978   7.286 -0.0334 -0.3394  0.0499
 1200ERGO    R516364  10.512  13.800   7.269 -0.3195 -0.1546  0.0480
 1200ERGO    C116365  10.479  13.867   7.643 -0.2200 -0.0854  0.0470
 1200ERGO    C216366  10.401  13.948   7.927 -0.0754 -0.1651 -0.1758
 1201ERGO   ROH16367  16.636   7.985   5.981 -0.0182 -0.0623  0.0576
 1201ERGO    R116368  16.706   7.964   6.255 -0.1177 -0.1386  0.0786
 1201ERGO    R216369  16.642   7.744   6.409 -0.0250 -0.2597 -0.0496
 1201ERGO    R316370  16.909   7.742   6.459 -0.0430 -0.0900  0.0574
 1201ERGO    R416371  16.790   7.587   6.678 -0.0331 -0.1482  0.0199
 1201ERGO    R516372  16.924   7.757   6.698 -0.1472 -0.0636  0.0619
 1201ERGO    C116373  17.127   7.493   6.883 -0.0544  0.0760  0.1608
 1201ERGO    C216374  17.290   7.189   7.135 -0.0432 -0.1110  0.0322
 1202ERGO   ROH16375  12.251   8.388   6.095 -0.0008 -0.0428  0.2571
 1202ERGO    R116376  12.286   8.396   6.376 -0.1088  0.0336  0.2681
 1202ERGO    R216377  12.412   8.606   6.504 -0.0406  0.0028  0.2434
 1202ERGO    R316378  12.181   8.613   6.649 -0.0933  0.1871  0.1550
 1202ERGO    R416379  12.380   8.748   6.818 -0.0154 -0.0563  0.2733
 1202ERGO    R516380  12.253   8.580   6.875 -0.2077  0.0475  0.1755
 1202ERGO    C116381  12.146   8.837   7.136 -0.0502  0.0823  0.2079
 1202ERGO    C216382  12.013   8.830   7.401  0.1946  0.0731  0.0872
 1203ERGO   ROH16383  17.228   3.968   6.002 -0.2598  0.0210  0.1484
 1203ERGO    R116384  17.208   3.963   6.284 -0.2696  0.1457  0.1488
 1203ERGO    R216385  17.428   3.961   6.449 -0.2748 -0.1626  0.1445
 1203ERGO    R316386  17.308   4.178   6.560  0.0793  0.0736  0.0849
 1203ERGO    R416387  17.431   4.035   6.787 -0.3154 -0.1975  0.1537
 1203ERGO    R516388  17.222   4.097   6.769 -0.2012  0.2157  0.0355
 1203ERGO    C116389  17.321   4.282   7.088 -0.0063  0.0040  0.1030
 1203ERGO    C216390  17.284   4.280   7.319 -0.2834  0.0559 -0.0854
 1204ERGO   ROH16391   4.561  16.810   9.796  0.0121  0.0939 -0.0545
 1204ERGO    R116392   4.622  16.805   9.520  0.2416  0.0344 -0.0051
 1204ERGO    R216393   4.815  16.640   9.412  0.0052 -0.3392  0.1290
 1204ERGO    R316394   4.611  16.561   9.250 -0.0270  0.1071 -0.0646
 1204ERGO    R416395   4.854  16.465   9.117 -0.0926 -0.4123  0.1585
 1204ERGO    R516396   4.698  16.588   9.028  0.2458 -0.0616  0.0141
 1204ERGO    C116397   4.686  16.289   8.793 -0.1798 -0.0360 -0.0061
 1204ERGO    C216398   4.728  16.106   8.468 -0.1235  0.0130 -0.4132
 1205ERGO   ROH16399   4.921   4.941   9.522  0.0279  0.1016 -0.1162
 1205ERGO    R116400   4.930   5.109   9.295  0.0871  0.0771 -0.1328
 1205ERGO    R216401   5.133   5.096   9.108  0.0558 -0.0489 -0.1612
 1205ERGO    R316402   4.927   5.065   8.933  0.0140  0.0454 -0.1281
 1205ERGO    R416403   5.165   4.981   8.784 -0.0462 -0.0435 -0.1727
 1205ERGO    R516404   5.018   5.130   8.722  0.0047  0.0196 -0.1393
 1205ERGO    C116405   4.989   4.884   8.431 -0.1449  0.0483 -0.1484
 1205ERGO    C216406   5.086   5.019   8.106 -0.1575 -0.0528 -0.0982
 1206ERGO   ROH16407  15.536   9.526   5.830 -0.1942  0.2090  0.0904
 1206ERGO    R116408  15.620   9.641   6.075 -0.0672  0.0668  0.1155
 1206ERGO    R216409  15.521   9.882   6.168  0.2347  0.1860  0.1402
 1206ERGO    R316410  15.464   9.736   6.390  0.0226  0.2253  0.1130
 1206ERGO    R416411  15.411  10.013   6.468  0.3078  0.2784  0.1269
 1206ERGO    R516412  15.539   9.872   6.572  0.1299  0.1255  0.1435
 1206ERGO    C116413  15.292   9.953   6.851  0.1511  0.3692  0.0936
 1206ERGO    C216414  15.096   9.931   7.191  0.0216  0.0430  0.2049
 1207ERGO   ROH16415  10.091  10.061   5.829  0.0971 -0.2951  0.1852
 1207ERGO    R116416  10.349  10.103   5.938  0.0865 -0.1425  0.1534
 1207ERGO    R216417  10.443  10.354   6.005 -0.0176 -0.0761  0.0527
 1207ERGO    R316418  10.485  10.238   6.247  0.0490  0.0334  0.0945
 1207ERGO    R416419  10.680  10.456   6.235  0.0693  0.0067 -0.0727
 1207ERGO    R516420  10.723  10.247   6.276  0.0599  0.0214  0.0123
 1207ERGO    C116421  10.859  10.407   6.595  0.1825  0.1576 -0.1064
 1207ERGO    C216422  10.860  10.645   6.802 -0.1262 -0.1071 -0.2131
 1208ERGO   ROH16423  15.536  12.131   6.259  0.2870  0.0618  0.1374
 1208ERGO    R116424  15.578  12.140   6.539  0.0957  0.1093  0.1660
 1208ERGO    R216425  15.508  12.358   6.693 -0.0736  0.1080  0.0926
 1208ERGO    R316426  15.371  12.172   6.836 -0.1157  0.0854  0.0236
 1208ERGO    R416427  15.515  12.329   7.037  0.0094 -0.0925  0.0755
 1208ERGO    R516428  15.519  12.112   7.014 -0.0917 -0.0824 -0.0505
 1208ERGO    C116429  15.390  12.137   7.372  0.0184 -0.2305  0.0007
 1208ERGO    C216430  15.329  12.300   7.663 -0.2959  0.0134 -0.0787
 1209ERGO   ROH16431  12.218  10.304   9.376  0.0845 -0.1074 -0.1630
 1209ERGO    R116432  12.294  10.230   9.114 -0.0535 -0.2433 -0.1658
 1209ERGO    R216433  12.132  10.078   8.949 -0.4034  0.1663 -0.2130
 1209ERGO    R316434  12.168  10.286   8.777  0.1149  0.1233 -0.1744
 1209ERGO    R416435  12.173  10.047   8.607 -0.3169  0.1173 -0.1988
 1209ERGO    R516436  12.324  10.203   8.616  0.0207 -0.1958 -0.1135
 1209ERGO    C116437  12.229  10.224   8.247  0.2201  0.0483 -0.1545
 1209ERGO    C216438  12.118  10.032   8.036 -0.2111 -0.2401  0.2261
 1210ERGO   ROH16439  11.406  12.849   6.555  0.2506  0.0483  0.0115
 1210ERGO    R116440  11.467  12.709   6.794  0.2307  0.1161  0.0572
 1210ERGO    R216441  11.399  12.805   7.044  0.1624  0.1632  0.0235
 1210ERGO    R316442  11.279  12.562   7.069  0.2033  0.1465  0.0540
 1210ERGO    R416443  11.253  12.686   7.333 -0.0749  0.2923 -0.0414
 1210ERGO    R516444  11.337  12.490   7.290  0.0181  0.2896  0.1507
 1210ERGO    C116445  11.055  12.390   7.526 -0.1746  0.3517 -0.0505
 1210ERGO    C216446  11.044  12.140   7.836 -0.0006 -0.2902 -0.4449
 1211ERGO   ROH16447  13.514   9.599   5.957 -0.1002 -0.0051 -0.1052
 1211ERGO    R116448  13.435   9.502   6.211 -0.0015 -0.0249 -0.0791
 1211ERGO    R216449  13.609   9.373   6.382  0.0771 -0.0287 -0.1409
 1211ERGO    R316450  13.527   9.564   6.558  0.1280 -0.0329 -0.1159
 1211ERGO    R416451  13.544   9.318   6.717 -0.0886 -0.0627 -0.1796
 1211ERGO    R516452  13.372   9.450   6.700  0.0099  0.0391 -0.2046
 1211ERGO    C116453  13.429   9.465   7.077 -0.1374 -0.0865 -0.1786
 1211ERGO    C216454  13.684   9.463   7.444  0.0476 -0.1350  0.0437
 1212ERGO   ROH16455   2.297  11.545   5.949 -0.2807 -0.1810  0.0672
 1212ERGO    R116456   2.347  11.486   6.221 -0.1323 -0.0704  0.0655
 1212ERGO    R216457   2.330  11.678   6.420 -0.1136 -0.0087  0.0112
 1212ERGO    R316458   2.158  11.499   6.532  0.0057 -0.0371  0.1468
 1212ERGO    R416459   2.225  11.684   6.749 -0.2254  0.2453 -0.0266
 1212ERGO    R516460   2.242  11.467   6.754 -0.0401  0.2672  0.2088
 1212ERGO    C116461   2.003  11.520   7.047 -0.1785  0.3665  0.0788
 1212ERGO    C216462   1.785  11.378   7.247 -0.4581  0.1130 -0.2891
 1213ERGO   ROH16463  11.829   6.227   5.892  0.1105  0.0552 -0.0460
 1213ERGO    R116464  11.927   6.242   6.157  0.1564  0.0633 -0.0629
 1213ERGO    R216465  11.859   6.059   6.352 -0.0087  0.2094  0.0233
 1213ERGO    R316466  12.128   6.032   6.376 -0.0311 -0.0538 -0.0027
 1213ERGO    R416467  12.032   6.068   6.651  0.0643  0.3349 -0.0230
 1213ERGO    R516468  12.187   6.185   6.552  0.1690  0.0644 -0.1736
 1213ERGO    C116469  12.386   6.049   6.848  0.0856  0.1609 -0.0743
 1213ERGO    C216470  12.644   5.919   6.969  0.3404  0.3410  0.4215
 1214ERGO   ROH16471   9.433  18.774   6.274  0.2653  0.1326  0.2113
 1214ERGO    R116472   9.395  18.995   6.448  0.2516  0.0025  0.3733
 1214ERGO    R216473   9.146  19.105   6.496  0.3010  0.2140  0.1164
 1214ERGO    R316474   9.212  19.060   6.755 -0.1250 -0.1053  0.1817
 1214ERGO    R416475   9.025  19.286   6.764  0.3562  0.3371  0.0609
 1214ERGO    R516476   9.224  19.279   6.852  0.2511 -0.1718  0.3197
 1214ERGO    C116477   9.015  19.349   7.164 -0.0116  0.1090  0.0900
 1214ERGO    C216478   8.812  19.344   7.372  0.2133 -0.2872 -0.0410
 1215ERGO   ROH16479  10.311   0.312   6.332  0.0907 -0.3548  0.3140
 1215ERGO    R116480  10.301   0.518   6.526  0.1627 -0.2470  0.2055
 1215ERGO    R216481  10.256   0.467   6.794  0.1379 -0.0887  0.2332
 1215ERGO    R316482  10.487   0.608   6.826  0.1900 -0.1574  0.1616
 1215ERGO    R416483  10.341   0.645   7.078  0.1675  0.0928  0.1117
 1215ERGO    R516484  10.421   0.802   6.949  0.2509 -0.0364  0.0048
 1215ERGO    C116485  10.607   0.881   7.273  0.2339  0.1341 -0.0263
 1215ERGO    C216486  10.586   0.815   7.708 -0.2110  0.2319 -0.1894
 1216ERGO   ROH16487  12.261  14.502   6.480  0.0940 -0.2086  0.1153
 1216ERGO    R116488  12.326  14.536   6.753  0.2129 -0.3668  0.1078
 1216ERGO    R216489  12.136  14.595   6.945  0.3718  0.1259  0.1252
 1216ERGO    R316490  12.239  14.375   7.068 -0.1713 -0.1468  0.1205
 1216ERGO    R416491  12.145  14.547   7.287  0.3356  0.1446  0.1289
 1216ERGO    R516492  12.345  14.462   7.265  0.1193 -0.3954  0.0823
 1216ERGO    C116493  12.246  14.312   7.602 -0.1953 -0.1005  0.1267
 1216ERGO    C216494  12.252  14.246   7.789 -0.3486  0.1411 -0.4566
 1217ERGO   ROH16495  13.065   6.926   5.911 -0.2028 -0.2228  0.1994
 1217ERGO    R116496  12.886   7.065   6.080 -0.2252 -0.1803  0.1422
 1217ERGO    R216497  12.698   6.937   6.237 -0.1703 -0.1493  0.2418
 1217ERGO    R316498  12.815   7.080   6.436 -0.1836 -0.0008  0.1425
 1217ERGO    R416499  12.566   6.978   6.554 -0.0414 -0.1556  0.2963
 1217ERGO    R516500  12.631   7.186   6.548 -0.2059 -0.1099  0.2027
 1217ERGO    C116501  12.598   7.137   6.925  0.0212 -0.0198  0.2348
 1217ERGO    C216502  12.676   7.153   7.187  0.3116  0.0353  0.0170
 1218ERGO   ROH16503  12.586   0.819   6.242 -0.2900  0.1793 -0.1278
 1218ERGO    R116504  12.718   0.917   6.473 -0.0993 -0.0202 -0.1492
 1218ERGO    R216505  12.595   1.082   6.657  0.1424  0.0677 -0.0586
 1218ERGO    R316506  12.675   0.891   6.833  0.0045 -0.0677 -0.1404
 1218ERGO    R416507  12.628   1.129   6.998  0.2213 -0.0948 -0.0434
 1218ERGO    R516508  12.810   1.009   6.991  0.1204 -0.2430 -0.1086
 1218ERGO    C116509  12.723   0.977   7.361  0.1378 -0.3164 -0.1113
 1218ERGO    C216510  12.922   1.080   7.631 -0.0070  0.2739 -0.0458
 1219ERGO   ROH16511   2.569   3.209   9.325 -0.1408 -0.0934 -0.0484
 1219ERGO    R116512   2.634   3.025   9.119 -0.0750 -0.0197 -0.0943
 1219ERGO    R216513   2.447   2.855   9.008  0.0072 -0.1272 -0.0666
 1219ERGO    R316514   2.532   2.967   8.775 -0.1324 -0.0362 -0.0755
 1219ERGO    R416515   2.447   2.695   8.702 -0.0790 -0.0493 -0.1081
 1219ERGO    R516516   2.641   2.786   8.660 -0.1245  0.0260 -0.1709
 1219ERGO    C116517   2.527   2.705   8.305 -0.2603  0.0815 -0.1407
 1219ERGO    C216518   2.382   2.585   8.038 -0.0563  0.3462  0.1217
 1220ERGO   ROH16519  13.931   2.407   6.447  0.2323 -0.1882  0.1405
 1220ERGO    R116520  14.028   2.492   6.699  0.1734 -0.0853  0.1294
 1220ERGO    R216521  13.978   2.744   6.801  0.0135 -0.0974  0.0869
 1220ERGO    R316522  13.884   2.603   7.014  0.0943 -0.1221  0.1061
 1220ERGO    R416523  13.868   2.883   7.097 -0.1257 -0.1176  0.0451
 1220ERGO    R516524  13.966   2.722   7.204 -0.0169 -0.0201  0.0904
 1220ERGO    C116525  13.715   2.833   7.469 -0.1308 -0.1526  0.0389
 1220ERGO    C216526  13.571   2.996   7.706  0.0116  0.0026 -0.2186
 1221ERGO   ROH16527   2.354  11.266   8.996  0.1091  0.2225  0.1861
 1221ERGO    R116528   2.227  11.464   8.839 -0.0440  0.0102  0.0366
 1221ERGO    R216529   2.341  11.711   8.790 -0.3006  0.1206 -0.0157
 1221ERGO    R316530   2.298  11.643   8.530 -0.0999 -0.0447 -0.0086
 1221ERGO    R416531   2.352  11.932   8.524 -0.1707 -0.0326 -0.1397
 1221ERGO    R516532   2.178  11.830   8.439 -0.0856 -0.1276 -0.2035
 1221ERGO    C116533   2.318  11.996   8.126  0.0933 -0.2768 -0.2052
 1221ERGO    C216534   2.354  11.969   7.915  0.4051  0.2827 -0.1970
 1222ERGO   ROH16535   6.729   2.435   6.105  0.3349  0.0844 -0.1049
 1222ERGO    R116536   6.830   2.202   6.231 -0.0718 -0.0398  0.0056
 1222ERGO    R216537   7.070   2.199   6.366 -0.0676 -0.3996 -0.0067
 1222ERGO    R316538   6.918   2.102   6.569 -0.2358 -0.0330  0.0522
 1222ERGO    R416539   7.176   2.165   6.693 -0.0606 -0.5293 -0.0216
 1222ERGO    R516540   7.071   1.974   6.702 -0.4616 -0.3208  0.0517
 1222ERGO    C116541   7.095   2.054   7.075 -0.2143 -0.2606  0.0251
 1222ERGO    C216542   6.907   1.986   7.354 -0.0031  0.0304  0.0709
 1223ERGO   ROH16543   8.034   6.688   5.727 -0.1082 -0.1123 -0.0580
 1223ERGO    R116544   8.031   6.742   6.005  0.1231 -0.0023 -0.0747
 1223ERGO    R216545   7.859   6.615   6.179  0.0250  0.3172  0.0674
 1223ERGO    R316546   8.088   6.553   6.311  0.0112  0.0246 -0.0371
 1223ERGO    R416547   7.873   6.480   6.497  0.0001  0.0918 -0.0249
 1223ERGO    R516548   8.043   6.611   6.539  0.1293 -0.0856  0.0151
 1223ERGO    C116549   8.097   6.344   6.806 -0.0274 -0.3142 -0.1768
 1223ERGO    C216550   8.117   6.111   7.144  0.0953 -0.2258 -0.0224
 1224ERGO   ROH16551   7.135   6.075   5.711  0.0890  0.2913  0.0634
 1224ERGO    R116552   6.973   6.147   5.932 -0.1399  0.0929 -0.0343
 1224ERGO    R216553   6.777   5.981   6.032  0.1222 -0.2379 -0.0376
 1224ERGO    R316554   6.910   6.018   6.267 -0.0306  0.1225 -0.0029
 1224ERGO    R416555   6.636   5.945   6.346  0.0241 -0.1412 -0.0707
 1224ERGO    R516556   6.748   6.122   6.410 -0.2211  0.0491 -0.1652
 1224ERGO    C116557   6.679   5.959   6.749 -0.1764  0.2535 -0.0575
 1224ERGO    C216558   6.752   5.859   7.032  0.0772 -0.2896 -0.2899
 1225ERGO   ROH16559   8.167   8.031   6.470 -0.1776 -0.1280 -0.0447
 1225ERGO    R116560   8.172   7.885   6.712 -0.1607 -0.0473  0.0008
 1225ERGO    R216561   8.343   7.948   6.920  0.0768 -0.1784 -0.1698
 1225ERGO    R316562   8.113   7.954   7.065  0.2037  0.1435  0.0345
 1225ERGO    R416563   8.314   7.847   7.249  0.1307 -0.8251 -0.3476
 1225ERGO    R516564   8.122   7.756   7.199 -0.1904 -0.2103 -0.4012
 1225ERGO    C116565   8.081   7.794   7.577  0.2812 -0.8996 -0.2594
 1225ERGO    C216566   8.080   7.690   7.907  0.1212  0.0740 -0.0510
 1226ERGO   ROH16567   9.286  10.607   5.751 -0.0502 -0.0512  0.0731
 1226ERGO    R116568   9.202  10.765   5.970  0.0228  0.0327  0.0424
 1226ERGO    R216569   9.072  10.658   6.190 -0.1249  0.1513  0.0178
 1226ERGO    R316570   9.272  10.781   6.327 -0.0555 -0.0064  0.0592
 1226ERGO    R416571   9.046  10.778   6.512 -0.0890  0.1527  0.0196
 1226ERGO    R516572   9.162  10.952   6.452  0.0523  0.0692  0.0502
 1226ERGO    C116573   9.217  10.964   6.829 -0.0028  0.0055  0.0596
 1226ERGO    C216574   9.235  10.910   7.303  0.0581  0.0478 -0.1769
 1227ERGO   ROH16575  10.620   7.264   6.217  0.0842  0.1857  0.1547
 1227ERGO    R116576  10.410   7.317   6.400  0.0204  0.1309  0.0984
 1227ERGO    R216577  10.416   7.231   6.663 -0.0961  0.0013  0.0655
 1227ERGO    R316578  10.372   7.494   6.715 -0.0700 -0.0147  0.1684
 1227ERGO    R416579  10.249   7.354   6.940 -0.0679 -0.0726  0.1156
 1227ERGO    R516580  10.154   7.501   6.812 -0.0579 -0.0209  0.1814
 1227ERGO    C116581  10.112   7.673   7.150 -0.0270 -0.1306  0.2413
 1227ERGO    C216582  10.109   7.854   7.466 -0.2799  0.1897  0.4770
 1228ERGO   ROH16583   7.977   8.611   6.098  0.1263 -0.0559  0.1417
 1228ERGO    R116584   7.974   8.454   6.334 -0.3272 -0.0593  0.1419
 1228ERGO    R216585   8.145   8.501   6.545 -0.1423 -0.5795  0.1185
 1228ERGO    R316586   7.914   8.511   6.688 -0.1150  0.1329  0.1504
 1228ERGO    R416587   8.122   8.457   6.887 -0.2405 -0.6790  0.0998
 1228ERGO    R516588   7.939   8.341   6.855 -0.6588 -0.0610  0.0612
 1228ERGO    C116589   7.891   8.440   7.220 -0.2721 -0.0681  0.1189
 1228ERGO    C216590   7.668   8.515   7.461 -0.1622 -0.0436  0.2587
 1229ERGO   ROH16591   0.034   1.530   6.314  0.2497  0.1104 -0.0681
 1229ERGO    R116592   0.171   1.678   6.514  0.0384  0.1835  0.0281
 1229ERGO    R216593   0.039   1.820   6.711 -0.1727 -0.1367  0.1330
 1229ERGO    R316594   0.196   1.672   6.876  0.0495 -0.0252  0.0236
 1229ERGO    R416595   0.135   1.914   7.029 -0.0899 -0.1145  0.1002
 1229ERGO    R516596   0.333   1.832   6.989 -0.0387  0.0748 -0.0173
 1229ERGO    C116597   0.339   1.829   7.370  0.1670  0.0031 -0.0215
 1229ERGO    C216598   0.364   1.896   7.675 -0.2994 -0.3199  0.0291
 1230ERGO   ROH16599   5.646   3.526   6.235 -0.0364 -0.0149 -0.0368
 1230ERGO    R116600   5.909   3.613   6.292 -0.0562  0.0036  0.0295
 1230ERGO    R216601   6.021   3.594   6.544 -0.0607 -0.1388  0.0228
 1230ERGO    R316602   6.217   3.461   6.412 -0.0290 -0.0115 -0.0593
 1230ERGO    R416603   6.315   3.484   6.687  0.0007 -0.0865 -0.0636
 1230ERGO    R516604   6.420   3.545   6.506 -0.0477  0.0263 -0.0537
 1230ERGO    C116605   6.672   3.294   6.646  0.0661  0.0635 -0.1910
 1230ERGO    C216606   6.886   3.000   6.811  0.4668 -0.2169  0.0047
 1231ERGO   ROH16607   3.255  16.452   6.552 -0.0757 -0.0340  0.1524
 1231ERGO    R116608   3.344  16.704   6.646 -0.0352 -0.0670  0.2026
 1231ERGO    R216609   3.448  16.740   6.899  0.2984 -0.2051  0.0893
 1231ERGO    R316610   3.658  16.846   6.762  0.0794 -0.0405 -0.1264
 1231ERGO    R416611   3.674  16.968   7.029  0.1922  0.0630 -0.1830
 1231ERGO    R516612   3.670  17.073   6.838 -0.0762 -0.0029 -0.2149
 1231ERGO    C116613   4.002  17.199   6.976 -0.0752  0.3738 -0.5440
 1231ERGO    C216614   4.269  17.361   7.181 -0.1299 -0.0250 -0.1260
 1232ERGO   ROH16615   3.140  18.395   8.473  0.1687  0.1753  0.0659
 1232ERGO    R116616   3.045  18.457   8.214  0.1162 -0.0665  0.0244
 1232ERGO    R216617   2.811  18.351   8.112 -0.0425  0.0330  0.2693
 1232ERGO    R316618   2.748  18.613   8.072  0.2085  0.0512 -0.0393
 1232ERGO    R416619   2.555  18.463   7.909 -0.2112  0.0180  0.4701
 1232ERGO    R516620   2.686  18.624   7.841 -0.1159 -0.2358  0.0277
 1232ERGO    C116621   2.347  18.774   7.752 -0.0738  0.0265  0.2973
 1232ERGO    C216622   2.117  18.710   7.490 -0.0634 -0.0047 -0.2153
 1233ERGO   ROH16623   5.261  10.550   5.933  0.2311 -0.5185 -0.1868
 1233ERGO    R116624   5.252  10.555   6.216  0.0982 -0.2879 -0.1921
 1233ERGO    R216625   5.381  10.367   6.372  0.0585 -0.1405  0.0241
 1233ERGO    R316626   5.492  10.587   6.488 -0.0334 -0.0250 -0.1041
 1233ERGO    R416627   5.562  10.364   6.666 -0.1070  0.1392  0.1331
 1233ERGO    R516628   5.463  10.550   6.723 -0.1616  0.1789 -0.0859
 1233ERGO    C116629   5.772  10.568   6.946 -0.2895  0.4106  0.0762
 1233ERGO    C216630   5.784  10.670   7.203  0.1864  0.1605 -0.0312
 1234ERGO   ROH16631   3.688   6.171   5.720  0.0070  0.2076  0.1586
 1234ERGO    R116632   3.680   6.149   6.003 -0.0172  0.1521  0.1529
 1234ERGO    R216633   3.880   6.025   6.148 -0.0504  0.0957  0.1464
 1234ERGO    R316634   3.885   6.261   6.282 -0.0255  0.0623  0.1931
 1234ERGO    R416635   3.990   6.065   6.473 -0.0522  0.0185  0.1572
 1234ERGO    R516636   3.825   6.203   6.506 -0.0332  0.0265  0.1796
 1234ERGO    C116637   4.058   6.310   6.789 -0.0298 -0.0579  0.2075
 1234ERGO    C216638   4.338   6.349   7.082 -0.0060 -0.0213 -0.2122
 1235ERGO   ROH16639  13.572  17.329   6.269  0.0591  0.2145 -0.0319
 1235ERGO    R116640  13.769  17.351   6.471 -0.0328  0.2575  0.0540
 1235ERGO    R216641  13.729  17.497   6.702 -0.3343 -0.1036  0.2426
 1235ERGO    R316642  13.797  17.263   6.823 -0.0054 -0.1674 -0.0493
 1235ERGO    R416643  13.761  17.453   7.043 -0.1819 -0.4687  0.1862
 1235ERGO    R516644  13.937  17.329   7.006 -0.0350 -0.2080 -0.0133
 1235ERGO    C116645  13.844  17.208   7.355  0.2158 -0.7409 -0.1205
 1235ERGO    C216646  13.890  17.127   7.733  0.0943 -0.0573  0.1728
 1236ERGO   ROH16647  13.210   8.412   6.046 -0.0298 -0.0473 -0.0815
 1236ERGO    R116648  13.326   8.431   6.304 -0.0841  0.0376 -0.0628
 1236ERGO    R216649  13.182   8.385   6.536 -0.1025 -0.0078 -0.0816
 1236ERGO    R316650  13.383   8.208   6.586 -0.0246  0.0955 -0.0292
 1236ERGO    R416651  13.217   8.202   6.827 -0.1118 -0.0271 -0.0929
 1236ERGO    R516652  13.432   8.238   6.818 -0.1281  0.0915 -0.0074
 1236ERGO    C116653  13.425   7.930   7.044 -0.0440  0.0586 -0.0504
 1236ERGO    C216654  13.419   7.703   7.127 -0.1743  0.2162 -0.1061
 1237ERGO   ROH16655   3.901  17.619   8.950  0.1638  0.1395 -0.1702
 1237ERGO    R116656   3.753  17.620   8.709  0.1581  0.0457 -0.1669
 1237ERGO    R216657   3.524  17.771   8.675  0.0653 -0.0948 -0.1641
 1237ERGO    R316658   3.657  17.865   8.458  0.0023 -0.0158 -0.1694
 1237ERGO    R416659   3.397  17.997   8.447 -0.0470 -0.1019 -0.1094
 1237ERGO    R516660   3.490  17.882   8.287 -0.0305 -0.0464 -0.1420
 1237ERGO    C116661   3.448  18.218   8.110 -0.1715 -0.0318 -0.0826
 1237ERGO    C216662   3.400  18.404   7.884 -0.2752  0.2812 -0.0069
 1238ERGO   ROH16663  15.639   3.552   5.715  0.0309  0.0887 -0.0176
 1238ERGO    R116664  15.417   3.532   5.890  0.0365  0.0701 -0.0122
 1238ERGO    R216665  15.323   3.290   5.984  0.0214  0.0569 -0.0571
 1238ERGO    R316666  15.355   3.408   6.226  0.0423  0.0057 -0.0350
 1238ERGO    R416667  15.124   3.231   6.260  0.0453  0.0026 -0.0515
 1238ERGO    R516668  15.132   3.445   6.305  0.0507 -0.0084 -0.0077
 1238ERGO    C116669  15.038   3.308   6.649  0.0788 -0.0772 -0.0275
 1238ERGO    C216670  14.820   3.109   6.825  0.1740  0.0598 -0.0691
 1239ERGO   ROH16671  15.265   6.697   5.841 -0.1034 -0.0268 -0.1126
 1239ERGO    R116672  15.179   6.765   6.102 -0.0416 -0.0109 -0.0967
 1239ERGO    R216673  14.979   6.626   6.233 -0.0078 -0.0030 -0.0414
 1239ERGO    R316674  15.168   6.601   6.427  0.0365  0.0111 -0.0819
 1239ERGO    R416675  14.925   6.490   6.546  0.0235  0.1459  0.0298
 1239ERGO    R516676  15.051   6.647   6.631  0.1037  0.1389 -0.0683
 1239ERGO    C116677  15.070   6.388   6.911  0.0832  0.2459  0.0332
 1239ERGO    C216678  15.248   6.233   7.192 -0.0819  0.0057 -0.0734
 1240ERGO   ROH16679  17.989   7.374   9.614 -0.0245  0.0320 -0.1490
 1240ERGO    R116680  18.148   7.432   9.387  0.0398  0.0513 -0.0996
 1240ERGO    R216681  18.424   7.443   9.398  0.0523 -0.1982 -0.0738
 1240ERGO    R316682  18.407   7.262   9.196 -0.0970 -0.0449 -0.2011
 1240ERGO    R416683  18.631   7.437   9.121  0.1431 -0.2621 -0.0051
 1240ERGO    R516684  18.457   7.389   8.999  0.1250  0.0295 -0.1000
 1240ERGO    C116685  18.735   7.264   8.770  0.0555 -0.1552 -0.0846
 1240ERGO    C216686  18.973   7.205   8.540  0.0692  0.2118 -0.0999
 1241ERGO   ROH16687  14.712   8.511   6.202 -0.0407  0.3067 -0.0995
 1241ERGO    R116688  14.795   8.696   6.399 -0.0046  0.1844  0.0013
 1241ERGO    R216689  14.653   8.925   6.457  0.1063  0.2469  0.0364
 1241ERGO    R316690  14.661   8.828   6.711 -0.0423  0.1429  0.0023
 1241ERGO    R416691  14.515   9.082   6.733 -0.0334  0.1425  0.0263
 1241ERGO    R516692  14.691   9.023   6.848 -0.1033  0.0828  0.0995
 1241ERGO    C116693  14.442   9.082   7.131 -0.2543 -0.0160 -0.0117
 1241ERGO    C216694  14.351   9.214   7.476 -0.1857  0.0893 -0.0656
 1242ERGO   ROH16695  16.400   2.094   6.047  0.1501  0.1565 -0.0627
 1242ERGO    R116696  16.422   2.267   6.270  0.0854  0.0694  0.0120
 1242ERGO    R216697  16.631   2.446   6.301  0.0724  0.0647  0.1394
 1242ERGO    R316698  16.430   2.626   6.326  0.0604  0.0477  0.1564
 1242ERGO    R416699  16.655   2.747   6.469  0.0785  0.0912  0.0906
 1242ERGO    R516700  16.455   2.713   6.548  0.0992  0.0824  0.1379
 1242ERGO    C116701  16.480   3.091   6.591  0.0711  0.0906  0.0782
 1242ERGO    C216702  16.416   3.415   6.566 -0.1067  0.3046 -0.1152
 1243ERGO   ROH16703  11.760   0.327   6.593 -0.0989 -0.1214 -0.0126
 1243ERGO    R116704  11.835   0.449   6.837  0.0771 -0.1648 -0.0453
 1243ERGO    R216705  11.842   0.723   6.870  0.0888 -0.1758  0.0003
 1243ERGO    R316706  11.680   0.669   7.082  0.2505 -0.2179  0.1167
 1243ERGO    R416707  11.767   0.946   7.123 -0.0053 -0.0914 -0.0998
 1243ERGO    R516708  11.784   0.782   7.266  0.2374  0.0044 -0.0035
 1243ERGO    C116709  11.571   1.025   7.469  0.0917 -0.0818 -0.0489
 1243ERGO    C216710  11.507   1.270   7.702  0.0543  0.0690 -0.1041
 1244ERGO   ROH16711   2.908  18.683   6.015  0.5339 -0.0069 -0.0374
 1244ERGO    R116712   2.814  18.600   6.269  0.3020  0.1572 -0.0652
 1244ERGO    R216713   2.920  18.382   6.402  0.0333  0.1085  0.0773
 1244ERGO    R316714   2.954  18.562   6.603  0.0619  0.1480  0.0362
 1244ERGO    R416715   3.068  18.313   6.707 -0.3136  0.0511  0.2378
 1244ERGO    R516716   2.917  18.436   6.803 -0.2613  0.2651  0.0554
 1244ERGO    C116717   3.187  18.441   7.072 -0.4887  0.0547  0.2928
 1244ERGO    C216718   3.445  18.494   7.290  0.1161 -0.2940 -0.0347
 1245ERGO   ROH16719   3.237   9.460   9.160 -0.0513  0.1073  0.1235
 1245ERGO    R116720   3.325   9.680   9.005 -0.1407  0.0701  0.0187
 1245ERGO    R216721   3.570   9.684   8.877 -0.1196  0.1309  0.0648
 1245ERGO    R316722   3.419   9.739   8.658 -0.1065 -0.0694  0.0029
 1245ERGO    R416723   3.696   9.756   8.564 -0.0751  0.3386  0.1288
 1245ERGO    R516724   3.542   9.908   8.542 -0.2931  0.1233  0.0748
 1245ERGO    C116725   3.627   9.849   8.175 -0.0368  0.2715  0.1080
 1245ERGO    C216726   3.552   9.678   7.825 -0.2114  0.0014  0.0415
 1246ERGO   ROH16727  11.579   5.108   6.143 -0.0919 -0.2441 -0.0079
 1246ERGO    R116728  11.535   5.178   6.414  0.0857 -0.1808  0.0063
 1246ERGO    R216729  11.329   5.071   6.564  0.0144  0.0593  0.0875
 1246ERGO    R316730  11.531   5.005   6.734  0.0045 -0.1637  0.0145
 1246ERGO    R416731  11.286   4.954   6.887 -0.0008 -0.0974  0.0289
 1246ERGO    R516732  11.455   5.077   6.949  0.0883 -0.2374  0.0698
 1246ERGO    C116733  11.451   4.824   7.234 -0.0190 -0.3981 -0.0737
 1246ERGO    C216734  11.647   4.548   7.472 -0.1207  0.0807  0.3193
 1247ERGO   ROH16735   7.954  13.574   6.236  0.0382  0.0921  0.0845
 1247ERGO    R116736   7.876  13.604   6.507  0.0992  0.0241  0.1096
 1247ERGO    R216737   7.636  13.509   6.604  0.0636  0.1136  0.1103
 1247ERGO    R316738   7.795  13.383   6.784  0.0272 -0.0459  0.0330
 1247ERGO    R416739   7.532  13.397   6.913  0.1661  0.4786  0.2830
 1247ERGO    R516740   7.721  13.466   6.996  0.3692  0.2130  0.0582
 1247ERGO    C116741   7.620  13.213   7.263  0.1916  0.5414  0.3109
 1247ERGO    C216742   7.530  13.249   7.568 -0.0478  0.1016  0.4036
 1248ERGO   ROH16743   7.628   4.718   5.957 -0.0478 -0.1685 -0.0771
 1248ERGO    R116744   7.737   4.671   6.213  0.0659 -0.0501 -0.1015
 1248ERGO    R216745   7.581   4.610   6.433  0.1454  0.2124  0.0385
 1248ERGO    R316746   7.746   4.395   6.450  0.0140  0.1163  0.0958
 1248ERGO    R416747   7.688   4.467   6.729  0.0262  0.1936  0.0721
 1248ERGO    R516748   7.886   4.442   6.639  0.0194  0.0601  0.1022
 1248ERGO    C116749   7.906   4.182   6.917 -0.1665  0.0924  0.1455
 1248ERGO    C216750   7.898   4.220   7.278 -0.0702 -0.2334  0.0871
 1249ERGO   ROH16751   6.365  17.430   6.112 -0.0257  0.2999 -0.0528
 1249ERGO    R116752   6.272  17.276   6.331  0.0638  0.1994 -0.0854
 1249ERGO    R216753   6.444  17.147   6.505  0.1362  0.2045 -0.1562
 1249ERGO    R316754   6.305  17.285   6.693  0.1196  0.0956 -0.0866
 1249ERGO    R416755   6.394  17.042   6.830 -0.0751 -0.0947 -0.2799
 1249ERGO    R516756   6.189  17.117   6.818 -0.0324  0.0282 -0.3078
 1249ERGO    C116757   6.235  17.111   7.197 -0.2137 -0.3713 -0.2865
 1249ERGO    C216758   6.081  17.168   7.442  0.1797  0.0961 -0.2586
 1250ERGO   ROH16759  17.065   1.535   6.278  0.0275 -0.0523 -0.0139
 1250ERGO    R116760  16.976   1.655   6.518  0.0598 -0.2717  0.1126
 1250ERGO    R216761  17.033   1.551   6.768  0.4462 -0.2806  0.0315
 1250ERGO    R316762  17.130   1.801   6.814  0.1154 -0.1476  0.0216
 1250ERGO    R416763  17.049   1.702   7.078  0.4441 -0.3260  0.0527
 1250ERGO    R516764  16.987   1.889   6.985  0.1065 -0.3938  0.1405
 1250ERGO    C116765  17.148   2.025   7.302  0.1324 -0.2277  0.0558
 1250ERGO    C216766  16.982   2.007   7.574 -0.0117  0.2932 -0.1375
 1251ERGO   ROH16767   8.227   4.752   8.171 -0.0417  0.0436 -0.0186
 1251ERGO    R116768   8.290   4.777   7.896  0.0865 -0.0839 -0.0021
 1251ERGO    R216769   8.496   4.636   7.777 -0.0287 -0.3474  0.1008
 1251ERGO    R316770   8.300   4.556   7.606 -0.0623 -0.1578  0.0480
 1251ERGO    R416771   8.549   4.486   7.470 -0.0921 -0.0696 -0.0495
 1251ERGO    R516772   8.386   4.605   7.389 -0.0830  0.0327  0.0815
 1251ERGO    C116773   8.395   4.324   7.131 -0.1604  0.2702 -0.1865
 1251ERGO    C216774   8.400   4.217   6.830 -0.1745 -0.1431  0.2953
 1252ERGO   ROH16775  11.417   7.891   6.206 -0.0045  0.0951 -0.1598
 1252ERGO    R116776  11.319   7.975   6.458 -0.0506  0.1751 -0.2047
 1252ERGO    R216777  11.286   7.802   6.670 -0.1195  0.2378 -0.1674
 1252ERGO    R316778  11.443   7.982   6.800 -0.1281  0.2531 -0.1770
 1252ERGO    R416779  11.371   7.785   7.005 -0.0151  0.1840 -0.1960
 1252ERGO    R516780  11.344   8.001   7.018 -0.0704  0.1775 -0.1413
 1252ERGO    C116781  11.568   7.944   7.321  0.0377  0.1669 -0.2216
 1252ERGO    C216782  11.590   8.001   7.623  0.1323 -0.1895 -0.5460
 1253ERGO   ROH16783   3.978  10.464   6.085 -0.0926 -0.4539 -0.2707
 1253ERGO    R116784   3.937  10.435   6.364 -0.1500 -0.2250 -0.2537
 1253ERGO    R216785   3.727  10.291   6.469  0.0133 -0.4116 -0.1862
 1253ERGO    R316786   3.925  10.160   6.602  0.1500 -0.0047  0.0274
 1253ERGO    R416787   3.685  10.122   6.768  0.0372 -0.4437 -0.2010
 1253ERGO    R516788   3.878  10.202   6.833 -0.1680 -0.0490 -0.0199
 1253ERGO    C116789   3.847   9.902   7.067  0.1794 -0.0805 -0.0090
 1253ERGO    C216790   3.714   9.937   7.410  0.1098 -0.0555  0.1212
 1254ERGO   ROH16791   4.002   8.016   5.694  0.0809  0.1384  0.0712
 1254ERGO    R116792   3.738   7.988   5.793  0.0489  0.0205 -0.0443
 1254ERGO    R216793   3.603   7.747   5.789  0.2388 -0.0912  0.0843
 1254ERGO    R316794   3.573   7.797   6.055  0.0618  0.1127  0.0336
 1254ERGO    R416795   3.371   7.592   5.994  0.1708 -0.0138  0.0670
 1254ERGO    R516796   3.336   7.784   6.091  0.0398  0.0578 -0.1029
 1254ERGO    C116797   3.208   7.549   6.362 -0.0349  0.2229  0.0094
 1254ERGO    C216798   3.086   7.306   6.616 -0.0171  0.1332 -0.0353
 1255ERGO   ROH16799  16.573  18.330   9.726 -0.0843  0.1462  0.1284
 1255ERGO    R116800  16.624  18.562   9.572  0.1551  0.0120  0.0014
 1255ERGO    R216801  16.784  18.558   9.347 -0.0754 -0.3382 -0.1628
 1255ERGO    R316802  16.565  18.670   9.229 -0.0127 -0.0036  0.0242
 1255ERGO    R416803  16.779  18.697   9.030 -0.1691 -0.4859 -0.2283
 1255ERGO    R516804  16.652  18.857   9.108  0.1963 -0.2136 -0.1616
 1255ERGO    C116805  16.572  18.883   8.736 -0.1647 -0.2575 -0.0908
 1255ERGO    C216806  16.569  18.919   8.393 -0.0797 -0.2448 -0.0244
 1256ERGO   ROH16807   8.824   7.301   6.184 -0.0729  0.0203  0.0503
 1256ERGO    R116808   8.867   7.142   6.414  0.0311 -0.0131  0.0092
 1256ERGO    R216809   8.896   7.250   6.667  0.1133 -0.0509  0.0184
 1256ERGO    R316810   8.693   7.080   6.728  0.1542 -0.0829  0.0633
 1256ERGO    R416811   8.834   7.120   6.981  0.0688  0.1125  0.0780
 1256ERGO    R516812   8.788   6.929   6.888  0.1588  0.0427  0.1784
 1256ERGO    C116813   8.608   6.884   7.221  0.0813  0.1775  0.1549
 1256ERGO    C216814   8.528   6.838   7.519  0.1964 -0.0709  0.1600
 1257ERGO   ROH16815  10.731  17.005   6.606 -0.3615  0.2505  0.1857
 1257ERGO    R116816  10.870  17.025   6.852 -0.2264  0.1638  0.1175
 1257ERGO    R216817  10.984  16.806   6.977 -0.1323  0.1240 -0.0353
 1257ERGO    R316818  11.208  16.960   6.971 -0.1519  0.1509 -0.0975
 1257ERGO    R416819  11.267  16.751   7.168 -0.0080  0.0607 -0.2342
 1257ERGO    R516820  11.282  16.966   7.198 -0.0131  0.0478 -0.1385
 1257ERGO    C116821  11.641  16.863   7.274  0.0459  0.0491 -0.4083
 1257ERGO    C216822  11.949  16.797   7.366 -0.1917  0.1294 -0.0048
 1258ERGO   ROH16823   9.658   9.385   9.544  0.3467  0.0393 -0.0631
 1258ERGO    R116824   9.552   9.255   9.317  0.1915  0.1286 -0.0454
 1258ERGO    R216825   9.647   9.301   9.061  0.2544 -0.0232 -0.0591
 1258ERGO    R316826   9.677   9.031   9.058 -0.0670 -0.0621 -0.0057
 1258ERGO    R416827   9.743   9.116   8.786  0.2627 -0.1779  0.0481
 1258ERGO    R516828   9.597   8.964   8.843  0.0363  0.0065 -0.0588
 1258ERGO    C116829   9.827   8.754   8.622 -0.0340 -0.3045  0.1605
 1258ERGO    C216830   9.946   8.681   8.301 -0.2411 -0.1344  0.2179
 1259ERGO   ROH16831   5.436   4.590   5.927 -0.0461  0.0893 -0.1644
 1259ERGO    R116832   5.624   4.515   6.124 -0.1981  0.0969 -0.0143
 1259ERGO    R216833   5.897   4.516   6.078 -0.1754 -0.1884  0.1003
 1259ERGO    R316834   5.901   4.674   6.299 -0.1315  0.0085 -0.0377
 1259ERGO    R416835   6.165   4.547   6.293 -0.1835 -0.1172  0.1006
 1259ERGO    R516836   6.025   4.547   6.460 -0.2040  0.0931  0.0889
 1259ERGO    C116837   6.326   4.713   6.626 -0.1469  0.1092 -0.0288
 1259ERGO    C216838   6.546   4.851   6.735 -0.0191 -0.0144  0.0038
 1260ERGO   ROH16839  11.033  14.826   6.211  0.0801 -0.1940  0.1263
 1260ERGO    R116840  10.978  14.946   6.461 -0.0758 -0.2609  0.1249
 1260ERGO    R216841  10.949  14.799   6.693  0.1097 -0.2975  0.1238
 1260ERGO    R316842  11.141  14.968   6.785 -0.1045 -0.0486  0.1269
 1260ERGO    R416843  11.001  14.877   7.026  0.0046 -0.2353  0.1264
 1260ERGO    R516844  11.037  15.084   6.967 -0.2594 -0.1832  0.1280
 1260ERGO    C116845  11.211  15.081   7.306 -0.2577  0.0345  0.1308
 1260ERGO    C216846  11.280  15.015   7.654 -0.0330  0.1326  0.0249
 1261ERGO   ROH16847   2.911  12.482   6.162  0.0600 -0.2811 -0.0459
 1261ERGO    R116848   2.927  12.348   6.410 -0.1109 -0.1729  0.0249
 1261ERGO    R216849   3.161  12.333   6.556 -0.1335 -0.3799  0.0346
 1261ERGO    R316850   3.006  12.436   6.754 -0.0137 -0.0897 -0.0168
 1261ERGO    R416851   3.261  12.371   6.885 -0.1354 -0.4987  0.0502
 1261ERGO    R516852   3.062  12.306   6.948 -0.2689 -0.1633  0.0160
 1261ERGO    C116853   3.173  12.491   7.262 -0.0241 -0.2955  0.0110
 1261ERGO    C216854   3.258  12.454   7.516 -0.0172 -0.0216  0.1051
 1262ERGO   ROH16855  12.212  17.117   6.450  0.0639  0.1473  0.1063
 1262ERGO    R116856  12.267  16.960   6.679  0.0938  0.0249  0.0190
 1262ERGO    R216857  12.497  16.990   6.830  0.1231 -0.0370  0.0084
 1262ERGO    R316858  12.320  17.019   7.034  0.1255 -0.1430  0.0451
 1262ERGO    R416859  12.580  16.994   7.165  0.2206  0.3868 -0.0159
 1262ERGO    R516860  12.403  16.874   7.206  0.4120  0.1270  0.1464
 1262ERGO    C116861  12.462  17.023   7.552  0.2796  0.5342  0.0044
 1262ERGO    C216862  12.464  17.269   7.755 -0.0556  0.0957 -0.0556
 1263ERGO   ROH16863  11.147  11.913   6.064  0.0316  0.1542  0.1355
 1263ERGO    R116864  11.152  11.748   6.294 -0.1978  0.0978  0.1028
 1263ERGO    R216865  11.332  11.786   6.500 -0.1324 -0.1989  0.1055
 1263ERGO    R316866  11.106  11.791   6.652 -0.1248  0.0949  0.1125
 1263ERGO    R416867  11.305  11.656   6.820 -0.3008 -0.1885  0.0967
 1263ERGO    R516868  11.107  11.582   6.767 -0.4061  0.0820  0.0969
 1263ERGO    C116869  11.078  11.586   7.148 -0.3916  0.0932  0.0981
 1263ERGO    C216870  10.968  11.656   7.462 -0.1722 -0.0283  0.2526
 1264ERGO   ROH16871  12.378   9.663   6.181 -0.1909 -0.0835  0.1023
 1264ERGO    R116872  12.152   9.733   6.336 -0.1342  0.0746  0.1178
 1264ERGO    R216873  12.033   9.557   6.514 -0.3482  0.0953  0.0063
 1264ERGO    R316874  12.072   9.761   6.690 -0.1381 -0.0463  0.1254
 1264ERGO    R416875  11.869   9.591   6.817 -0.2911  0.0813  0.0379
 1264ERGO    R516876  11.855   9.805   6.779 -0.0851  0.1159  0.1674
 1264ERGO    C116877  11.811   9.802   7.158 -0.0605 -0.0599  0.1682
 1264ERGO    C216878  11.717   9.655   7.477  0.2332 -0.0274 -0.2701
 1265ERGO   ROH16879   4.894   6.569   5.743 -0.1218  0.2038 -0.1394
 1265ERGO    R116880   4.829   6.790   5.907 -0.0665  0.1446 -0.0377
 1265ERGO    R216881   4.665   6.768   6.128 -0.0373  0.0757 -0.0286
 1265ERGO    R316882   4.876   6.885   6.255 -0.0062 -0.0051 -0.0032
 1265ERGO    R416883   4.649   6.919   6.439 -0.0638  0.2280 -0.1024
 1265ERGO    R516884   4.781   7.076   6.363  0.0725  0.1106 -0.1278
 1265ERGO    C116885   4.837   7.117   6.738 -0.0500  0.2406 -0.1216
 1265ERGO    C216886   4.650   7.080   7.023 -0.1131  0.3038 -0.2615
 1266ERGO   ROH16887  16.485  13.934   6.257  0.0323  0.0587  0.0262
 1266ERGO    R116888  16.362  13.884   6.507  0.0352 -0.1297 -0.0091
 1266ERGO    R216889  16.472  13.715   6.696  0.2718  0.0805  0.0400
 1266ERGO    R316890  16.448  13.933   6.857 -0.1612  0.0582  0.0162
 1266ERGO    R416891  16.541  13.719   7.035  0.3408  0.2622  0.0257
 1266ERGO    R516892  16.365  13.845   7.064  0.0665 -0.1026  0.0463
 1266ERGO    C116893  16.557  13.926   7.384 -0.0256  0.3470 -0.0051
 1266ERGO    C216894  16.658  13.933   7.732  0.0222 -0.1445  0.0836
 1267ERGO   ROH16895  17.606   9.289   6.280 -0.2143  0.1383 -0.0066
 1267ERGO    R116896  17.416   9.142   6.429 -0.1565  0.0623 -0.0037
 1267ERGO    R216897  17.346   8.882   6.367 -0.1076  0.0498 -0.0452
 1267ERGO    R316898  17.413   8.836   6.626 -0.0457  0.0223 -0.0675
 1267ERGO    R416899  17.239   8.611   6.553 -0.1562  0.1025  0.0019
 1267ERGO    R516900  17.213   8.745   6.723 -0.0438  0.1090  0.0024
 1267ERGO    C116901  17.239   8.410   6.904 -0.1266  0.1076  0.0083
 1267ERGO    C216902  17.291   8.097   6.807  0.1002 -0.2119  0.2488
 1268ERGO   ROH16903   1.333  11.025   9.215  0.0007  0.3155 -0.0322
 1268ERGO    R116904   1.476  10.994   8.973  0.0499  0.2204  0.0070
 1268ERGO    R216905   1.374  10.857   8.756  0.0873  0.1421  0.0310
 1268ERGO    R316906   1.429  11.088   8.624  0.1213  0.0950 -0.0350
 1268ERGO    R416907   1.425  10.881   8.415 -0.1388  0.0829 -0.0079
 1268ERGO    R516908   1.586  11.023   8.455 -0.0360 -0.0043 -0.1394
 1268ERGO    C116909   1.507  11.113   8.093 -0.2385  0.0042 -0.0927
 1268ERGO    C216910   1.283  11.179   7.778 -0.1968 -0.3232 -0.3889
 1269ERGO   ROH16911  17.435  12.083   6.417  0.0621 -0.0265  0.0432
 1269ERGO    R116912  17.505  12.052   6.689  0.0495  0.1225  0.0636
 1269ERGO    R216913  17.706  12.200   6.809 -0.0062  0.2368  0.0091
 1269ERGO    R316914  17.510  12.262   6.987 -0.0359  0.2629 -0.0314
 1269ERGO    R416915  17.753  12.240   7.149 -0.1306 -0.1586  0.0790
 1269ERGO    R516916  17.564  12.135   7.183 -0.2651 -0.0001 -0.1262
 1269ERGO    C116917  17.596  12.322   7.514 -0.2309 -0.3643  0.0818
 1269ERGO    C216918  17.397  12.475   7.826  0.0542 -0.0901 -0.0046
 1270ERGO   ROH16919   3.339  12.579   6.085 -0.0505 -0.0054 -0.0616
 1270ERGO    R116920   3.511  12.743   6.238 -0.0239 -0.0492 -0.0438
 1270ERGO    R216921   3.643  12.962   6.132  0.0335 -0.0730 -0.0277
 1270ERGO    R316922   3.523  13.093   6.338  0.0461 -0.0559 -0.0316
 1270ERGO    R416923   3.749  13.264   6.261 -0.0279 -0.0086 -0.1261
 1270ERGO    R516924   3.705  13.188   6.461  0.0445  0.0299 -0.0989
 1270ERGO    C116925   3.699  13.563   6.530 -0.0518  0.0448 -0.1869
 1270ERGO    C216926   3.813  13.691   6.771 -0.1087 -0.0345  0.1436
 1271ERGO   ROH16927  18.017  16.325   5.866  0.2514 -0.1932 -0.1556
 1271ERGO    R116928  18.170  16.410   6.088  0.0829 -0.0805 -0.0812
 1271ERGO    R216929  18.056  16.487   6.327 -0.0856 -0.2568 -0.1063
 1271ERGO    R316930  18.224  16.300   6.430  0.0788 -0.1028 -0.0871
 1271ERGO    R416931  18.229  16.521   6.624 -0.1268 -0.0813 -0.1001
 1271ERGO    R516932  18.402  16.427   6.528 -0.0368  0.0649 -0.0878
 1271ERGO    C116933  18.488  16.365   6.894  0.0034  0.1655 -0.0784
 1271ERGO    C216934  18.329  16.410   7.146 -0.1725 -0.3132 -0.3460
 1272ERGO   ROH16935   4.132  18.071   5.800  0.2652 -0.0965  0.1669
 1272ERGO    R116936   4.327  18.208   5.952  0.1998  0.2007 -0.0081
 1272ERGO    R216937   4.354  18.483   5.946 -0.3771  0.2766  0.1396
 1272ERGO    R316938   4.328  18.460   6.215  0.0358  0.0228  0.1648
 1272ERGO    R416939   4.390  18.743   6.171 -0.3826  0.1389  0.2999
 1272ERGO    R516940   4.495  18.606   6.304 -0.0184  0.1588  0.0424
 1272ERGO    C116941   4.386  18.872   6.556  0.0018 -0.1793  0.4168
 1272ERGO    C216942   4.087  19.114   6.590  0.0143 -0.2343 -0.0687
 1273ERGO   ROH16943   2.290   0.753   6.068  0.2928 -0.0656  0.1290
 1273ERGO    R116944   2.257   0.874   6.322  0.1292 -0.1445  0.1478
 1273ERGO    R216945   2.322   1.138   6.370  0.1120 -0.1601  0.2762
 1273ERGO    R316946   2.066   1.151   6.461  0.0502 -0.1789  0.1063
 1273ERGO    R416947   2.229   1.260   6.680 -0.1108 -0.1552  0.2079
 1273ERGO    R516948   2.083   1.098   6.694 -0.1038 -0.1650  0.1189
 1273ERGO    C116949   1.934   1.344   6.945 -0.2985 -0.1699  0.0087
 1273ERGO    C216950   1.762   1.445   7.120  0.0589 -0.0058 -0.1233
 1274ERGO   ROH16951  16.570  17.246   6.155  0.0809 -0.1452 -0.0726
 1274ERGO    R116952  16.800  17.134   6.276  0.1415  0.1430  0.0891
 1274ERGO    R216953  16.944  17.265   6.471 -0.2663  0.2521  0.3319
 1274ERGO    R316954  16.901  17.036   6.611 -0.0521  0.0852  0.1316
 1274ERGO    R416955  17.045  17.211   6.797 -0.2877  0.0874  0.3115
 1274ERGO    R516956  17.101  17.008   6.741 -0.0530  0.1924  0.1540
 1274ERGO    C116957  17.064  16.965   7.118 -0.0989 -0.1651  0.1116
 1274ERGO    C216958  17.279  16.760   7.514 -0.2054 -0.2719 -0.0592
 1275ERGO   ROH16959   0.562   0.864   6.316 -0.0290  0.1828 -0.1754
 1275ERGO    R116960   0.740   0.808   6.529  0.0162  0.1338 -0.2261
 1275ERGO    R216961   0.951   0.974   6.595 -0.0686  0.2021 -0.1314
 1275ERGO    R316962   0.836   0.967   6.842 -0.0460 -0.0243 -0.1246
 1275ERGO    R416963   1.121   1.015   6.893 -0.0964  0.3206 -0.1309
 1275ERGO    R516964   0.999   0.857   6.979  0.1070  0.1328 -0.1733
 1275ERGO    C116965   1.113   1.033   7.298 -0.0914  0.1770 -0.1243
 1275ERGO    C216966   1.123   1.314   7.612 -0.2854 -0.0665  0.0975
 1276ERGO   ROH16967   1.307   4.828   5.665 -0.1710  0.2551  0.1029
 1276ERGO    R116968   1.215   4.620   5.834 -0.1650  0.1764  0.0091
 1276ERGO    R216969   1.193   4.649   6.108 -0.1985  0.0631  0.0149
 1276ERGO    R316970   0.937   4.569   6.063 -0.1846  0.0475 -0.0398
 1276ERGO    R416971   0.976   4.532   6.351 -0.1516 -0.1918 -0.0629
 1276ERGO    R516972   0.906   4.382   6.209 -0.1298 -0.0897 -0.1932
 1276ERGO    C116973   0.610   4.389   6.449 -0.1113 -0.3548 -0.1595
 1276ERGO    C216974   0.462   4.358   6.727  0.0576  0.0972  0.1855
 1277ERGO   ROH16975   8.768   3.535   6.078 -0.0027  0.0715  0.1232
 1277ERGO    R116976   8.652   3.540   6.336 -0.0490  0.1043  0.1015
 1277ERGO    R216977   8.661   3.324   6.508 -0.1831  0.0870  0.0841
 1277ERGO    R316978   8.770   3.505   6.679 -0.1311  0.0211  0.1221
 1277ERGO    R416979   8.758   3.255   6.832 -0.1774 -0.0177  0.0608
 1277ERGO    R516980   8.677   3.448   6.893 -0.1313 -0.0127  0.1146
 1277ERGO    C116981   8.917   3.384   7.182 -0.1254 -0.1406  0.0830
 1277ERGO    C216982   9.080   3.354   7.532  0.0279  0.0059  0.3440
 1278ERGO   ROH16983   1.529  10.538   5.876  0.0561  0.0320  0.0885
 1278ERGO    R116984   1.549  10.469   6.150  0.1061  0.0933  0.1007
 1278ERGO    R216985   1.331  10.473   6.321  0.1203  0.0530  0.1215
 1278ERGO    R316986   1.407  10.217   6.371  0.2130  0.0884  0.1642
 1278ERGO    R416987   1.269  10.303   6.615 -0.0157  0.0039  0.0648
 1278ERGO    R516988   1.469  10.217   6.602  0.0377  0.1068  0.2115
 1278ERGO    C116989   1.303   9.963   6.833 -0.0078  0.0085  0.0718
 1278ERGO    C216990   1.360   9.925   7.164 -0.2177  0.0391  0.1012
 1279ERGO   ROH16991  17.184   6.103   9.229  0.2023  0.1317 -0.0223
 1279ERGO    R116992  17.153   5.985   8.973  0.0587 -0.0041  0.0572
 1279ERGO    R216993  16.961   5.794   8.920 -0.2203  0.2450  0.1726
 1279ERGO    R316994  16.892   5.966   8.721  0.0588  0.2075  0.0373
 1279ERGO    R416995  16.873   5.700   8.599 -0.3857  0.1224  0.2514
 1279ERGO    R516996  16.987   5.870   8.523 -0.0992 -0.1177  0.1081
 1279ERGO    C116997  16.757   5.807   8.225 -0.2199  0.0158  0.1704
 1279ERGO    C216998  16.685   5.722   7.844  0.1046  0.4120  0.2763
 1280ERGO   ROH16999  16.495  10.875   5.844 -0.2512  0.0265 -0.0824
 1280ERGO    R117000  16.493  10.848   6.125 -0.1526  0.0171 -0.0822
 1280ERGO    R217001  16.575  11.050   6.295 -0.0377 -0.0093 -0.1052
 1280ERGO    R317002  16.329  11.013   6.406 -0.0064  0.0487 -0.0148
 1280ERGO    R417003  16.471  11.185   6.596  0.2014 -0.2138  0.0729
 1280ERGO    R517004  16.372  10.996   6.641  0.1037 -0.1921 -0.0491
 1280ERGO    C117005  16.180  11.228   6.875  0.3704 -0.2785  0.2615
 1280ERGO    C217006  16.144  11.325   7.240  0.1302 -0.2857 -0.1908
 1281ERGO   ROH17007   3.193   3.885   5.837 -0.0091  0.0479  0.1205
 1281ERGO    R117008   3.198   3.774   6.097  0.0829  0.0239  0.1084
 1281ERGO    R217009   3.403   3.823   6.275 -0.0216  0.2912  0.1575
 1281ERGO    R317010   3.200   3.902   6.438 -0.1737 -0.0066  0.1254
 1281ERGO    R417011   3.341   3.695   6.590  0.0274  0.0964  0.0907
 1281ERGO    R517012   3.128   3.700   6.545  0.0277 -0.1390  0.0249
 1281ERGO    C117013   3.114   3.694   6.926 -0.0868 -0.2966  0.0216
 1281ERGO    C217014   3.075   3.461   7.145 -0.1293  0.2374 -0.0516
 1282ERGO   ROH17015   4.697   2.625   9.276  0.1025  0.0991 -0.0632
 1282ERGO    R117016   4.671   2.692   9.002  0.1789 -0.0077 -0.0979
 1282ERGO    R217017   4.810   2.561   8.802 -0.0480 -0.3437 -0.0469
 1282ERGO    R317018   4.561   2.525   8.698 -0.1238 -0.0066  0.0081
 1282ERGO    R417019   4.726   2.599   8.469 -0.1002 -0.1348 -0.0107
 1282ERGO    R517020   4.541   2.694   8.531  0.0331  0.0718  0.0698
 1282ERGO    C117021   4.445   2.588   8.178 -0.2017  0.3032  0.0618
 1282ERGO    C217022   4.469   2.346   8.096 -0.1614 -0.2103  0.5448
 1283ERGO   ROH17023  18.248   3.325   5.824 -0.1632 -0.0081  0.0475
 1283ERGO    R117024  18.364   3.344   6.081 -0.0595  0.0522 -0.0023
 1283ERGO    R217025  18.331   3.566   6.243 -0.0032  0.0872 -0.0354
 1283ERGO    R317026  18.243   3.381   6.423  0.0756  0.1209  0.0380
 1283ERGO    R417027  18.342   3.603   6.587 -0.1950  0.3077 -0.0506
 1283ERGO    R517028  18.400   3.393   6.603 -0.0190  0.3684  0.1056
 1283ERGO    C117029  18.266   3.451   6.955 -0.2330  0.4677  0.0095
 1283ERGO    C217030  18.219   3.410   7.379  0.0624 -0.1314 -0.0725
 1284ERGO   ROH17031  13.601  14.247   6.217  0.0558  0.1423  0.0671
 1284ERGO    R117032  13.685  14.304   6.482 -0.0351  0.1415  0.0963
 1284ERGO    R217033  13.509  14.388   6.678 -0.1414 -0.0714  0.0948
 1284ERGO    R317034  13.613  14.177   6.815  0.0273 -0.0199  0.0488
 1284ERGO    R417035  13.578  14.386   7.017  0.0903 -0.0115  0.0500
 1284ERGO    R517036  13.761  14.276   6.975  0.1013  0.0497 -0.0623
 1284ERGO    C117037  13.715  14.187   7.343  0.3837  0.0717 -0.0193
 1284ERGO    C217038  13.634  14.230   7.693  0.2575  0.3139  0.0958
 1285ERGO   ROH17039   7.221  18.266   5.961 -0.0864 -0.1020  0.1461
 1285ERGO    R117040   7.200  18.235   6.241  0.0056 -0.0642  0.1577
 1285ERGO    R217041   7.278  18.432   6.419 -0.1460  0.0501  0.0999
 1285ERGO    R317042   7.024  18.402   6.513 -0.0974 -0.1770  0.1608
 1285ERGO    R417043   7.184  18.472   6.749 -0.1232  0.0814  0.1024
 1285ERGO    R517044   7.053  18.299   6.728  0.0518 -0.0643  0.1958
 1285ERGO    C117045   6.891  18.467   7.030 -0.0643 -0.1135  0.1611
 1285ERGO    C217046   6.609  18.584   7.286  0.1094 -0.0905 -0.0527
 1286ERGO   ROH17047   2.085  12.434   5.840 -0.0798 -0.2257  0.0511
 1286ERGO    R117048   2.029  12.607   6.057 -0.2479 -0.2479  0.0277
 1286ERGO    R217049   1.905  12.520   6.288 -0.0128 -0.3783  0.1131
 1286ERGO    R317050   2.123  12.630   6.408 -0.1188 -0.0084 -0.0215
 1286ERGO    R417051   1.912  12.645   6.611 -0.0255 -0.3419  0.0986
 1286ERGO    R517052   2.035  12.810   6.539 -0.3374 -0.1423  0.0151
 1286ERGO    C117053   2.121  12.820   6.911 -0.1324  0.0264 -0.0362
 1286ERGO    C217054   2.220  12.880   7.283  0.1744  0.1461  0.0071
 1287ERGO   ROH17055  15.722   8.436   9.331  0.1909  0.0914  0.0230
 1287ERGO    R117056  15.818   8.432   9.065  0.0820  0.0509 -0.0160
 1287ERGO    R217057  15.655   8.379   8.849 -0.0519  0.2264  0.0396
 1287ERGO    R317058  15.753   8.616   8.757  0.1171  0.1582  0.0402
 1287ERGO    R417059  15.750   8.440   8.522 -0.0408  0.1719  0.0325
 1287ERGO    R517060  15.921   8.553   8.598  0.0530  0.0399  0.0191
 1287ERGO    C117061  15.897   8.697   8.246  0.1243  0.0762  0.0289
 1287ERGO    C217062  15.957   8.658   7.917 -0.1436 -0.0234  0.1602
 1288ERGO   ROH17063  10.057   4.513   9.531 -0.1524  0.2224  0.1284
 1288ERGO    R117064  10.189   4.478   9.283 -0.1768 -0.0213  0.1473
 1288ERGO    R217065  10.082   4.327   9.078 -0.3550  0.0478  0.1868
 1288ERGO    R317066  10.120   4.555   8.934 -0.0566 -0.0403  0.1191
 1288ERGO    R417067  10.043   4.353   8.735 -0.2876 -0.0081  0.1745
 1288ERGO    R517068  10.220   4.480   8.729 -0.1272 -0.2288  0.1519
 1288ERGO    C117069  10.055   4.582   8.401  0.0318 -0.1234  0.1039
 1288ERGO    C217070  10.059   4.549   8.046  0.1492 -0.0640 -0.0741
 1289ERGO   ROH17071  12.142  16.423   6.437 -0.0066 -0.1700 -0.1043
 1289ERGO    R117072  12.262  16.323   6.672  0.3236  0.0540 -0.1701
 1289ERGO    R217073  12.184  16.084   6.788  0.0969  0.4149  0.4590
 1289ERGO    R317074  12.449  16.025   6.768 -0.0418 -0.1404 -0.0320
 1289ERGO    R417075  12.357  15.873   7.001  0.1172  0.3661  0.3953
 1289ERGO    R517076  12.524  16.012   6.995  0.4065  0.0387 -0.1547
 1289ERGO    C117077  12.705  15.695   7.106 -0.0010 -0.1836 -0.1026
 1289ERGO    C217078  12.619  15.401   7.227  0.1618 -0.0381 -0.3031
 1290ERGO   ROH17079  16.418   0.807   6.028 -0.2186 -0.1791  0.0480
 1290ERGO    R117080  16.273   0.835   6.269 -0.1480 -0.3102  0.1075
 1290ERGO    R217081  16.295   0.656   6.477  0.1917 -0.2264  0.1518
 1290ERGO    R317082  16.351   0.880   6.621 -0.0431 -0.1066  0.0592
 1290ERGO    R417083  16.335   0.665   6.821  0.2727 -0.0579  0.1382
 1290ERGO    R517084  16.225   0.853   6.824  0.0429 -0.1906  0.1007
 1290ERGO    C117085  16.412   0.880   7.155  0.0995  0.1526  0.0435
 1290ERGO    C217086  16.366   0.867   7.473 -0.1087 -0.1040 -0.2565
 1291ERGO   ROH17087   0.489  14.926   6.001 -0.0479 -0.0207  0.0990
 1291ERGO    R117088   0.331  14.776   6.183 -0.0507  0.0804  0.1811
 1291ERGO    R217089   0.440  14.592   6.358 -0.0850 -0.0524  0.0656
 1291ERGO    R317090   0.308  14.739   6.544  0.1767  0.0287  0.1922
 1291ERGO    R417091   0.428  14.518   6.695 -0.1999 -0.3183  0.0053
 1291ERGO    R517092   0.218  14.576   6.695 -0.1047  0.0528  0.0570
 1291ERGO    C117093   0.296  14.613   7.067 -0.0211 -0.3970  0.0891
 1291ERGO    C217094   0.343  14.652   7.364 -0.0335 -0.2275 -0.1383
 1292ERGO   ROH17095   7.914  11.826   6.381  0.1691 -0.0378 -0.0225
 1292ERGO    R117096   7.970  11.764   6.652  0.1329 -0.2366 -0.0590
 1292ERGO    R217097   7.806  11.844   6.860  0.3302 -0.0068  0.0165
 1292ERGO    R317098   7.806  11.579   6.919 -0.1373 -0.0382 -0.0840
 1292ERGO    R417099   7.698  11.707   7.158  0.2352  0.0765  0.0208
 1292ERGO    R517100   7.866  11.569   7.150 -0.0268 -0.2396 -0.1222
 1292ERGO    C117101   7.636  11.378   7.387 -0.2590  0.0954 -0.0711
 1292ERGO    C217102   7.495  11.158   7.614  0.2775  0.0158 -0.1550
 1293ERGO   ROH17103  11.268   3.318   6.067  0.1391 -0.0163 -0.1451
 1293ERGO    R117104  11.132   3.468   6.265  0.2145  0.0659 -0.1540
 1293ERGO    R217105  10.925   3.363   6.417  0.1106  0.2014 -0.1954
 1293ERGO    R317106  11.080   3.445   6.625  0.1391  0.0705 -0.1648
 1293ERGO    R417107  10.824   3.377   6.747  0.0507  0.2989 -0.2183
 1293ERGO    R517108  10.930   3.565   6.767  0.2128  0.2061 -0.2006
 1293ERGO    C117109  10.910   3.462   7.134  0.0425  0.2327 -0.2030
 1293ERGO    C217110  11.051   3.206   7.449 -0.2297  0.0896  0.3065
 1294ERGO   ROH17111  18.714  15.539   6.254 -0.2032 -0.1408  0.2671
 1294ERGO    R117112  18.869  15.659   6.458  0.0013 -0.0083  0.0404
 1294ERGO    R217113  18.823  15.613   6.727  0.0736  0.3930  0.1328
 1294ERGO    R317114  19.086  15.545   6.727  0.0108  0.1437  0.0958
 1294ERGO    R417115  19.030  15.627   7.003  0.1477  0.2366  0.0857
 1294ERGO    R517116  19.188  15.704   6.874  0.1939  0.0648  0.0489
 1294ERGO    C117117  19.397  15.571   7.164  0.1319 -0.0885  0.0235
 1294ERGO    C217118  19.487  15.539   7.429 -0.1727  0.1625  0.2524
 1295ERGO   ROH17119   5.664  14.141   6.055 -0.3452 -0.3318 -0.0552
 1295ERGO    R117120   5.728  13.955   6.258 -0.0343 -0.1145  0.0543
 1295ERGO    R217121   5.953  13.980   6.417  0.0668  0.2146 -0.1168
 1295ERGO    R317122   5.772  13.963   6.619  0.2165  0.2209  0.0184
 1295ERGO    R417123   6.007  13.820   6.719  0.1951  0.0455 -0.2286
 1295ERGO    R517124   5.803  13.744   6.709  0.1540  0.1692 -0.1050
 1295ERGO    C117125   5.868  13.710   7.084  0.4104 -0.0471 -0.1668
 1295ERGO    C217126   5.689  13.671   7.429 -0.1294 -0.1066  0.1964
 1296ERGO   ROH17127   7.861  18.423   6.083  0.0243  0.0157  0.1120
 1296ERGO    R117128   7.843  18.482   6.359  0.0233  0.1362  0.0860
 1296ERGO    R217129   8.060  18.468   6.528 -0.0140  0.0527  0.1204
 1296ERGO    R317130   7.989  18.724   6.588  0.1541  0.1261  0.0161
 1296ERGO    R417131   8.200  18.657   6.782 -0.1398 -0.0749  0.2879
 1296ERGO    R517132   8.000  18.734   6.827 -0.1323  0.1204  0.0368
 1296ERGO    C117133   8.215  19.007   6.985 -0.0554 -0.0805  0.2876
 1296ERGO    C217134   8.529  18.979   7.197 -0.1327  0.1434 -0.0394
 1297ERGO   ROH17135  15.076  16.331   7.429  0.1423  0.1357 -0.1969
 1297ERGO    R117136  15.256  16.502   7.566  0.1126  0.1497 -0.1756
 1297ERGO    R217137  15.475  16.408   7.706  0.0890  0.1654 -0.1300
 1297ERGO    R317138  15.610  16.582   7.548  0.1141  0.1589 -0.1158
 1297ERGO    R417139  15.784  16.542   7.781  0.0707  0.1781 -0.0765
 1297ERGO    R517140  15.714  16.733   7.702  0.0794  0.1721 -0.1033
 1297ERGO    C117141  16.092  16.785   7.676  0.0836  0.1793 -0.0319
 1297ERGO    C217142  16.410  16.987   7.614 -0.5381  0.1796  0.0464
 1298ERGO   ROH17143   7.178   1.183   6.026 -0.0590 -0.1485  0.0324
 1298ERGO    R117144   7.109   1.178   6.300 -0.0314 -0.0048  0.0423
 1298ERGO    R217145   7.180   0.970   6.468  0.0051  0.0945  0.1490
 1298ERGO    R317146   7.287   1.171   6.617  0.0002  0.1866  0.0311
 1298ERGO    R417147   7.309   0.933   6.787  0.0447  0.2734  0.1552
 1298ERGO    R517148   7.217   1.123   6.841  0.0290  0.2947  0.0657
 1298ERGO    C117149   7.484   1.099   7.112  0.0631  0.4640  0.0482
 1298ERGO    C217150   7.404   1.104   7.509 -0.0580  0.0277 -0.3084
 1299ERGO   ROH17151  16.082   5.642   9.362  0.0914 -0.0104  0.0439
 1299ERGO    R117152  15.995   5.602   9.096  0.0044  0.0727  0.0592
 1299ERGO    R217153  15.786   5.744   8.985  0.0541  0.2024  0.1294
 1299ERGO    R317154  15.970   5.803   8.793  0.0400  0.1280  0.0925
 1299ERGO    R417155  15.714   5.894   8.682  0.0343  0.1046  0.0852
 1299ERGO    R517156  15.856   5.759   8.587  0.0184  0.0645  0.1173
 1299ERGO    C117157  15.845   6.037   8.326  0.0095 -0.0221  0.0248
 1299ERGO    C217158  15.841   6.137   7.948 -0.1486 -0.1188  0.1476
 1300ERGO   ROH17159   8.765   2.224   6.042  0.1096  0.1730 -0.1076
 1300ERGO    R117160   8.823   2.358   6.285  0.2712  0.1348 -0.1256
 1300ERGO    R217161   8.771   2.246   6.532  0.0956  0.2467 -0.1170
 1300ERGO    R317162   9.034   2.298   6.576  0.1669 -0.1044 -0.0948
 1300ERGO    R417163   8.921   2.254   6.843  0.0388  0.1918 -0.0869
 1300ERGO    R517164   9.037   2.428   6.777  0.3039  0.0023 -0.1582
 1300ERGO    C117165   9.256   2.308   7.065  0.0728 -0.1697 -0.0484
 1300ERGO    C217166   9.343   2.341   7.365  0.1290  0.2359 -0.0541
 1301ERGO   ROH17167   3.632  14.425   6.054 -0.0744  0.3125  0.1820
 1301ERGO    R117168   3.526  14.538   6.291 -0.2036  0.1569  0.2003
 1301ERGO    R217169   3.282  14.461   6.396 -0.1521 -0.0889  0.1535
 1301ERGO    R317170   3.429  14.418   6.620 -0.1359 -0.0188  0.1563
 1301ERGO    R417171   3.150  14.413   6.711 -0.1406 -0.3553  0.1195
 1301ERGO    R517172   3.311  14.536   6.792 -0.2851 -0.2137  0.1882
 1301ERGO    C117173   3.211  14.344   7.106 -0.1188 -0.4446  0.1024
 1301ERGO    C217174   3.251  14.189   7.380 -0.0063 -0.0774  0.1071
 1302ERGO   ROH17175   8.171   9.638   6.136 -0.2889 -0.1677  0.0952
 1302ERGO    R117176   8.081   9.670   6.403 -0.2865 -0.1849  0.0974
 1302ERGO    R217177   7.986   9.459   6.554 -0.0948 -0.2289  0.1538
 1302ERGO    R317178   8.175   9.543   6.731 -0.1478 -0.0350  0.1169
 1302ERGO    R417179   7.971   9.413   6.896  0.0845 -0.3862  0.1426
 1302ERGO    R517180   8.049   9.615   6.922 -0.1850 -0.2826  0.1900
 1302ERGO    C117181   8.139   9.467   7.261  0.1392 -0.2958  0.1015
 1302ERGO    C217182   8.247   9.425   7.560 -0.2349 -0.0906 -0.1420
 1303ERGO   ROH17183  15.520   1.727   6.114 -0.0487  0.0250  0.0549
 1303ERGO    R117184  15.594   1.832   6.366 -0.1894  0.1129  0.0610
 1303ERGO    R217185  15.428   1.820   6.586 -0.1602 -0.1681  0.0743
 1303ERGO    R317186  15.643   1.701   6.702  0.0367  0.1465  0.0417
 1303ERGO    R417187  15.513   1.848   6.920 -0.1832 -0.1005  0.0746
 1303ERGO    R517188  15.722   1.863   6.861 -0.2071  0.2407  0.0680
 1303ERGO    C117189  15.764   1.753   7.224 -0.0115  0.2343  0.0442
 1303ERGO    C217190  15.813   1.800   7.609 -0.0471  0.2811 -0.0355
 1304ERGO   ROH17191  10.107  17.909   6.341  0.2257  0.0307  0.1750
 1304ERGO    R117192  10.204  17.897   6.607  0.0389  0.0990  0.2470
 1304ERGO    R217193  10.076  18.022   6.817 -0.2205 -0.0133  0.1582
 1304ERGO    R317194  10.083  17.774   6.927 -0.0992 -0.0140  0.1531
 1304ERGO    R417195  10.039  17.955   7.154  0.0514 -0.0220  0.1894
 1304ERGO    R517196  10.197  17.805   7.136  0.0602  0.0004  0.0663
 1304ERGO    C117197  10.024  17.683   7.454  0.3235 -0.0277  0.2029
 1304ERGO    C217198   9.968  17.502   7.732 -0.0085 -0.5723 -0.1053
 1305W        W17199  12.745  13.937   2.760  0.1227 -0.2283 -0.3435
 1306W        W17200   1.316  13.837  11.199  0.2890  0.1092 -0.0226
 1307W        W17201  16.721  11.558   4.252  0.1286  0.1808  0.1358
 1308W        W17202   6.488   6.497   3.502 -0.0202 -0.4042  0.0076
 1309W        W17203  16.947   1.398  11.129 -0.1632 -0.2560  0.1365
 1310W        W17204   2.455   6.056   4.234 -0.1122 -0.0220 -0.1929
 1311W        W17205   1.689   8.185  11.150 -0.1788 -0.2893  0.4133
 1312W        W17206  18.730   4.385  11.897  0.2804 -0.1505  0.0066
 1313W        W17207  16.321  17.149  13.813 -0.0432 -0.0982  0.2101
 1314W        W17208  11.681  17.492  14.878  0.0582 -0.1628  0.0741
 1315W        W17209  12.427  14.279   1.796 -0.2297  0.2063 -0.0227
 1316W        W17210   2.087  14.215  13.208  0.1155  0.1380  0.3086
 1317W        W17211  13.779  16.069  12.932  0.1438  0.0953 -0.3666
 1318W        W17212   2.440  11.277  14.217 -0.1781 -0.0218 -0.0826
 1319W        W17213   9.556  10.546  13.857  0.0090 -0.0646 -0.0734
 1320W        W17214  15.811   6.229   1.789 -0.2259 -0.0145  0.1911
 1321W        W17215   0.770  14.699   0.361  0.2901  0.3197  0.3948
 1322W        W17216   9.899  17.066   4.049  0.3022 -0.2106  0.3828
 1323W        W17217   5.297   0.269  13.001 -0.3180 -0.2614  0.0386
 1324W        W17218   4.316  16.878   2.572  0.0992 -0.0971 -0.0219
 1325W        W17219  10.198  11.401  15.468  0.0874  0.0851 -0.3662
 1326W        W17220  18.476   8.713   4.909  0.1777  0.2555 -0.1869
 1327W        W17221   5.998   6.631   1.767  0.0334 -0.0998 -0.1484
 1328W        W17222   5.160   3.541   5.214 -0.1714  0.0489 -0.1188
 1329W        W17223  11.596   0.321  12.910  0.2136  0.1909  0.1365
 1330W        W17224  11.475  16.924  10.841 -0.2901  0.0469  0.0171
 1331W        W17225  14.198   7.187  10.942  0.0168  0.0153 -0.0023
 1332W        W17226   5.283   1.522  13.256  0.0955 -0.2048 -0.1180
 1333W        W17227   6.678  18.257  11.869  0.0010 -0.1297  0.0582
 1334W        W17228  12.677   2.344   3.996 -0.0680 -0.0050  0.2354
 1335W        W17229  10.444  14.645  13.917  0.0248  0.1625  0.2536
 1336W        W17230  12.649   0.752  13.048 -0.0401 -0.0962  0.0458
 1337W        W17231  11.045   9.639   2.907  0.2184 -0.0432 -0.0077
 1338W        W17232   6.416   4.526  11.201  0.0326  0.0671  0.1850
 1339W        W17233  11.897   9.672   1.832  0.2098  0.0278  0.2012
 1340W        W17234  10.252   9.943   3.372 -0.2054 -0.0042  0.0338
 1341W        W17235   1.159   6.075  15.247 -0.0220 -0.0064  0.0321
 1342W        W17236   0.870  18.602   1.499 -0.1756 -0.2084 -0.0559
 1343W        W17237   5.171   0.125   1.675 -0.3041  0.0241  0.2561
 1344W        W17238   6.081   0.927  11.012  0.0256  0.1231  0.1662
 1345W        W17239   4.019  12.969   1.173  0.1235 -0.1889 -0.2116
 1346W        W17240  15.469  12.291  11.942 -0.1031  0.1089  0.2426
 1347W        W17241   3.084  17.069   4.732 -0.0554 -0.1368 -0.0780
 1348W        W17242  16.019   8.420   1.009  0.0347  0.0345  0.0710
 1349W        W17243   9.502   8.759  15.068  0.0572 -0.1679 -0.1257
 1350W        W17244  10.644  15.876  11.387  0.4301  0.1238 -0.0878
 1351W        W17245   6.762   9.133   3.328  0.0215 -0.0072  0.2828
 1352W        W17246  17.450   6.879   0.391 -0.1297 -0.1209 -0.0973
 1353W        W17247  14.969   5.538  14.732 -0.1059  0.1749  0.1393
 1354W        W17248  12.410  15.979   4.702  0.2172  0.0587  0.0512
 1355W        W17249  18.027   3.554   3.360  0.4261 -0.0485  0.0673
 1356W        W17250  11.234  16.401   1.459 -0.1752 -0.0693 -0.0015
 1357W        W17251   6.339   3.914  14.895  0.0881 -0.1069 -0.5318
 1358W        W17252   1.086  14.162  11.511 -0.0186  0.1021 -0.0196
 1359W        W17253  12.464   5.892  12.581  0.0551 -0.0443  0.3156
 1360W        W17254  16.232   3.292  11.867  0.2023 -0.2714 -0.1617
 1361W        W17255   6.781   6.559  14.448 -0.3595 -0.1083 -0.2684
 1362W        W17256  12.411  10.127  14.199  0.1747 -0.1631 -0.2831
 1363W        W17257  10.576  17.522  15.444 -0.0743  0.1307  0.0234
 1364W        W17258  10.208  15.976  14.664  0.0556  0.1321 -0.3424
 1365W        W17259   2.462  11.907   3.416 -0.1926 -0.2427 -0.1074
 1366W        W17260  13.164   5.037  12.170 -0.1879  0.3017  0.2540
 1367W        W17261   7.853  13.900   0.708 -0.0071  0.0443  0.5549
 1368W        W17262   5.265  18.092  12.132  0.0810  0.0500  0.1403
 1369W        W17263   8.760  11.797   1.737 -0.0933  0.2517 -0.2319
 1370W        W17264   3.923   6.865   0.193  0.0115  0.0034 -0.2961
 1371W        W17265   8.465   0.439   3.675  0.2127  0.3677 -0.3025
 1372W        W17266  18.869  10.830   9.759  0.1611  0.2420 -0.0634
 1373W        W17267   5.338   5.745   5.339 -0.0062 -0.2802 -0.0092
 1374W        W17268  11.415   6.265  14.182 -0.1945  0.2124 -0.1520
 1375W        W17269  18.299  14.558   0.815  0.2160  0.0009  0.0281
 1376W        W17270  14.493   4.996   4.126  0.0425  0.2500 -0.1267
 1377W        W17271  16.431   9.449   1.550 -0.3996  0.1654 -0.0830
 1378W        W17272  17.455   9.526  15.310  0.4171  0.0858 -0.0798
 1379W        W17273   6.208   3.283  11.049  0.1101 -0.0227  0.0622
 1380W        W17274  10.865   1.047   4.695  0.1608 -0.2832 -0.1736
 1381W        W17275  11.168  12.786  15.286  0.1011 -0.1675  0.3468
 1382W        W17276  12.987  15.809   3.834 -0.0550  0.1072 -0.0420
 1383W        W17277  18.424   2.866   0.397 -0.4818 -0.0278 -0.0226
 1384W        W17278  12.985  10.922   3.196  0.0345 -0.0962  0.0261
 1385W        W17279   1.173   2.654  14.329  0.1438 -0.2379  0.0880
 1386W        W17280   2.996  12.514  10.769 -0.0879 -0.1148 -0.0777
 1387W        W17281   0.185   4.094  12.187  0.1223 -0.0806 -0.1959
 1388W        W17282   3.082  14.064  13.286 -0.0635  0.0973 -0.1549
 1389W        W17283   4.043   1.709  10.783 -0.0079 -0.2442  0.1552
 1390W        W17284  14.580   4.354   1.070  0.1723 -0.0439  0.0664
 1391W        W17285  14.834  11.055  11.959  0.0784 -0.1155  0.1531
 1392W        W17286   3.248   1.915   4.327 -0.1683 -0.1791 -0.0396
 1393W        W17287  11.503   7.210  13.617  0.2988 -0.0348 -0.0608
 1394W        W17288   0.093   5.403  13.683 -0.2434 -0.2315  0.2640
 1395W        W17289  12.618  18.690   6.096 -0.3082 -0.2761 -0.0427
 1396W        W17290  11.527   7.490  15.001 -0.0870  0.2277 -0.1604
 1397W        W17291   7.729  15.848   0.021  0.2017  0.0940  0.0886
 1398W        W17292  13.311   4.636  11.895  0.1507  0.1278  0.1942
 1399W        W17293  12.424   2.620  11.375  0.4005 -0.1102  0.4448
 1400W        W17294   8.278  10.624  12.592  0.0546 -0.1070  0.3299
 1401W        W17295   2.196  14.085   4.909 -0.0229  0.1946 -0.1962
 1402W        W17296  12.042   7.927   0.995  0.3840 -0.0462 -0.1443
 1403W        W17297   5.463  14.957  11.276 -0.0422 -0.3073 -0.3548
 1404W        W17298   6.211   1.142   3.487 -0.3039 -0.2546  0.0603
 1405W        W17299   5.049  15.436   2.684 -0.0986  0.3352  0.1150
 1406W        W17300  10.613   0.732   2.409  0.0991  0.1421 -0.2816
 1407W        W17301  13.859   4.488  14.698  0.0247 -0.3017 -0.3105
 1408W        W17302   3.722   4.275   0.476  0.1469 -0.0439  0.0472
 1409W        W17303  10.409  16.923  10.832 -0.0008 -0.0839 -0.0905
 1410W        W17304   0.330  16.385  11.046  0.3604  0.2543 -0.0370
 1411W        W17305   3.181  17.765  12.463  0.4121  0.1262 -0.1561
 1412W        W17306   3.749   6.051   1.203  0.0790 -0.0567 -0.0783
 1413W        W17307   8.219  15.528   4.061  0.0416 -0.0467 -0.1823
 1414W        W17308  10.654  17.565   4.884  0.1984 -0.1229 -0.0514
 1415W        W17309   9.674  15.079  15.161  0.1309  0.1415  0.0630
 1416W        W17310   4.889  12.751   1.061 -0.2402  0.0139 -0.0741
 1417W        W17311  11.773   8.836   4.390 -0.0290  0.1822  0.0316
 1418W        W17312   9.463   7.418  11.417 -0.2477 -0.0026  0.3110
 1419W        W17313  14.373  11.702  15.394  0.0949 -0.0864 -0.0872
 1420W        W17314  18.653  16.311  14.968 -0.1114 -0.0734  0.0611
 1421W        W17315   1.410  15.367   4.052  0.0182 -0.1809  0.2184
 1422W        W17316  10.434   0.953  15.207  0.0465 -0.0780  0.0102
 1423W        W17317  12.887  18.723   2.637 -0.0247  0.3529  0.1109
 1424W        W17318  10.516   8.233   1.889  0.1497 -0.0113  0.2894
 1425W        W17319  18.809   9.332   4.498  0.2524 -0.1697  0.2622
 1426W        W17320  18.305   9.043  14.062 -0.3397  0.1383 -0.0454
 1427W        W17321  12.458   6.190   0.648  0.1558  0.0434  0.3101
 1428W        W17322   4.543  18.665  11.374  0.1542  0.2067  0.2993
 1429W        W17323  15.037   1.757   0.614  0.1626  0.1820  0.1100
 1430W        W17324  12.426  16.509   2.564 -0.0072 -0.2491 -0.0272
 1431W        W17325   4.462   3.388   4.484  0.0705 -0.4194 -0.1280
 1432W        W17326  18.137  15.382   3.606 -0.1762  0.1433 -0.0227
 1433W        W17327  15.224  10.686   3.020  0.0662 -0.2052  0.0866
 1434W        W17328  17.570  11.481   5.207 -0.1266  0.0542  0.4752
 1435W        W17329  16.677  10.929   2.767 -0.0719  0.0043  0.0993
 1436W        W17330   9.859   5.700  12.206  0.1612 -0.0187 -0.1065
 1437W        W17331   9.310   4.279   4.092 -0.0724  0.0800 -0.0934
 1438W        W17332   8.078  18.655   1.374  0.1311 -0.3303  0.1180
 1439W        W17333  17.414  12.871  13.173  0.0189 -0.3296 -0.1356
 1440W        W17334  11.169   9.287  11.932 -0.0870  0.0761  0.1591
 1441W        W17335   3.126  10.800  13.939  0.2159  0.0177  0.1618
 1442W        W17336   0.846  10.998   3.603 -0.3009 -0.0559  0.2868
 1443W        W17337   7.965  11.820   4.085  0.1039  0.1843 -0.4911
 1444W        W17338  13.888  12.266  12.634  0.3180 -0.0369  0.1703
 1445W        W17339  10.217   0.927  12.617  0.3658 -0.0630 -0.1736
 1446W        W17340  12.403  18.022   2.082  0.3748 -0.0146  0.1402
 1447W        W17341  12.640   2.499   1.278 -0.1275  0.1077 -0.0134
 1448W        W17342   5.828  12.142   1.143 -0.0704 -0.1916 -0.2532
 1449W        W17343   6.088  16.026   1.623 -0.1377 -0.1012 -0.2285
 1450W        W17344  10.980   2.093  13.050 -0.0246  0.1178 -0.4162
 1451W        W17345  14.606  17.679  11.683 -0.0743 -0.0250  0.2325
 1452W        W17346  17.680   4.649  11.160  0.3880  0.2480 -0.0149
 1453W        W17347   7.710   0.070   4.333 -0.1555 -0.0167 -0.2911
 1454W        W17348   3.036   8.122  14.689 -0.1981  0.4275  0.1122
 1455W        W17349  10.190  16.035  10.960  0.2595 -0.1266 -0.1172
 1456W        W17350  11.550  18.520   3.585  0.0312  0.3149 -0.2359
 1457W        W17351  15.456  17.958   4.034 -0.4026 -0.0531 -0.4971
 1458W        W17352   9.455  14.198  14.806  0.2287  0.2217  0.0849
 1459W        W17353  13.604  12.953   0.945  0.1748  0.0952 -0.2002
 1460W        W17354  17.413   4.603   1.885  0.0093 -0.3515  0.2586
 1461W        W17355  13.386   3.282   9.888  0.1703  0.2987  0.0890
 1462W        W17356   3.263   2.173  11.396  0.1223 -0.0860 -0.0197
 1463W        W17357   5.481  17.283  14.906  0.0092 -0.2224 -0.3499
 1464W        W17358   5.219  16.634  14.113 -0.1216  0.0613  0.0752
 1465W        W17359  15.709  12.366  14.024 -0.2695  0.1282  0.1145
 1466W        W17360   9.907   1.297  12.339 -0.3001 -0.2510 -0.0884
 1467W        W17361  10.723   1.236   6.051 -0.0164 -0.1701 -0.1364
 1468W        W17362   1.509  14.155  14.758 -0.1354  0.1120 -0.1287
 1469W        W17363  18.874   1.913  13.688 -0.0503  0.1239  0.0051
 1470W        W17364  15.763   3.665   2.753  0.1080 -0.1822 -0.1205
 1471W        W17365  10.588   7.894   3.171 -0.5815  0.2714 -0.2078
 1472W        W17366   5.000  14.443   2.016  0.3443  0.0132 -0.2529
 1473W        W17367  16.423  13.539  12.854 -0.1327  0.1934 -0.3719
 1474W        W17368   3.321   4.391  11.902 -0.1548 -0.1627 -0.0583
 1475W        W17369  18.202   8.135  11.262 -0.1571 -0.2423  0.2287
 1476W        W17370  15.379  12.883   4.677  0.2358 -0.1236 -0.1379
 1477W        W17371  11.732   0.593   3.080  0.5658 -0.1176  0.2206
 1478W        W17372  11.944   0.963   5.640  0.1835 -0.0444  0.0563
 1479W        W17373   4.863  12.212   3.779  0.1350  0.1885 -0.2037
 1480W        W17374  12.192  14.833  11.542 -0.0249  0.4441 -0.0302
 1481W        W17375   9.551   0.317  13.648 -0.1787  0.1431  0.0112
 1482W        W17376  14.075  12.600   4.120  0.0518  0.2910 -0.2012
 1483W        W17377  15.860  12.882  14.886 -0.1485  0.1555  0.2491
 1484W        W17378   9.954   1.998   3.286 -0.0095  0.3818  0.1092
 1485W        W17379   3.074  11.432  12.745  0.0267 -0.0752 -0.1470
 1486W        W17380   5.632  14.975   3.457 -0.0833 -0.0805 -0.3514
 1487W        W17381   6.271  12.279   0.845  0.0215  0.3878  0.2205
 1488W        W17382   3.956   8.887   9.950  0.0047 -0.0017  0.0550
 1489W        W17383   2.468  11.233  12.652 -0.0662 -0.1254 -0.1519
 1490W        W17384  18.752  14.967   6.126 -0.0409  0.1154 -0.1479
 1491W        W17385   4.542   8.384   0.819 -0.1325  0.2225 -0.2383
 1492W        W17386  17.672  15.276   9.930  0.1460 -0.2305  0.0257
 1493W        W17387  17.779  10.947   3.935  0.2232 -0.0345 -0.0946
 1494W        W17388  15.400   1.689  15.158  0.0492  0.4145  0.0644
 1495W        W17389   5.387   1.123   4.254  0.1878  0.0586 -0.0811
 1496W        W17390   0.997  14.890   0.804  0.0198 -0.1705  0.1959
 1497W        W17391  16.613   2.479  15.205  0.1324 -0.1610  0.2773
 1498W        W17392   7.327   3.495   3.885  0.0195 -0.2596 -0.0382
 1499W        W17393  15.448  10.671  12.337 -0.3389 -0.0895  0.0799
 1500W        W17394  15.094   7.565  12.744 -0.0903 -0.1611 -0.0429
 1501W        W17395  14.815  11.305  10.836  0.0243 -0.0617  0.0839
 1502W        W17396   0.308  15.718  13.463 -0.1637 -0.1671 -0.0511
 1503W        W17397  14.943  17.839   1.126  0.2321 -0.0803 -0.1986
 1504W        W17398   5.248  13.157  13.354 -0.0779  0.0799  0.3129
 1505W        W17399   7.518   8.819  15.288 -0.2551 -0.2137  0.3483
 1506W        W17400   9.610  11.674   2.279  0.1101  0.0476  0.1535
 1507W        W17401  17.740   5.092  10.946 -0.1540  0.0247 -0.3697
 1508W        W17402   7.652   1.777  13.614  0.0607  0.2228  0.0013
 1509W        W17403   8.698   8.706  12.474 -0.1034 -0.0722  0.2111
 1510W        W17404  17.399   9.533   4.705  0.2710  0.2427  0.0314
 1511W        W17405   1.113   4.699  12.189  0.0904  0.1247  0.1107
 1512W        W17406   8.657  11.104  12.189  0.1330 -0.0590 -0.2784
 1513W        W17407  17.349   6.063  12.238 -0.2685  0.2019  0.0131
 1514W        W17408  15.915   9.789   9.578  0.0960  0.1790  0.3331
 1515W        W17409   0.617  13.595  14.717 -0.1147 -0.1623  0.1203
 1516W        W17410  13.293   6.979  13.187 -0.3126  0.1475 -0.2961
 1517W        W17411  18.230  18.147   2.507 -0.0295 -0.4707 -0.2203
 1518W        W17412   9.253  14.300   5.380 -0.1526 -0.3038  0.1645
 1519W        W17413  18.282   6.110   4.669  0.2585 -0.0524 -0.0080
 1520W        W17414  18.640   2.570  14.542  0.2734 -0.0007  0.0077
 1521W        W17415   9.018  13.541  10.331 -0.1649  0.0078  0.0406
 1522W        W17416   1.975   8.456   2.236 -0.2886  0.1903 -0.0066
 1523W        W17417   3.518  11.828   2.171  0.1360 -0.1774  0.3771
 1524W        W17418  14.922  10.050  12.143  0.1009  0.0333  0.0242
 1525W        W17419   4.743   5.102   0.948  0.0964 -0.0476 -0.2841
 1526W        W17420   9.222   0.642   1.077  0.0142 -0.1341 -0.0632
 1527W        W17421   2.905  12.940   2.826  0.0039  0.2343  0.0913
 1528W        W17422  17.208  14.613   3.199  0.0432  0.2127 -0.1646
 1529W        W17423   5.093   7.534  11.814  0.1372  0.4032  0.0970
 1530W        W17424  12.192  14.656   1.043 -0.2865 -0.2297 -0.1196
 1531W        W17425  15.899   8.076   1.414 -0.1547  0.1730 -0.2425
 1532W        W17426   8.920  15.437  11.051 -0.0899  0.1932 -0.0347
 1533W        W17427   2.338   7.300  13.887 -0.3592 -0.0911  0.2508
 1534W        W17428  15.934   0.828  11.828 -0.2559  0.2766  0.0596
 1535W        W17429   2.522   3.048  10.249 -0.0144 -0.0411  0.0621
 1536W        W17430  16.248   1.928   2.272  0.3197  0.3220  0.3522
 1537W        W17431  15.538  12.993   0.279 -0.0143 -0.1288 -0.0999
 1538W        W17432  11.180   5.324   2.286 -0.2762  0.0193 -0.0831
 1539W        W17433   4.057   7.653   0.692 -0.2420 -0.0167  0.0905
 1540W        W17434   9.884   0.759   0.553  0.1343 -0.0427 -0.0510
 1541W        W17435  13.984   0.785  11.830 -0.0348 -0.3130  0.2899
 1542W        W17436   2.792   8.689   3.407 -0.2129 -0.0133 -0.2114
 1543W        W17437  13.070   6.642   3.296  0.2098 -0.3423 -0.3116
 1544W        W17438  10.394  13.345  11.395 -0.0854  0.2659  0.0233
 1545W        W17439  18.064   0.816  15.232  0.0807 -0.3270  0.1574
 1546W        W17440   1.967  18.663  13.483  0.2711  0.1833  0.2076
 1547W        W17441  14.245  11.840   3.065  0.3143 -0.2978  0.1436
 1548W        W17442  13.986  15.586  15.464 -0.1566 -0.1231  0.3948
 1549W        W17443   8.193   1.618  14.387  0.1762  0.0611  0.1598
 1550W        W17444   5.637   5.831   1.433  0.2140 -0.1563 -0.0653
 1551W        W17445   4.272   8.603  12.027  0.1342  0.0905 -0.0543
 1552W        W17446  14.797  12.846   9.844 -0.2428  0.2317  0.0525
 1553W        W17447  17.903  13.018  13.990  0.1655  0.0587  0.4516
 1554W        W17448  15.487   2.875  14.155 -0.0761  0.0885 -0.0216
 1555W        W17449   8.400  15.528  12.258 -0.0091 -0.1725  0.1815
 1556W        W17450   7.810   2.810   3.683  0.0126 -0.2093  0.1037
 1557W        W17451   1.868   7.802  15.407  0.1704 -0.1656  0.1859
 1558W        W17452  14.898  12.956   3.262  0.2819 -0.1795 -0.1965
 1559W        W17453   0.309   8.692   0.458 -0.2536  0.0627 -0.0954
 1560W        W17454   0.401   2.875  11.335  0.2633 -0.1056  0.0197
 1561W        W17455  14.096   2.612  11.604  0.0424 -0.0133  0.0839
 1562W        W17456  15.300   6.547   2.620 -0.6046 -0.1330 -0.0295
 1563W        W17457   0.736   7.897   0.178 -0.0146  0.0004  0.0294
 1564W        W17458   4.165   0.119   0.383 -0.0312 -0.1303  0.2414
 1565W        W17459   1.403  10.685   1.293 -0.3534 -0.3488 -0.2084
 1566W        W17460  18.381   2.097   2.066  0.1538 -0.0326  0.1169
 1567W        W17461   0.802  13.032   2.687 -0.0356 -0.0315  0.0129
 1568W        W17462  10.363   0.833   4.723 -0.2294  0.1650  0.0934
 1569W        W17463  15.293   4.705   0.304  0.0424  0.1410  0.0446
 1570W        W17464   1.415  11.554  11.922 -0.0570 -0.3115  0.1544
 1571W        W17465  15.725  16.113   5.833 -0.1268 -0.3535  0.0316
 1572W        W17466  11.276   5.935  11.383  0.1299  0.1477 -0.0655
 1573W        W17467  16.037   7.561  11.077  0.0962 -0.1825  0.3204
 1574W        W17468   2.351   9.870   4.790  0.1746  0.0683  0.3236
 1575W        W17469  13.176  13.504  14.541 -0.3350  0.0414  0.2652
 1576W        W17470   2.072  12.571  13.807 -0.0513  0.0950  0.1015
 1577W        W17471  16.146   4.261   3.402  0.0030 -0.0766 -0.1932
 1578W        W17472   2.112   4.372  11.381 -0.0065  0.0161 -0.0966
 1579W        W17473  14.095   0.921   0.528  0.0516  0.1258  0.0510
 1580W        W17474   3.941  10.675  11.412  0.0026  0.0159 -0.3936
 1581W        W17475  17.906   8.873  13.276  0.1386  0.1428  0.0023
 1582W        W17476   4.266   2.715   5.250 -0.1993 -0.2156 -0.2103
 1583W        W17477   4.271  10.314  12.606  0.0235  0.2077  0.0646
 1584W        W17478   3.405  17.579  11.191  0.1651  0.0625  0.0792
 1585W        W17479   7.782   6.648  10.857  0.0819 -0.0899 -0.1843
 1586W        W17480   1.775  15.745   2.262 -0.2385  0.2043  0.1024
 1587W        W17481  15.542  10.159   4.000 -0.1153 -0.1222 -0.0857
 1588W        W17482   4.637  11.523  10.482  0.0546  0.1197 -0.1201
 1589W        W17483   5.532  13.728  15.086 -0.0955  0.0892 -0.0263
 1590W        W17484  15.265   0.753  12.494 -0.1629  0.0916  0.2146
 1591W        W17485  17.246  18.462   2.191 -0.0436 -0.0174 -0.1489
 1592W        W17486  10.329  17.723   3.562  0.0815 -0.0664 -0.1585
 1593W        W17487  17.246   9.544  12.117  0.1517  0.2115  0.0036
 1594W        W17488   9.002  16.110  14.748  0.1995  0.0803 -0.3059
 1595W        W17489  11.232  12.692   4.008 -0.2551 -0.1734  0.0291
 1596W        W17490   5.313  14.052   0.400  0.0715  0.1628  0.0534
 1597W        W17491  17.484   2.274   1.756 -0.1792 -0.2726 -0.2523
 1598W        W17492   7.708   0.375   2.646  0.4841  0.3518  0.1068
 1599W        W17493  15.518  10.652  14.658 -0.1181  0.1334  0.1252
 1600W        W17494   3.012  16.670   5.047  0.1832 -0.2726  0.2772
 1601W        W17495   7.930  13.784   3.298 -0.1366  0.0544 -0.4435
 1602W        W17496   5.775  17.561  14.475 -0.1045  0.3512  0.1766
 1603W        W17497   2.568  13.281   4.634  0.1884  0.1944 -0.0931
 1604W        W17498   7.211  13.999   5.034 -0.3384 -0.0272 -0.0608
 1605W        W17499   0.878  12.705  10.625  0.0161 -0.1561  0.0741
 1606W        W17500   2.767   6.601  12.235  0.1938 -0.0064 -0.3739
 1607W        W17501  18.660   5.441   1.720  0.0480 -0.0604  0.2341
 1608W        W17502  10.863   9.738   3.366  0.1173 -0.1483 -0.2502
 1609W        W17503  10.585  11.443  13.348  0.1662  0.0211  0.0739
 1610W        W17504  18.227   0.095  13.456 -0.0208  0.1747 -0.1431
 1611W        W17505  10.078   8.494   5.719 -0.1834  0.2282 -0.2182
 1612W        W17506   4.492  11.510   4.065 -0.0957 -0.0307  0.2406
 1613W        W17507  10.686   3.954  13.723 -0.4449  0.1848 -0.2601
 1614W        W17508  11.146   5.424   1.453  0.1875  0.1065 -0.2236
 1615W        W17509   1.248  11.889   0.720 -0.3115 -0.3789 -0.0875
 1616W        W17510   0.507   3.028  10.732 -0.0633  0.0670  0.0883
 1617W        W17511   4.670   8.596   0.392 -0.2104  0.0064  0.0287
 1618W        W17512   3.631   6.852  11.746 -0.1729 -0.0906  0.2593
 1619W        W17513  12.671   6.189  15.120 -0.1301  0.3202  0.1779
 1620W        W17514  10.492   2.616  12.814  0.0488 -0.0890 -0.1771
 1621W        W17515   7.815   1.529   1.280 -0.0104 -0.2533  0.5563
 1622W        W17516  16.828   0.296  15.334 -0.0852 -0.0205  0.1417
 1623W        W17517   0.605  10.738  11.330  0.2228 -0.1357 -0.0012
 1624W        W17518   0.825   8.493   3.812 -0.0337  0.3858  0.0650
 1625W        W17519   2.232   7.680   5.251 -0.2009 -0.1020  0.3309
 1626W        W17520  15.886   4.704   3.302 -0.0291 -0.3222  0.2644
 1627W        W17521   9.404  15.645   3.986  0.1125 -0.1453 -0.2342
 1628W        W17522   9.961  11.230  12.736  0.2197  0.1229 -0.5075
 1629W        W17523   8.168  17.001   3.998 -0.2938 -0.0165  0.2628
 1630W        W17524  16.675   2.516  14.009  0.2992 -0.2386 -0.2228
 1631W        W17525   3.032   7.220   9.682  0.1260 -0.1006  0.2115
 1632W        W17526   1.229  13.205   3.435 -0.0525 -0.2945  0.4320
 1633W        W17527   3.927  10.558   0.142  0.1748  0.1671 -0.1616
 1634W        W17528  13.245   1.157  12.656  0.2304 -0.0433 -0.0198
 1635W        W17529  14.156  10.620   3.885  0.2530 -0.2141  0.3462
 1636W        W17530   6.576   6.505   0.689  0.0535 -0.0044  0.0561
 1637W        W17531   8.011  14.910   0.438 -0.1104  0.1465 -0.1733
 1638W        W17532   2.747   1.342  13.390 -0.2742 -0.1314 -0.0555
 1639W        W17533   5.347   7.295  10.595  0.1519 -0.0958 -0.0667
 1640W        W17534   8.265   7.722   2.314  0.1346  0.3592  0.0363
 1641W        W17535   7.721   0.092  14.416  0.1465  0.2208  0.0526
 1642W        W17536  16.526   0.806   0.071 -0.1737 -0.2026 -0.1347
 1643W        W17537  18.584   4.132  10.791 -0.1080  0.0923 -0.2788
 1644W        W17538  12.262  15.529   1.397 -0.0298  0.0789 -0.0396
 1645W        W17539   4.913  14.316  12.223  0.0206  0.1783  0.0345
 1646W        W17540   5.121   3.304  14.278 -0.1293 -0.1451 -0.3096
 1647W        W17541   7.628  17.948   5.842  0.0419 -0.0533 -0.0996
 1648W        W17542  13.233  11.723  10.947  0.0200  0.0607 -0.3537
 1649W        W17543  11.983   4.916  10.809  0.0382  0.1388 -0.0937
 1650W        W17544  12.030  15.029  14.982 -0.2970  0.3745 -0.2915
 1651W        W17545   1.698   8.887   4.266 -0.4707  0.1113  0.1544
 1652W        W17546  17.410  14.688  13.143  0.1252  0.1236 -0.0935
 1653W        W17547   9.056   4.498   4.607  0.0058  0.1753  0.2065
 1654W        W17548  16.929   2.935  12.617  0.3497  0.3007 -0.3211
 1655W        W17549  13.348   5.587   3.330 -0.0123  0.0810  0.2049
 1656W        W17550   0.629   3.123   0.720  0.0397  0.0072  0.0837
 1657W        W17551   2.997   8.993  14.360 -0.3518 -0.0720  0.1387
 1658W        W17552  13.713  16.833   6.369  0.0091  0.0059  0.0698
 1659W        W17553   2.478   8.487  12.263 -0.2399  0.0193 -0.0847
 1660W        W17554  13.990  13.023   2.263 -0.0967 -0.0193  0.1654
 1661W        W17555   3.049  15.911  15.391  0.0044  0.2919 -0.0404
 1662W        W17556  11.659   7.390  11.095  0.2690 -0.1216 -0.0608
 1663W        W17557  12.088   0.265  15.413  0.1412 -0.1699  0.0153
 1664W        W17558   9.975  17.357  11.437 -0.2181 -0.2381 -0.0703
 1665W        W17559   5.554   4.516   3.921 -0.2567  0.2892  0.2180
 1666W        W17560  10.265   6.840   1.629  0.1352  0.3148 -0.0232
 1667W        W17561  14.811  17.354   1.919  0.2143 -0.1252  0.3900
 1668W        W17562   5.902  13.438  11.273 -0.0927  0.2137 -0.0009
 1669W        W17563  16.128   1.298   4.426 -0.1485 -0.2081 -0.2378
 1670W        W17564   1.690   9.027  12.959  0.0324  0.0857  0.0126
 1671W        W17565  13.707  18.271   1.037  0.0594  0.1891 -0.1527
 1672W        W17566  16.707   1.161  13.292 -0.0821 -0.2208 -0.1687
 1673W        W17567  17.480   8.932   3.173  0.1552 -0.0404  0.2798
 1674W        W17568   0.802   8.732   2.435 -0.0516 -0.2190 -0.0458
 1675W        W17569   7.063  10.643   3.541  0.2997 -0.3899  0.0252
 1676W        W17570  16.134   6.719  15.053 -0.1119 -0.0601 -0.0611
 1677W        W17571  12.436  17.586   3.769  0.2534 -0.1313  0.1284
 1678W        W17572  15.775   1.800   3.802  0.0728  0.1117 -0.1784
 1679W        W17573  10.072   8.452   0.137 -0.0535  0.2768 -0.0991
 1680W        W17574  15.437   2.484   2.030  0.1643 -0.3170 -0.0706
 1681W        W17575  11.230  16.904  12.168 -0.0216  0.0544  0.2142
 1682W        W17576   8.152   2.095   2.964  0.0837 -0.0087 -0.3397
 1683W        W17577   4.314   0.168  14.437 -0.0358  0.0468 -0.1575
 1684W        W17578  12.536  16.899  13.717  0.3052 -0.0233 -0.0451
 1685W        W17579   0.579  17.751   4.731 -0.1398  0.1384 -0.4764
 1686W        W17580  13.971  15.765  11.423 -0.1292 -0.2767  0.0589
 1687W        W17581   1.372   9.878  12.966  0.2582 -0.0752 -0.3878
 1688W        W17582  18.314  12.676  14.083 -0.0410 -0.2407 -0.0109
 1689W        W17583  14.078   1.158   1.667 -0.3573  0.1165  0.1775
 1690W        W17584  12.638   3.602  12.747  0.0700 -0.1009 -0.1024
 1691W        W17585   0.788  14.730   3.399  0.0778 -0.1256 -0.0680
 1692W        W17586  15.791   1.525  14.808  0.2302  0.3416  0.2335
 1693W        W17587   8.329  17.717  12.365  0.0974  0.2125  0.1922
 1694W        W17588   2.638   8.411  11.654 -0.1026  0.1269  0.0135
 1695W        W17589  12.055  18.395  15.037 -0.1077 -0.0583 -0.0996
 1696W        W17590   4.909  15.478   4.412  0.1796 -0.0358 -0.1874
 1697W        W17591  13.955   0.435   4.537 -0.0076 -0.0611  0.1218
 1698W        W17592  12.886  15.099   2.396 -0.0590 -0.1257  0.1617
 1699W        W17593  11.716  10.123   0.968 -0.2528 -0.1591 -0.1773
 1700W        W17594  18.876   3.000  10.807 -0.2104 -0.0684  0.3475
 1701W        W17595   9.347   1.113   1.148 -0.0963 -0.2028  0.2940
 1702W        W17596   2.249   6.576   3.543 -0.0983 -0.0532  0.2074
 1703W        W17597   9.702   3.948  12.053 -0.2114  0.1963  0.0505
 1704W        W17598  16.326   5.855   3.292  0.0199 -0.0018 -0.1266
 1705W        W17599   3.306  16.157  12.417  0.0052 -0.3129  0.3603
 1706W        W17600   5.852   7.755   0.648  0.2738 -0.1629 -0.1064
 1707W        W17601  10.769  10.721   2.077  0.0751 -0.0882  0.0149
 1708W        W17602   4.250  18.765   1.286  0.1362 -0.0694 -0.3830
 1709W        W17603   0.294  12.318   2.259  0.0954 -0.0177 -0.2104
 1710W        W17604   6.416   4.548  12.360  0.0719 -0.0297  0.2747
 1711W        W17605  18.870   1.398  13.771 -0.0209 -0.0991 -0.0799
 1712W        W17606  17.728  15.790  14.789 -0.2106 -0.0484  0.1343
 1713W        W17607   4.744   7.606  12.166  0.3337  0.0897 -0.1877
 1714W        W17608   6.294   2.620   2.869  0.1605  0.1390 -0.1380
 1715W        W17609  16.052  11.845   1.168  0.1143 -0.0362 -0.1962
 1716W        W17610   6.939   6.543  11.428 -0.0265  0.1168 -0.2275
 1717W        W17611   9.720   3.691   1.612 -0.0620  0.0939  0.3731
 1718W        W17612  10.010   9.875   4.181  0.2223 -0.1822  0.0533
 1719W        W17613   0.054  16.024  10.727  0.2676 -0.0978 -0.0189
 1720W        W17614   6.773   7.811   4.338  0.0345 -0.1391  0.3504
 1721W        W17615   4.588  16.425  14.495  0.0745  0.0034 -0.0192
 1722W        W17616  17.390  17.105   4.697  0.1106 -0.0108 -0.1786
 1723W        W17617  12.131   1.218   1.543  0.5225  0.1870 -0.0524
 1724W        W17618   2.781  11.953   1.086 -0.2951  0.2298  0.0161
 1725W        W17619  18.446   9.444   4.177 -0.1709  0.1179 -0.1999
 1726W        W17620   0.894   6.623   2.016  0.3301 -0.1505 -0.1226
 1727W        W17621   3.300  13.238   3.359  0.1826 -0.0205 -0.1606
 1728W        W17622   3.102  10.856  15.153 -0.0071  0.2261 -0.0872
 1729W        W17623   0.812  17.501   6.070  0.0529 -0.1175  0.0216
 1730W        W17624   1.903   3.212  13.961  0.1604 -0.3640  0.1229
 1731W        W17625  11.041   5.170  12.655  0.2457  0.0130  0.0196
 1732W        W17626   9.938  17.693   2.364  0.0745 -0.1338  0.0755
 1733W        W17627   5.440  14.562   0.228 -0.0058  0.2436 -0.1244
 1734W        W17628  15.665   6.235   2.363 -0.3033  0.1376 -0.0192
 1735W        W17629   1.637   8.391  14.617 -0.2333 -0.2119 -0.1062
 1736W        W17630  12.414   7.411   2.364 -0.1182  0.0839  0.2221
 1737W        W17631   8.617  17.627  10.112  0.1522  0.1212  0.1185
 1738W        W17632   0.427   2.930   1.691  0.3608  0.0209 -0.0792
 1739W        W17633   0.208  10.658   2.489 -0.1285 -0.1048 -0.2358
 1740W        W17634   4.303  14.236   0.551 -0.0356 -0.0988  0.1232
 1741W        W17635  11.568   2.733   1.907  0.1578  0.2523  0.2509
 1742W        W17636   2.856  17.966  15.124 -0.0893 -0.0618  0.1493
 1743W        W17637   4.286   4.282  14.684 -0.1530  0.1915 -0.0516
 1744W        W17638  13.208   2.521  13.628 -0.1520  0.2170 -0.1406
 1745W        W17639  12.058   9.016  13.054 -0.0763  0.1113  0.3362
 1746W        W17640  15.513  12.070   5.213  0.0027  0.0710 -0.1245
 1747W        W17641  16.292  17.352   4.058 -0.0225  0.2679 -0.2490
 1748W        W17642   3.874   6.542  13.083 -0.1397  0.1608  0.1452
 1749W        W17643   4.684   4.548  14.721  0.0495  0.2425  0.0294
 1750W        W17644  10.791   3.038  14.855 -0.3474 -0.1407  0.0044
 1751W        W17645   4.949   6.753  14.981 -0.0619 -0.0563  0.2129
 1752W        W17646   5.095  16.885   1.266  0.0740  0.3413 -0.1185
 1753W        W17647  12.621   8.398   1.659  0.3943 -0.1404  0.2642
 1754W        W17648   3.774   0.355  15.415  0.0475 -0.0865 -0.1534
 1755W        W17649   5.814   7.287   4.836 -0.0963 -0.2597  0.2667
 1756W        W17650  10.834   3.616   2.374  0.1424  0.2021  0.0158
 1757W        W17651   2.877   2.199  14.541 -0.1256  0.2690  0.1011
 1758W        W17652  14.387   7.493   0.241  0.1969 -0.2404 -0.3193
 1759W        W17653   5.502  15.122   5.040 -0.1413  0.2057  0.0083
 1760W        W17654   8.971  14.517   3.344  0.2817 -0.0821  0.2474
 1761W        W17655   1.409   0.946  12.622  0.0977 -0.3488 -0.2199
 1762W        W17656   7.677  18.585  14.113 -0.2732 -0.1228 -0.0840
 1763W        W17657   8.178  10.000  14.226  0.2067  0.1016  0.1094
 1764W        W17658  13.944  18.355  12.482 -0.1940 -0.0679 -0.2131
 1765W        W17659  15.984   1.126   5.917  0.1785 -0.0894  0.2573
 1766W        W17660   3.881  12.640   5.226  0.1714  0.1114 -0.2103
 1767W        W17661   3.061  15.662   1.902 -0.3988 -0.0276 -0.1381
 1768W        W17662   8.687  13.398  11.420  0.0189  0.3703  0.0213
 1769W        W17663   7.199   7.026   2.841 -0.0790 -0.1820 -0.0430
 1770W        W17664  11.349  15.103   1.286  0.0591 -0.2427  0.0538
 1771W        W17665   6.922  12.520   0.214  0.0764 -0.1344  0.2676
 1772W        W17666   5.017   0.844  13.793 -0.1429 -0.1008 -0.0325
 1773W        W17667  17.020   8.814   5.253 -0.1092  0.2242  0.0866
 1774W        W17668  12.600  10.511   4.761  0.3207 -0.0141  0.1832
 1775W        W17669   0.023  16.567   5.274  0.0158 -0.5145 -0.1616
 1776W        W17670  18.279   7.071   4.490  0.2000  0.0797 -0.1568
 1777W        W17671   3.099  13.649  15.310 -0.5414 -0.2746  0.0031
 1778W        W17672   8.560  14.012   4.748 -0.2535  0.3035  0.0391
 1779W        W17673  14.751   3.552  12.248 -0.0874 -0.1573 -0.0213
 1780W        W17674  11.531   1.543  13.664 -0.3568  0.2214  0.0200
 1781W        W17675  12.290  14.192   3.919 -0.2948 -0.4414  0.0156
 1782W        W17676   2.272   0.702   2.277 -0.2606 -0.0731  0.2950
 1783W        W17677   4.327  13.401   2.577 -0.0614  0.0222  0.1514
 1784W        W17678   8.475  16.492  12.059  0.0635 -0.0453  0.1108
 1785W        W17679   6.105   6.818  13.220  0.0438 -0.0861  0.1292
 1786W        W17680  11.270  10.869   2.102  0.2008 -0.1024 -0.2425
 1787W        W17681   8.486  15.614  10.273 -0.1114  0.0982 -0.3495
 1788W        W17682   0.391   8.648  11.878  0.1534  0.0439 -0.2391
 1789W        W17683  16.224   2.573   3.116 -0.4684 -0.1894  0.4996
 1790W        W17684  17.706  12.693  13.523 -0.0381 -0.0139  0.0553
 1791W        W17685  16.978   2.145   5.619  0.0734  0.1094 -0.0752
 1792W        W17686  18.532   9.560  13.511  0.0548 -0.1352 -0.1889
 1793W        W17687  12.589  16.426   1.073 -0.2475 -0.3275  0.0256
 1794W        W17688   0.827  15.837   2.013  0.0429 -0.2504 -0.1181
 1795W        W17689   1.648  12.776  11.885 -0.0370  0.1683 -0.1806
 1796W        W17690   1.741   2.342  13.822 -0.0044 -0.3660  0.1053
 1797W        W17691   1.369   1.198  12.072 -0.4401  0.3753 -0.0195
 1798W        W17692   5.816   0.223  11.135  0.2036 -0.2859 -0.0298
 1799W        W17693  15.167  14.474  13.086  0.0450 -0.3357 -0.1853
 1800W        W17694  14.614   6.295   4.022  0.0324 -0.0064 -0.0903
 1801W        W17695   0.355   4.492  15.112 -0.1197  0.0188 -0.0469
 1802W        W17696   1.116   5.188   2.726  0.0103  0.1487  0.3148
 1803W        W17697  12.274  17.755  14.614  0.3562 -0.3566  0.1343
 1804W        W17698   4.740   3.032   1.813 -0.2321 -0.0511 -0.2105
 1805W        W17699  14.681  14.330   3.178  0.0924  0.0062 -0.1120
 1806W        W17700  13.710   7.798   1.210  0.0172 -0.2769 -0.0963
 1807W        W17701   2.390   4.067  14.061  0.0501 -0.3903 -0.0326
 1808W        W17702  14.837   4.735  12.981 -0.1028 -0.0191  0.1002
 1809W        W17703  14.847  13.130   4.256  0.1013 -0.1192  0.1742
 1810W        W17704  14.395  13.705  13.815 -0.2708  0.1483 -0.0482
 1811W        W17705   3.018   4.410  15.248 -0.2381  0.1898  0.2630
 1812W        W17706  11.109  12.553  12.752 -0.1006 -0.0747 -0.0534
 1813W        W17707  17.794  16.491   5.427 -0.1168 -0.1026 -0.3196
 1814W        W17708   2.593   8.701  15.416 -0.1016  0.2517 -0.1213
 1815W        W17709  12.099  15.068  12.071 -0.3875  0.1375  0.3297
 1816W        W17710  10.274  13.830   4.787 -0.3711  0.0333 -0.1398
 1817W        W17711   5.491   1.146  13.857 -0.1316  0.1725  0.2282
 1818W        W17712   4.776  12.477   4.143  0.5060 -0.2969 -0.0346
 1819W        W17713  15.751  12.574  14.476  0.1075 -0.1848 -0.0220
 1820W        W17714  18.269   5.668   3.444  0.0235  0.0820 -0.3523
 1821W        W17715   5.667   0.781   0.650 -0.0285 -0.0912 -0.2814
 1822W        W17716   3.270  16.026  14.116 -0.1886 -0.1300 -0.2366
 1823W        W17717   2.612  17.458  15.468 -0.0713 -0.2681  0.0577
 1824W        W17718   3.592   1.992   0.847 -0.1505 -0.0183 -0.2480
 1825W        W17719  16.106   1.803   0.277 -0.1293 -0.2355  0.0850
 1826W        W17720  18.170  13.047   5.408 -0.0767 -0.0710  0.1033
 1827W        W17721  18.658   7.170   3.172 -0.1020  0.0970  0.2498
 1828W        W17722   4.352  14.797  13.918  0.2749  0.0005  0.1027
 1829W        W17723  17.828   7.689  15.214 -0.0758 -0.0294 -0.0301
 1830W        W17724   0.330   6.579   3.486 -0.2745  0.1991 -0.0791
 1831W        W17725  12.253   0.055   0.431  0.1331 -0.1074  0.1932
 1832W        W17726  14.282   4.118   4.214  0.1869  0.1013  0.0090
 1833W        W17727   6.072  18.289   3.357  0.0548 -0.1210 -0.2106
 1834W        W17728   5.943  16.700   0.935 -0.2612 -0.1057  0.2267
 1835W        W17729  16.629   6.467  13.880 -0.5262  0.0555 -0.0765
 1836W        W17730  14.640   2.555  13.289  0.0969  0.0203 -0.1699
 1837W        W17731  10.285  16.413   4.896  0.1238 -0.2013 -0.0836
 1838W        W17732   3.447   2.203   2.224  0.0847  0.3415 -0.4971
 1839W        W17733  14.429   1.223  14.261 -0.2333  0.1147  0.1021
 1840W        W17734   1.789  12.052  13.615  0.0356 -0.1025  0.0209
 1841W        W17735   4.485  16.082   3.719 -0.0232  0.0049 -0.1631
 1842W        W17736   2.254  16.916   1.597  0.1515 -0.0050 -0.1509
 1843W        W17737  10.654   2.770   2.428 -0.1082  0.2538 -0.2034
 1844W        W17738  13.358  18.202   4.865 -0.0765  0.0740  0.1130
 1845W        W17739   0.160   5.817  15.295  0.0863  0.4177 -0.0505
 1846W        W17740   2.280  14.992  13.880  0.0928 -0.1905  0.3554
 1847W        W17741   5.936  12.918   0.067  0.0323 -0.3462  0.0714
 1848W        W17742  12.135  10.873  11.312  0.1994 -0.1781  0.2562
 1849W        W17743   3.551  14.123   3.769  0.0710 -0.1896  0.0530
 1850W        W17744  13.655  10.829  13.216  0.0705 -0.0689  0.1697
 1851W        W17745  11.988   8.780  13.467 -0.0317  0.1344  0.2539
 1852W        W17746  11.730  15.377   4.077  0.3650 -0.0323 -0.2528
 1853W        W17747   6.588   7.188   3.517  0.0451 -0.2058  0.3117
 1854W        W17748   5.781  12.867   4.368 -0.0585  0.1298 -0.2467
 1855W        W17749  10.396   1.601  10.211 -0.3981  0.0019  0.0076
 1856W        W17750   5.734   2.466  13.750  0.0748 -0.0641  0.1001
 1857W        W17751  16.410   9.609   3.373  0.1466  0.2979  0.3453
 1858W        W17752   0.777  17.431   3.636 -0.2282  0.4439  0.1368
 1859W        W17753  13.312  17.689   0.727  0.0807  0.0951 -0.0920
 1860W        W17754   5.887   9.850   4.349  0.3646 -0.2969  0.2020
 1861W        W17755   7.493   9.143  11.145 -0.0830 -0.0668 -0.0110
 1862W        W17756   3.878   0.734   1.498 -0.2775  0.2423 -0.3274
 1863W        W17757  17.818  18.387   2.340 -0.3821 -0.4210 -0.0378
 1864W        W17758  14.465   4.248  13.585  0.2733 -0.2516 -0.0621
 1865W        W17759  17.715  14.282   4.396 -0.1780 -0.1258 -0.1403
 1866W        W17760   1.910  12.260  14.520 -0.2317 -0.1819  0.0563
 1867W        W17761   0.514  16.024  11.435  0.3767 -0.2419  0.0551
 1868W        W17762  10.237  13.002   0.136  0.1244  0.3159  0.3467
 1869W        W17763  10.470   9.877   0.618 -0.3329 -0.0601  0.2731
 1870W        W17764  17.889   8.239   1.194 -0.1164 -0.1051  0.2181
 1871W        W17765   2.783  18.435  11.388  0.1794 -0.1900  0.5565
 1872W        W17766  17.746   4.007   3.869  0.0619  0.0003 -0.0210
 1873W        W17767  12.723  10.928   5.002  0.2210  0.3491  0.0495
 1874W        W17768  10.158  16.514   0.906 -0.0084 -0.0469  0.2975
 1875W        W17769  15.864   5.225   5.593  0.2895 -0.1772 -0.1101
 1876W        W17770  18.305   9.564   0.033 -0.2026 -0.0038 -0.1109
 1877W        W17771   3.450  14.618   0.822 -0.3763 -0.1672 -0.0732
 1878W        W17772  12.774   8.525   0.011 -0.0510 -0.1309 -0.0941
 1879W        W17773  17.855   0.625   2.280 -0.0810 -0.0732 -0.0413
 1880W        W17774   4.771  14.969  12.804  0.1804 -0.1670  0.1113
 1881W        W17775   2.624  14.225  12.049 -0.0714  0.0912  0.0077
 1882W        W17776   9.207  13.332   1.172  0.0508  0.1047  0.1236
 1883W        W17777   2.184  16.620   0.327 -0.1107 -0.0380  0.0967
 1884W        W17778  18.287   1.358   1.286 -0.1450  0.0555  0.4493
 1885W        W17779   4.910  11.983  14.383 -0.2747 -0.2628  0.2231
 1886W        W17780  11.448  14.451   3.615 -0.0278  0.0379  0.4383
 1887W        W17781  18.601   8.038   1.767 -0.2445 -0.1034 -0.2674
 1888W        W17782  14.525   0.379   3.499 -0.1154 -0.3540  0.2569
 1889W        W17783   4.609   5.974   4.559 -0.0592  0.0904 -0.0069
 1890W        W17784  16.470   2.589   4.030  0.0519  0.2260 -0.1150
 1891W        W17785   8.703  18.265  13.118 -0.0254 -0.3064 -0.0457
 1892W        W17786   6.585  18.683   5.347 -0.0024  0.3437 -0.1822
 1893W        W17787   3.471   0.094  12.931 -0.1648 -0.0286 -0.1420
 1894W        W17788   1.816  15.198  10.816  0.0752 -0.0502 -0.2489
 1895W        W17789  14.010   4.668  11.347 -0.3264 -0.1301 -0.0458
 1896W        W17790   3.721  16.231   0.541 -0.0184  0.3078  0.3143
 1897W        W17791  17.527  16.799  11.516 -0.0294 -0.1495 -0.1883
 1898W        W17792   1.768   2.153  15.292 -0.0839 -0.3786 -0.4930
 1899W        W17793  18.125   1.812  12.003  0.2994  0.1060 -0.1665
 1900W        W17794   2.463  16.666  14.295  0.0545  0.1013  0.0620
 1901W        W17795  15.334   6.872  14.461 -0.0346  0.0109 -0.4411
 1902W        W17796   4.438  16.000   2.567  0.1443 -0.0465 -0.2201
 1903W        W17797  15.550  10.125  14.131 -0.0539 -0.2473  0.0310
 1904W        W17798   5.250   3.520   0.576 -0.0160 -0.0333 -0.0775
 1905W        W17799   6.242   9.575   0.286 -0.0567 -0.0032 -0.1447
 1906W        W17800   0.326  18.451  14.876  0.0201 -0.2585  0.1739
 1907W        W17801   2.372  10.246   0.577  0.1744  0.0278 -0.0683
 1908W        W17802  11.550  16.421   5.013  0.1283 -0.0892 -0.0498
 1909W        W17803   4.483  18.100  11.495 -0.1318  0.2958 -0.3584
 1910W        W17804  11.058  13.867   1.737  0.3128 -0.2302  0.1808
 1911W        W17805   3.260  17.046   1.174 -0.0831 -0.2291  0.0361
 1912W        W17806   8.498  11.738  12.581  0.1769  0.0443 -0.2475
 1913W        W17807  11.786   5.164   4.307  0.3074 -0.3075  0.0001
 1914W        W17808  15.182  15.266   0.568 -0.2322 -0.3902  0.0844
 1915W        W17809  15.684   0.062   0.625 -0.0062  0.1205  0.0701
 1916W        W17810  14.419   4.818  12.709  0.1595 -0.1135 -0.0455
 1917W        W17811  12.264  14.652  13.764  0.2248  0.0947 -0.2029
 1918W        W17812   5.295  13.556   3.254 -0.3478 -0.2023 -0.3083
 1919W        W17813  10.817  13.390   5.339 -0.0837  0.0430 -0.1222
 1920W        W17814   4.684   6.370  13.375 -0.3017  0.1421  0.1432
 1921W        W17815   1.843  15.097  14.829  0.2571 -0.0345  0.0909
 1922W        W17816  12.172   6.499   2.095  0.1438 -0.2093  0.1463
 1923W        W17817  12.498   6.512  14.211 -0.1237  0.2909 -0.0362
 1924W        W17818  17.232   5.641   2.222 -0.4959 -0.0941 -0.0131
 1925W        W17819   8.187  14.550   4.346  0.1094  0.2866  0.4398
 1926W        W17820  13.950  15.253  11.361 -0.0678 -0.3144 -0.0616
 1927W        W17821  14.916   1.550  15.080  0.3252  0.5286 -0.0428
 1928W        W17822  12.661  14.247   9.890 -0.1762 -0.0135  0.0361
 1929W        W17823   8.150   4.371  14.777  0.1999 -0.0428  0.0451
 1930W        W17824   8.532   8.412  15.343 -0.1254  0.1053 -0.2134
 1931W        W17825  14.779   8.558   4.656 -0.1077  0.0349  0.0969
 1932W        W17826  11.811   6.522   1.742  0.0216 -0.0109  0.1059
 1933W        W17827   7.701  14.544   4.450 -0.0926  0.3459 -0.0256
 1934W        W17828   2.699   0.374  13.342  0.0965 -0.0101  0.1654
 1935W        W17829  13.682   0.421   4.082 -0.2562  0.2769 -0.1281
 1936W        W17830   8.804  16.866  14.549 -0.1963 -0.2302 -0.0484
 1937W        W17831   0.341  14.021  14.811  0.3414 -0.0006 -0.1368
 1938W        W17832   8.481   3.121  14.292  0.1705  0.0462 -0.1872
 1939W        W17833  13.486  15.753   0.111 -0.1423  0.2363  0.0051
 1940W        W17834   6.162  18.668   3.681 -0.0298  0.0689 -0.0582
 1941W        W17835   9.759   6.101   2.462 -0.0143 -0.3787 -0.0888
 1942W        W17836  10.045  16.328  12.072  0.0855  0.0939  0.1284
 1943W        W17837  11.846   8.507  11.771  0.2222 -0.0996  0.0226
 1944W        W17838  15.010  11.949  14.621 -0.0238 -0.2418 -0.1878
 1945W        W17839  16.295  15.735  10.867  0.0502 -0.0661 -0.0726
 1946W        W17840  16.524  18.505  11.396 -0.1635  0.0437 -0.0135
 1947W        W17841   3.240  12.240  13.946  0.0177  0.1511  0.1970
 1948W        W17842   8.660   7.377  14.410  0.0814  0.3628  0.0330
 1949W        W17843   1.721   0.840   3.860 -0.0322 -0.0439  0.1130
 1950W        W17844  15.412   0.057  15.125  0.0700  0.0553  0.4686
 1951W        W17845   5.091  13.856  15.068  0.0291  0.0287  0.2987
 1952W        W17846  16.179   2.297  13.894 -0.0929  0.0103  0.1805
 1953W        W17847  18.855   9.141   3.955  0.0573 -0.0812  0.0284
 1954W        W17848   8.390   4.850  13.114  0.0511 -0.1095  0.1042
 1955W        W17849   4.710   8.330  10.691  0.0865 -0.2230 -0.3264
 1956W        W17850  15.450  17.817  13.600  0.0288 -0.0404 -0.0481
 1957W        W17851  12.668   5.696   1.354  0.0684  0.0939  0.4552
 1958W        W17852  12.498   9.517   0.688 -0.0324  0.0057  0.3508
 1959W        W17853   6.283  15.084   3.160 -0.1894  0.0257  0.1127
 1960W        W17854   2.782  14.470  14.876 -0.3039  0.0572 -0.1289
 1961W        W17855   7.471  16.143  13.052 -0.1883 -0.1455  0.1524
 1962W        W17856  18.411  13.101  11.052  0.0008  0.2765  0.3455
 1963W        W17857   9.038   9.443   3.464 -0.3694 -0.1483 -0.0144
 1964W        W17858   0.259   1.746  12.459  0.1698 -0.3587 -0.4175
 1965W        W17859  14.099   2.219  14.897 -0.2509  0.0407  0.0028
 1966W        W17860   3.848   2.201  12.757  0.1877  0.0861 -0.2034
 1967W        W17861   8.832  12.444  14.393 -0.0772  0.4341  0.1012
 1968W        W17862   2.690  17.265   2.770  0.0470 -0.1128 -0.0958
 1969W        W17863  16.327   4.625   4.743 -0.2203  0.0038  0.2306
 1970W        W17864   6.522  12.098   1.798 -0.1586 -0.2667 -0.2342
 1971W        W17865   8.056  11.259  10.790  0.2604  0.2678 -0.0958
 1972W        W17866  14.420  10.046  10.886 -0.2759 -0.0650  0.0435
 1973W        W17867   6.819   2.863   3.618  0.3127  0.0095  0.1955
 1974W        W17868  11.065  11.600   0.425 -0.1232 -0.0050  0.0739
 1975W        W17869   2.120   3.886   1.458 -0.1111 -0.0130 -0.1821
 1976W        W17870  18.684  13.585   0.245  0.1673 -0.1030  0.0361
 1977W        W17871  11.704   7.116  12.264  0.1278 -0.0430 -0.0547
 1978W        W17872   7.977  16.393   2.463 -0.4200  0.2205  0.0355
 1979W        W17873   6.494   6.030  11.222  0.1318  0.3214  0.0114
 1980W        W17874   9.933  14.200   4.687 -0.1541 -0.2131 -0.2383
 1981W        W17875  17.432   6.015   0.783  0.1179  0.0793  0.2000
 1982W        W17876   8.624   4.144  14.224  0.2070 -0.1466 -0.1660
 1983W        W17877  11.668   5.941  13.074 -0.2080  0.1328  0.0372
 1984W        W17878   7.222   0.371  15.201 -0.1874 -0.1023  0.0440
 1985W        W17879  16.332   1.445   1.081 -0.0193  0.2615  0.0639
 1986W        W17880  12.641  18.441  11.915  0.1822  0.0511  0.2355
 1987W        W17881  15.186   4.976  14.085  0.0131 -0.1171 -0.1396
 1988W        W17882  12.662  10.464   0.822 -0.5242 -0.1328  0.2705
 1989W        W17883   1.794   4.972   3.879  0.2876  0.2302 -0.3660
 1990W        W17884   7.750   7.903   1.104  0.0821  0.0247 -0.1105
 1991W        W17885  10.462  13.598   2.572 -0.3240  0.1112 -0.2975
 1992W        W17886   6.515   6.748   1.257 -0.1983  0.2376 -0.0802
 1993W        W17887  16.080  18.865   2.837 -0.0127 -0.3241 -0.3181
 1994W        W17888   3.173   4.152   2.974  0.0855  0.0062 -0.3336
 1995W        W17889  12.305   6.177   3.493  0.3197  0.3005  0.1016
 1996W        W17890   8.201   7.606  14.447  0.2073 -0.2750 -0.2689
 1997W        W17891  11.115  10.857   1.124 -0.4161 -0.0755  0.1886
 1998W        W17892  17.533  17.881   4.485 -0.0231  0.4138  0.3658
 1999W        W17893  13.811   6.089  13.986 -0.0157 -0.0376 -0.2226
 2000W        W17894   3.847   8.398  15.228  0.2590  0.1216 -0.1855
 2001W        W17895  11.445  16.037   1.782 -0.1016  0.1687 -0.1825
 2002W        W17896  17.592  11.264   4.315  0.0115 -0.0771  0.1831
 2003W        W17897  15.101  11.425  12.780 -0.0829  0.0770 -0.0234
 2004W        W17898   6.361   0.058   2.321 -0.2704 -0.0364  0.0220
 2005W        W17899   2.568   2.965  14.813 -0.1316 -0.1509  0.1428
 2006W        W17900   0.354  17.191   1.581  0.1591 -0.1650 -0.1269
 2007W        W17901   7.869  10.437   1.485 -0.1392  0.0674  0.0523
 2008W        W17902  16.005   4.133  11.704  0.3249  0.3434  0.1667
 2009W        W17903   4.498  16.821  11.621  0.2892  0.0871 -0.1237
 2010W        W17904  18.415   7.562  11.346 -0.0497  0.2390 -0.2469
 2011W        W17905   1.974  18.387   4.324  0.0920  0.0495 -0.0899
 2012W        W17906  13.255  16.471  12.173 -0.0229  0.0651  0.1711
 2013W        W17907   5.753   5.395   3.346  0.0947  0.1040  0.0226
 2014W        W17908  10.976   7.228   2.026 -0.2430 -0.0384  0.1456
 2015W        W17909  13.273   5.288   1.946  0.0300 -0.0690 -0.1426
 2016W        W17910  12.887  10.241   4.504 -0.0983 -0.0513  0.0350
 2017W        W17911   5.184  14.150   1.339 -0.1255  0.1508  0.0590
 2018W        W17912   7.836  11.365   5.332 -0.2307 -0.1449 -0.1413
 2019W        W17913   5.236   1.606  14.757 -0.2090 -0.0622 -0.0228
 2020W        W17914   5.068  11.352   1.466  0.0099  0.0657 -0.1395
 2021W        W17915  17.049   8.706  12.348 -0.0900  0.1097  0.0491
 2022W        W17916   4.549   2.379   0.634  0.6063  0.0964  0.0907
 2023W        W17917  18.210  14.718  11.197  0.0192  0.2828  0.0648
 2024W        W17918   3.414  12.820   0.811  0.0579 -0.2869 -0.1492
 2025W        W17919   9.525  18.855   0.575  0.0309  0.1941 -0.1250
 2026W        W17920  14.542  18.839   1.303 -0.0919 -0.0224 -0.0576
 2027W        W17921  14.180  11.497   2.727 -0.1961 -0.0389 -0.0849
 2028W        W17922  18.577  16.467   2.512  0.0690 -0.0529 -0.2854
 2029W        W17923  17.000   5.437   2.861  0.2595  0.2053  0.1228
 2030W        W17924  14.389  18.258   0.349  0.1068  0.0841  0.3480
 2031W        W17925  14.753  18.584  11.638  0.1016  0.2064  0.0435
 2032W        W17926   1.028   4.362  11.829 -0.2243 -0.1601  0.0527
 2033W        W17927   4.760  11.367   1.887  0.0978  0.1712  0.0721
 2034W        W17928  12.708   9.932  14.569 -0.0242 -0.0036  0.2975
 2035W        W17929   8.513   0.955   4.845  0.1177 -0.1887  0.1240
 2036W        W17930  17.599   7.379   3.818 -0.4485  0.1387  0.0953
 2037W        W17931   3.476  14.187  13.723  0.0546  0.0673  0.0229
 2038W        W17932  15.738   7.012  12.763  0.1397  0.0229 -0.0495
 2039W        W17933   2.489   9.109   1.779 -0.0609  0.0873 -0.1695
 2040W        W17934  14.399  17.674  15.094 -0.1990  0.1238  0.1535
 2041W        W17935   4.528   4.763   2.448  0.0124 -0.1718 -0.2221
 2042W        W17936  11.500  18.173  12.163 -0.0641 -0.1407  0.1429
 2043W        W17937   4.375  17.326  14.559  0.1479 -0.2902  0.0898
 2044W        W17938  16.326   2.122   0.003 -0.1044  0.0822 -0.2280
 2045W        W17939   7.510  13.443  12.991  0.0804 -0.1062  0.1219
 2046W        W17940  18.445  18.562  10.635  0.3257  0.0971  0.0862
 2047W        W17941   1.136   8.420  13.292 -0.0292 -0.1868  0.1734
 2048W        W17942  11.426  12.815   0.671 -0.2470  0.2083  0.0294
 2049W        W17943  11.839  13.560  15.283  0.1819  0.0937 -0.1529
 2050W        W17944  10.683  10.296  15.097 -0.1049  0.0979  0.1397
 2051W        W17945  10.662  18.488  11.799  0.0923 -0.1597  0.0724
 2052W        W17946   1.666  17.274   2.419 -0.2167 -0.5367 -0.1602
 2053W        W17947   4.489   4.148  10.939 -0.0150  0.0385 -0.0475
 2054W        W17948   8.963  16.551  12.941  0.1749 -0.3613  0.1504
 2055W        W17949   7.457   2.700  15.343 -0.5080 -0.0969  0.1417
 2056W        W17950  13.801  11.198   2.516  0.0970  0.3758  0.1813
 2057W        W17951   5.778  15.375  11.181 -0.0704  0.1050  0.0777
 2058W        W17952  12.868  11.838  13.159  0.2303  0.0572  0.1625
 2059W        W17953  16.102  14.695   0.779  0.1779  0.0217 -0.2344
 2060W        W17954   4.356  12.145   3.355 -0.2434  0.0654  0.1658
 2061W        W17955   4.155   5.238  15.129 -0.2692  0.1905  0.1558
 2062W        W17956   0.370   6.231   4.129 -0.1207 -0.3137  0.0952
 2063W        W17957   5.394   0.894  15.289 -0.1730  0.3448  0.0137
 2064W        W17958  16.588   9.345  15.320  0.0541  0.3288 -0.0849
 2065W        W17959  16.705  11.783  12.731 -0.0611 -0.1008 -0.0262
 2066W        W17960  11.271  13.528  11.526  0.0046 -0.1260 -0.0727
 2067W        W17961   6.786   0.553   0.642 -0.1049 -0.0019  0.1667
 2068W        W17962  14.038   5.673  12.411  0.1933 -0.0647 -0.3592
 2069W        W17963  16.058   1.058   1.958  0.0846  0.1605  0.0590
 2070W        W17964   7.045   2.244  11.015 -0.0191 -0.0433  0.1407
 2071W        W17965  11.900  10.112  11.866  0.0061 -0.0974 -0.0182
 2072W        W17966  11.587   6.269   2.857 -0.0674  0.2256  0.0482
 2073W        W17967  15.071  12.087   1.079  0.0899 -0.1869  0.1863
 2074W        W17968   1.071  17.849   9.913  0.0664  0.0741 -0.3231
 2075W        W17969  12.232   9.147  11.769 -0.1431 -0.0588 -0.0576
 2076W        W17970  18.748   4.880   0.850 -0.2198 -0.2817  0.2775
 2077W        W17971  11.091   9.060  13.809 -0.1419 -0.0255  0.1438
 2078W        W17972  16.444  16.396   3.798 -0.0146  0.1308  0.0048
 2079W        W17973  16.438   2.992  13.887  0.0078  0.3085  0.3699
 2080W        W17974   8.186   7.919  12.406 -0.1929 -0.2102  0.2189
 2081W        W17975  14.323  10.305  15.233  0.0058  0.1372 -0.0626
 2082W        W17976  17.441   1.962  13.853 -0.2153  0.0136 -0.1267
 2083W        W17977  15.716   2.130  11.904 -0.2353 -0.0694  0.1089
 2084W        W17978   5.636  10.042   1.013 -0.1467 -0.0322 -0.3000
 2085W        W17979  12.628   7.479  12.639 -0.1439 -0.2094 -0.0419
 2086W        W17980   8.320   6.813  14.598  0.1286  0.3235  0.5081
 2087W        W17981   6.013   7.201  10.705  0.3015  0.1771  0.1869
 2088W        W17982   9.375   5.336  13.330 -0.3255  0.2167  0.2925
 2089W        W17983   5.948   5.411   1.443 -0.0934 -0.1530  0.1770
 2090W        W17984  11.202  11.173  11.524 -0.2347  0.2050  0.1221
 2091W        W17985  11.215  10.440   1.431  0.2023 -0.2489  0.1000
 2092W        W17986   2.236  16.026   0.375 -0.2022 -0.1409 -0.3216
 2093W        W17987   9.998   2.066  14.917 -0.1044  0.1640 -0.0587
 2094W        W17988   9.838   4.142  13.663  0.0685 -0.4296 -0.1241
 2095W        W17989  11.790  16.473  12.864 -0.1104 -0.0322  0.0332
 2096W        W17990   0.348   9.046   2.595  0.1637  0.0913 -0.0745
 2097W        W17991   5.185  16.866  12.776 -0.0666 -0.0128  0.0955
 2098W        W17992   0.015   8.379   0.676 -0.0682 -0.0043  0.0598
 2099W        W17993   6.391   9.659   5.579 -0.2260  0.0146  0.1772
 2100W        W17994   2.653  12.051  12.573 -0.1766  0.1652  0.2817
 2101W        W17995  16.167   2.656   3.613  0.0346  0.1159  0.2882
 2102W        W17996   5.865  12.521  11.208  0.3534 -0.3592 -0.0963
 2103W        W17997  18.209   4.837  12.742  0.0128 -0.0066 -0.0186
 2104W        W17998  13.948  18.561   6.439 -0.1563  0.0022  0.0695
 2105W        W17999   3.145  18.248   5.229 -0.1019  0.0477  0.1629
 2106W        W18000   0.416   0.826  14.045  0.0760  0.2393  0.1208
 2107W        W18001  13.433  13.165   5.358 -0.3570 -0.3081 -0.2983
 2108W        W18002   9.826  18.677  13.885 -0.1263 -0.0110  0.2273
 2109W        W18003   8.754   6.133   0.642 -0.3924  0.1238  0.1160
 2110W        W18004   3.567   2.341  15.244 -0.0620 -0.3694  0.1863
 2111W        W18005  12.458  10.554  13.789  0.3477  0.1372  0.0909
 2112W        W18006   7.146  13.948  10.123  0.0485  0.1242 -0.1032
 2113W        W18007   7.147  10.072   3.728 -0.0576  0.0353 -0.2579
 2114W        W18008   7.544   3.238  11.146 -0.3637 -0.2692  0.1627
 2115W        W18009   0.959   3.053  11.560 -0.0677  0.0470  0.1327
 2116W        W18010  12.468  11.187  12.318  0.2094 -0.1259  0.0859
 2117W        W18011   8.199   3.726   3.861  0.4054 -0.1609  0.2326
 2118W        W18012  17.617   0.091   4.751  0.0652 -0.1157 -0.1517
 2119W        W18013  11.657  15.296   3.517  0.0825 -0.1091  0.0611
 2120W        W18014  16.749  16.310   3.408  0.1445  0.2091 -0.2224
 2121W        W18015  15.221   1.344  10.852  0.5895 -0.2519 -0.3343
 2122W        W18016   7.725  11.060   1.973  0.0828 -0.1171  0.2455
 2123W        W18017   9.244  17.853  14.311  0.2233  0.1545  0.2013
 2124W        W18018  10.876   0.143   0.574  0.1831  0.2786  0.1842
 2125W        W18019   4.107  17.285   5.088  0.2201  0.1133 -0.0722
 2126W        W18020   9.662  16.720   5.853 -0.1056 -0.1532 -0.0370
 2127W        W18021  11.896   6.643   1.270  0.1384 -0.0759 -0.0184
 2128W        W18022   1.539   1.827   9.087  0.4478 -0.0395 -0.0716
 2129W        W18023  11.824  14.653  14.112 -0.0762 -0.0514 -0.1446
 2130W        W18024   9.862   3.311   2.444 -0.1560 -0.3131  0.0016
 2131W        W18025  12.353   6.013   2.187 -0.0713 -0.1371  0.0772
 2132W        W18026   2.408   1.906  10.933 -0.1657 -0.1384 -0.1044
 2133W        W18027   9.826   9.310   0.527 -0.2748  0.0920  0.1520
 2134W        W18028  11.968   9.823  12.702  0.2172 -0.0177  0.1922
 2135W        W18029  16.256   4.464   4.282  0.2357 -0.1030  0.1492
 2136W        W18030   8.772   5.723   5.668  0.2235 -0.0640 -0.1374
 2137W        W18031   1.957   4.044   4.991 -0.0660  0.0543 -0.2269
 2138W        W18032  11.971   4.303  14.853  0.1508  0.0718  0.0376
 2139W        W18033   1.613   0.262   1.971  0.0221  0.0217  0.0960
 2140W        W18034  16.562   9.735  13.999  0.0973 -0.0073 -0.1291
 2141W        W18035  16.853   2.508   0.173  0.1621 -0.1622  0.0311
 2142W        W18036  18.091   3.273  14.317 -0.0578 -0.2185 -0.0881
 2143W        W18037   6.260   5.222   4.163  0.0444 -0.0269  0.1536
 2144W        W18038   6.135   2.427  11.592 -0.0400  0.1624 -0.0198
 2145W        W18039   6.884  14.549   4.288  0.3819 -0.1490  0.1731
 2146W        W18040  11.045   6.272  11.820  0.3299 -0.2247  0.2030
 2147W        W18041   7.502  15.105   1.001  0.0707 -0.1267  0.1926
 2148W        W18042   8.149  18.504  11.704  0.1856 -0.1295  0.1945
 2149W        W18043   3.411   4.746   0.472  0.2211  0.0777 -0.0657
 2150W        W18044   6.151  17.021  11.450  0.1502 -0.0260 -0.3681
 2151W        W18045  12.910  16.085   6.107  0.3113  0.4503 -0.1305
 2152W        W18046  12.135  16.904   2.494  0.0951 -0.2284 -0.0160
 2153W        W18047  15.177   9.318  10.192 -0.0146  0.3171  0.3282
 2154W        W18048  15.561   0.722   5.636  0.1145  0.1001  0.0442
 2155W        W18049   8.350   1.625  12.206 -0.0670 -0.2155  0.0765
 2156W        W18050   6.758  13.440   3.999 -0.1936  0.0723  0.3089
 2157W        W18051  15.743  13.647  13.063 -0.0965  0.3219  0.1758
 2158W        W18052   9.891  15.628  14.834 -0.0644 -0.0048  0.0409
 2159W        W18053   4.205  17.528  10.705  0.1878 -0.2440 -0.1336
 2160W        W18054  17.756  14.689   6.185  0.5060  0.0544 -0.1559
 2161W        W18055   5.037   2.270   3.670 -0.0224  0.1444 -0.0697
 2162W        W18056  11.184  16.933  14.525 -0.1810 -0.3406  0.3428
 2163W        W18057  14.364   7.976  10.692 -0.2535 -0.0153 -0.0596
 2164W        W18058  12.844  14.751   3.107 -0.1251 -0.0164 -0.0319
 2165W        W18059   2.785  12.567  11.321 -0.2813 -0.1770  0.1217
 2166W        W18060   9.348  13.652  12.199  0.2589  0.3394 -0.0128
 2167W        W18061  13.409   2.071   5.072 -0.2003 -0.2236 -0.2759
 2168W        W18062   1.792   8.460  15.163  0.3320  0.0100  0.2092
 2169W        W18063  14.854  10.558  12.201 -0.2970  0.2618  0.0349
 2170W        W18064   3.665  12.372   0.650 -0.0098 -0.1244  0.0852
 2171W        W18065  13.097   5.693   4.296 -0.3149  0.1281 -0.1438
 2172W        W18066   9.943  10.502  15.352 -0.4050  0.0230 -0.2544
 2173W        W18067  15.997   7.982  12.984  0.0530  0.2472 -0.0900
 2174W        W18068   0.137   5.638   4.491  0.0131  0.0812  0.0736
 2175W        W18069  15.659   0.864   4.103 -0.2220  0.0448 -0.0074
 2176W        W18070   1.159  10.471   2.617 -0.1974 -0.1861 -0.0804
 2177W        W18071   9.048   3.183  10.331 -0.1250  0.2909  0.0189
 2178W        W18072   3.640  13.355  13.127  0.0179  0.2319 -0.2986
 2179W        W18073   2.139   9.766   9.985 -0.1450 -0.1778 -0.4701
 2180W        W18074  10.806   7.703  13.819 -0.0106  0.3783 -0.0126
 2181W        W18075  14.616  15.702   0.005  0.1507  0.0715  0.1045
 2182W        W18076  12.369  17.896   2.821 -0.4981 -0.0658  0.0192
 2183W        W18077   6.219  10.560   1.684 -0.1765  0.1990 -0.0959
 2184W        W18078   8.206  16.456  12.498  0.1312  0.3570  0.1019
 2185W        W18079  13.440   3.548  14.775 -0.0398 -0.0430 -0.2190
 2186W        W18080  14.047  12.203  13.168 -0.0767  0.0522  0.0849
 2187W        W18081   0.567  15.981  10.764 -0.2001 -0.4563  0.1481
 2188W        W18082   1.355   5.905   2.531  0.2093 -0.0894  0.0502
 2189W        W18083   7.896   7.952   2.848  0.1779 -0.1185  0.1933
 2190W        W18084   1.213   0.380  12.705 -0.1933 -0.1378 -0.0970
 2191W        W18085   7.347  15.676   2.845  0.0950  0.0972  0.0523
 2192W        W18086   2.710   7.375   1.513 -0.1966 -0.0423 -0.0903
 2193W        W18087  10.431   2.718   0.181 -0.3115 -0.0059  0.0378
 2194W        W18088  11.638  15.013  13.749  0.2527  0.4380  0.0231
 2195W        W18089  16.910  11.590  13.154  0.2531 -0.0678 -0.0688
 2196W        W18090  16.109   0.557   1.637  0.0927 -0.0413  0.0891
 2197W        W18091   1.564   6.730   0.099  0.1440 -0.0505 -0.2699
 2198W        W18092   7.665  13.989   1.699 -0.4350  0.2645  0.2881
 2199W        W18093  10.323   9.384   4.110  0.0499 -0.0290  0.2230
 2200W        W18094   0.305  13.129  12.487 -0.3178 -0.0458  0.0918
 2201W        W18095  10.331   2.371   2.590  0.2477 -0.1167 -0.0709
 2202W        W18096   3.068  18.521  14.145 -0.0342 -0.0587  0.1187
 2203W        W18097  17.010  11.020   1.900  0.0476 -0.1128 -0.2246
 2204W        W18098   1.403  12.714   2.946 -0.1044  0.3486  0.0524
 2205W        W18099   4.155   7.175  15.249 -0.0223 -0.1195  0.1841
 2206W        W18100   4.152   8.120  11.054  0.3035  0.2661  0.2141
 2207W        W18101   2.872  13.405  10.754 -0.0817 -0.2368  0.0363
 2208W        W18102  10.743  16.069  10.942  0.0168 -0.1033 -0.0565
 2209W        W18103  14.815   8.835   4.229  0.1885  0.0197 -0.0286
 2210W        W18104   4.172   0.122   1.711  0.0659 -0.0030  0.0010
 2211W        W18105   0.334  10.325  12.793 -0.0563 -0.1074  0.1471
 2212W        W18106  16.707  10.658  13.060 -0.2372  0.1546 -0.0321
 2213W        W18107  12.763   7.980   4.769  0.0632  0.0198  0.2519
 2214W        W18108  10.564  10.267   4.026 -0.1818 -0.2074  0.2418
 2215W        W18109  17.203   1.239  15.115 -0.2934 -0.0383 -0.1028
 2216W        W18110  16.880   3.702  14.108 -0.0266  0.0636  0.2042
 2217W        W18111  17.621  16.750   5.078  0.0187  0.0410 -0.1164
 2218W        W18112   2.989  14.945  14.828  0.1011  0.0834 -0.0390
 2219W        W18113   4.822   2.485   1.377 -0.0831  0.1538  0.1734
 2220W        W18114   6.018   1.237   2.952 -0.1032  0.0865  0.0110
 2221W        W18115  11.437   8.046   2.271 -0.1163  0.2783 -0.3441
 2222W        W18116   8.921   3.956  15.446 -0.1592  0.0453  0.0272
 2223W        W18117  11.958   7.578  12.137  0.1061  0.2160 -0.0513
 2224W        W18118   2.461   8.914   0.444  0.1403 -0.2520  0.2160
 2225W        W18119   4.539   2.130   4.771 -0.0583  0.1195 -0.2744
 2226W        W18120   7.169   0.577  13.972 -0.0878 -0.2363  0.0517
 2227W        W18121  17.757  10.284  15.289 -0.1974  0.0005 -0.0956
 2228W        W18122  15.458  17.019   6.126 -0.0771 -0.0343  0.2595
 2229W        W18123   6.272  11.174  11.763 -0.0847  0.1177  0.0092
 2230W        W18124  14.305   0.923   3.739 -0.0333 -0.1190  0.4378
 2231W        W18125  15.368   1.250  12.339 -0.0810 -0.1537 -0.0303
 2232W        W18126  12.239   7.648   1.934  0.0552 -0.2207  0.0399
 2233W        W18127   1.863   4.937  14.242 -0.2040 -0.0044  0.0107
 2234W        W18128  10.063  17.599  15.336 -0.1165  0.1058  0.2026
 2235W        W18129  13.569  15.238   0.025  0.0794  0.0647 -0.2166
 2236W        W18130   5.070   9.099  13.933 -0.0254 -0.1747  0.2848
 2237W        W18131   0.153   7.000   1.312 -0.1159 -0.1880  0.1050
 2238W        W18132   6.744  14.370  11.202 -0.1079  0.0268  0.1871
 2239W        W18133  17.259  12.817   2.261  0.1165 -0.0825 -0.0062
 2240W        W18134   8.934   0.651  14.853 -0.0189  0.0053 -0.0592
 2241W        W18135  11.198  13.149  13.572  0.1500 -0.2281  0.0743
 2242W        W18136  14.354  10.294   2.683 -0.2552  0.0737 -0.0452
 2243W        W18137   0.934  13.837  12.246  0.2296  0.1955 -0.0856
 2244W        W18138  12.670  16.954  10.633  0.0699  0.0754  0.1867
 2245W        W18139   9.979  11.238   4.216  0.0956  0.0912 -0.3425
 2246W        W18140   4.733   6.865  13.233  0.1943  0.1296 -0.0788
 2247W        W18141  11.523   3.628   0.355 -0.0759 -0.3048 -0.1062
 2248W        W18142  18.413   7.638   0.584 -0.3960 -0.1223  0.4329
 2249W        W18143   7.952  10.728   3.567 -0.3087 -0.0543  0.1859
 2250W        W18144  18.387  13.118   1.169 -0.0844 -0.0813  0.2635
 2251W        W18145   1.905  10.994  12.204 -0.2162  0.2180  0.2035
 2252W        W18146  11.293   4.857   9.919  0.0627  0.1306 -0.2819
 2253W        W18147  11.467   7.125   2.203  0.3398 -0.1341  0.1051
 2254W        W18148  13.749   7.725  10.884 -0.0630  0.1124 -0.0704
 2255W        W18149  14.491  15.120   0.632 -0.0523 -0.0680 -0.2217
 2256W        W18150   9.851  15.563   3.763  0.1915  0.0270  0.0250
 2257W        W18151  16.928  16.839   1.664 -0.0726 -0.0564 -0.1243
 2258W        W18152   6.720  15.328   3.269  0.0252 -0.0930  0.0668
 2259W        W18153   8.419   7.634  12.848  0.3110 -0.0744 -0.0573
 2260W        W18154  13.725   5.760  15.297 -0.1928  0.1672  0.2411
 2261W        W18155   5.101  12.360  10.457  0.1818  0.1964  0.0185
 2262W        W18156   3.469   7.545   0.054 -0.3587 -0.0216  0.1444
 2263W        W18157   3.792   3.442   1.924  0.1404  0.1405 -0.0140
 2264W        W18158  11.047   1.909   1.910  0.0660 -0.2291  0.0981
 2265W        W18159   5.714  12.222  14.212 -0.1329 -0.5681  0.2467
 2266W        W18160   2.215  16.880  10.788 -0.3408 -0.0775  0.0100
 2267W        W18161   9.189  12.101  14.546 -0.4509  0.0980 -0.1488
 2268W        W18162   1.786  10.580   2.003  0.2397  0.1798 -0.3730
 2269W        W18163  10.311  13.481   2.041  0.1436 -0.0139 -0.0932
 2270W        W18164  18.823  14.816  12.049  0.0360  0.2724 -0.1407
 2271W        W18165  10.698   2.827   5.712  0.3080  0.2112  0.1443
 2272W        W18166   2.150   2.761   2.876  0.4513  0.1319  0.0575
 2273W        W18167   3.560  16.847  11.727  0.1008  0.2298 -0.0585
 2274W        W18168   2.020  18.466  14.986  0.0741  0.1305  0.2767
 2275W        W18169   0.672   3.976   1.591  0.2481 -0.3073  0.0016
 2276W        W18170   7.048  11.345   0.409  0.2545  0.3205  0.3324
 2277W        W18171   7.863  14.423  12.163  0.0810 -0.1542  0.1058
 2278W        W18172  15.607   3.989   1.415  0.0639 -0.3129 -0.1580
 2279W        W18173  16.769  17.597   3.385  0.3685  0.0130 -0.1415
 2280W        W18174  16.026  11.688   2.357  0.1233  0.0274 -0.0500
 2281W        W18175   0.327   8.635  13.148  0.0590  0.0157 -0.2467
 2282W        W18176   4.445  15.878   4.629  0.1740 -0.1205  0.2240
 2283W        W18177   5.936   3.900  12.470  0.2416  0.2427 -0.0135
 2284W        W18178  14.274   6.238   4.997  0.1633  0.0073 -0.1869
 2285W        W18179   9.492   0.805   1.487 -0.0582 -0.2441  0.0386
 2286W        W18180  18.864  14.134   4.288 -0.5894 -0.1912 -0.1326
 2287W        W18181  10.359   3.140  15.404  0.1855  0.3591 -0.0125
 2288W        W18182   2.939   2.276   1.758 -0.2876 -0.0734 -0.2139
 2289W        W18183   8.395  18.006   2.884  0.1570 -0.1201 -0.0468
 2290W        W18184  16.066   1.653  11.376  0.0897  0.3305  0.0203
 2291W        W18185   0.217   2.464   5.461 -0.0465 -0.1261 -0.1410
 2292W        W18186   9.549   3.220   0.292 -0.1500  0.0259 -0.3352
 2293W        W18187   9.824  15.477  13.050 -0.2806 -0.1849  0.3253
 2294W        W18188   2.827   5.889  10.577 -0.0015  0.2562 -0.0801
 2295W        W18189   6.582  16.616   4.744  0.0229 -0.0647 -0.1292
 2296W        W18190   0.477   5.152   2.189  0.0114 -0.0961 -0.0524
 2297W        W18191   3.627  17.361  15.304 -0.0826 -0.0034 -0.0940
 2298W        W18192  18.004   8.087   0.516 -0.1062 -0.0465  0.0500
 2299W        W18193   9.542   3.323   3.730 -0.0464  0.3962 -0.2029
 2300W        W18194   7.047   9.685  14.613  0.1984 -0.4217 -0.1803
 2301W        W18195  10.743   7.074   0.594  0.0369  0.0243  0.0162
 2302W        W18196   6.009  16.824   5.458  0.0846  0.0893 -0.1338
 2303W        W18197  12.207   8.443   0.818 -0.0135  0.0025  0.0940
 2304W        W18198  18.063  11.034   0.318 -0.3869 -0.1461  0.1533
 2305W        W18199   1.411   7.152   1.162 -0.1180  0.2825 -0.0361
 2306W        W18200  10.174  15.031   3.722 -0.0300  0.0189  0.0303
 2307W        W18201   0.738  13.988  14.008 -0.0598 -0.0741 -0.3512
 2308W        W18202  17.134   0.106   4.009 -0.0282 -0.3147  0.0857
 2309W        W18203  12.093   1.465  11.883 -0.2793  0.2487 -0.0113
 2310W        W18204   0.667   4.839  15.310  0.4345  0.1500 -0.1533
 2311W        W18205   2.075   0.288  11.755  0.0121 -0.1501 -0.0197
 2312W        W18206  17.968   0.413   4.853 -0.3236 -0.1074  0.0387
 2313W        W18207  18.380  11.521   0.341  0.1770  0.1042 -0.0833
 2314W        W18208   4.620  18.440  10.502  0.0568 -0.1563  0.2989
 2315W        W18209  17.244   9.941  12.903  0.3671 -0.1765 -0.4409
 2316W        W18210   2.794   0.572   4.953 -0.2518  0.0253 -0.0078
 2317W        W18211   8.965  15.546  15.063  0.1865  0.1068  0.0098
 2318W        W18212   1.523  16.719   0.852  0.2155 -0.0989 -0.0515
 2319W        W18213  12.017   6.732  13.540 -0.0689 -0.0551  0.1758
 2320W        W18214   2.101   0.406   4.213  0.2656  0.1880  0.0913
 2321W        W18215   7.633  13.949   4.664 -0.1117  0.3343  0.0101
 2322W        W18216   6.499  12.982  13.146 -0.1566 -0.0460 -0.0755
 2323W        W18217  13.450   0.840  14.997  0.0724  0.1384  0.0957
 2324W        W18218   6.171  13.907   5.331  0.2822 -0.1674 -0.2696
 2325W        W18219   9.509  18.540  11.431  0.0830  0.1642 -0.1122
 2326W        W18220  14.905   2.934  13.096  0.0461 -0.1848 -0.0453
 2327W        W18221  14.078   5.439  15.481 -0.1010 -0.0439 -0.0673
 2328W        W18222   2.351  11.900   0.811  0.1189 -0.1787  0.2028
 2329W        W18223  11.629  13.180  14.972  0.3137 -0.0729 -0.1343
 2330W        W18224   1.355  16.862   4.070 -0.1798  0.0328 -0.3258
 2331W        W18225   0.586  13.261  13.901 -0.2541  0.0024 -0.1564
 2332W        W18226   1.385  17.220  12.333 -0.0015 -0.1550  0.2537
 2333W        W18227  13.446   7.797  15.485  0.1129  0.1963 -0.1620
 2334W        W18228   2.367   9.112  15.073  0.1159  0.2508  0.2648
 2335W        W18229  14.531  11.975   1.194  0.0791  0.0571  0.1127
 2336W        W18230  10.378  14.680  14.889  0.1081  0.3634  0.3103
 2337W        W18231   0.201   5.971   2.946 -0.1166  0.1840 -0.1475
 2338W        W18232  11.644  18.364   1.965 -0.3503  0.0814  0.0151
 2339W        W18233  15.809   1.884  13.203 -0.1985 -0.0475  0.0494
 2340W        W18234  13.659  17.444  11.506 -0.0578  0.0511 -0.2108
 2341W        W18235  15.215   1.357   4.426  0.1042  0.0006 -0.0668
 2342W        W18236  13.661   4.837   4.267 -0.2535 -0.2592 -0.0099
 2343W        W18237  10.575  14.828  13.015  0.3066  0.1466  0.2013
 2344W        W18238   1.585   1.912  13.121 -0.2470  0.3024  0.4184
 2345W        W18239   5.711   4.437   5.033 -0.1236 -0.1201  0.0576
 2346W        W18240   4.730  10.221  14.939  0.2279 -0.5389  0.1788
 2347W        W18241  12.426  13.184  13.742 -0.3586  0.4263 -0.0033
 2348W        W18242   4.952  11.598   9.463 -0.1542  0.0949 -0.2636
 2349W        W18243   0.385   4.614   1.696 -0.0864 -0.0989 -0.3760
 2350W        W18244   6.556   9.603  12.253  0.0064 -0.0081  0.0773
 2351W        W18245   0.439   9.753   4.710 -0.0330 -0.0752  0.1565
 2352W        W18246   6.056  13.626  13.400 -0.1626  0.0983  0.3859
 2353W        W18247   6.328  15.037   4.726  0.0983 -0.3630  0.0190
 2354W        W18248  16.549   3.205   0.250 -0.0865  0.1923  0.6160
 2355W        W18249   9.066  17.796  14.778  0.0888 -0.0008  0.0250
 2356W        W18250   1.271  17.248  11.805 -0.1296 -0.0793  0.0041
 2357W        W18251   2.808   9.408  15.125 -0.0784 -0.2873 -0.0660
 2358W        W18252   9.086   8.351  12.511  0.3964  0.0245  0.1740
 2359W        W18253   1.073   4.771   5.253  0.1535  0.2607 -0.0380
 2360W        W18254   2.181   1.165  14.173  0.0948  0.1061  0.0647
 2361W        W18255  17.650   3.385  11.176 -0.2830  0.1776 -0.3069
 2362W        W18256   5.229   3.687   2.274  0.0462  0.5831 -0.0726
 2363W        W18257   7.117  17.256   2.102 -0.2582  0.3848  0.2635
 2364W        W18258  13.874  11.129   3.691  0.0479 -0.0675 -0.1380
 2365W        W18259   9.896  11.778  12.798  0.0775 -0.2324  0.0640
 2366W        W18260  14.363  11.892   4.685  0.0182 -0.1189  0.0895
 2367W        W18261   4.163  16.653  13.066  0.1071  0.3510  0.1162
 2368W        W18262  12.724   4.153  15.100  0.1190  0.0553 -0.2057
 2369W        W18263   4.884  16.405   3.845  0.2635 -0.0661 -0.0205
 2370W        W18264  18.227  13.636  15.479  0.0123 -0.1386 -0.1810
 2371W        W18265  12.394   7.126  14.932  0.0429 -0.1414  0.1391
 2372W        W18266   4.125   5.943   3.801  0.2258  0.0837  0.1350
 2373W        W18267  12.397   1.297   4.280  0.0473  0.1622  0.3268
 2374W        W18268   9.245  12.514  13.088  0.2447 -0.5227 -0.2295
 2375W        W18269  11.311  13.713   3.294  0.0655  0.0319 -0.2053
 2376W        W18270  12.292  17.443  15.003 -0.0104 -0.2296 -0.2365
 2377W        W18271  13.150   7.915  15.082  0.0371 -0.0098  0.2550
 2378W        W18272   2.545   4.978  12.001 -0.1877  0.0711  0.2469
 2379W        W18273   2.327   6.850  11.403  0.0698 -0.1133  0.1001
 2380W        W18274  10.105   4.530   2.486  0.1904 -0.1477 -0.3533
 2381W        W18275   8.830  11.796  15.152 -0.1677  0.1482  0.1032
 2382W        W18276  10.278   5.708   4.787 -0.0728  0.2690  0.4862
 2383W        W18277   4.432   6.580  14.064 -0.0709 -0.3494 -0.1674
 2384W        W18278  12.961  14.080  13.951 -0.0206  0.1263 -0.1971
 2385W        W18279  11.078   3.937   1.663 -0.3521  0.0411  0.0429
 2386W        W18280  10.999   4.220  12.125  0.2209 -0.0898 -0.0815
 2387W        W18281   3.682  12.819  12.977 -0.2914 -0.3284  0.0306
 2388W        W18282  14.092  13.411   3.144 -0.0904  0.1096  0.0951
 2389W        W18283   2.637  17.310   3.436  0.2118 -0.0931 -0.1828
 2390W        W18284  13.336   2.967  11.143 -0.0806  0.3480  0.0310
 2391W        W18285   4.202   1.030   2.506 -0.0870 -0.0590  0.0633
 2392W        W18286   2.883  15.648   3.900 -0.3395  0.1915 -0.0853
 2393W        W18287  13.926   1.474   1.241 -0.3439 -0.2313  0.1164
 2394W        W18288   0.384  12.542   4.721  0.0478 -0.1622  0.0189
 2395W        W18289   4.222   6.931  13.096  0.2350  0.0047 -0.1185
 2396W        W18290   3.071  17.646   0.625 -0.0552  0.0892  0.2254
 2397W        W18291   1.285  15.463  11.955 -0.2004 -0.0365 -0.1296
 2398W        W18292  18.457   4.332   3.040 -0.0218 -0.3758  0.2086
 2399W        W18293   8.300  11.483   3.592 -0.0634 -0.1018 -0.3543
 2400W        W18294  10.161  12.593  14.834 -0.1707 -0.2241  0.0296
 2401W        W18295  14.421  17.320   0.271  0.2508 -0.0056  0.0507
 2402W        W18296   2.593  10.934   2.387 -0.3538 -0.3707 -0.0481
 2403W        W18297   4.756  17.388   3.345  0.0421  0.1058  0.2510
 2404W        W18298   6.962   6.660   1.899 -0.0452  0.1248 -0.3140
 2405W        W18299   4.245  16.797   5.088 -0.2251 -0.2222  0.0387
 2406W        W18300   9.571   2.451   1.442 -0.0349 -0.1944 -0.1318
 2407W        W18301   1.940  15.783   1.063  0.1073  0.0849 -0.1664
 2408W        W18302   2.841   4.040  13.683 -0.2656 -0.0166  0.0654
 2409W        W18303   8.827  18.178  14.959 -0.0712 -0.0804 -0.0181
 2410W        W18304  17.337  18.139   0.941  0.2945 -0.3098  0.2182
 2411W        W18305  15.985   2.255  12.901 -0.0665 -0.0212 -0.0162
 2412W        W18306  13.812  15.379   3.399  0.1208 -0.1982 -0.2644
 2413W        W18307   7.456   3.279   1.635  0.0675 -0.3010  0.1504
 2414W        W18308   0.247  18.410  12.108  0.0469  0.0424  0.1650
 2415W        W18309   2.793  17.979  12.181 -0.0457 -0.0742  0.1502
 2416W        W18310  18.361  12.515  13.309  0.5234 -0.2111  0.1378
 2417W        W18311   9.833   6.747  15.385  0.3029  0.0310 -0.0006
 2418W        W18312   8.822   3.919   1.661 -0.0610  0.0187  0.0461
 2419W        W18313   4.136   5.220   1.525 -0.2544  0.1149 -0.1492
 2420W        W18314   1.862  13.846   2.957  0.2969  0.0227  0.2762
 2421W        W18315   0.190  10.070  11.403 -0.0494 -0.0283  0.0867
 2422W        W18316  10.216  18.763   3.062 -0.0874  0.3398  0.0388
 2423W        W18317   4.698   3.818   4.331 -0.2149  0.0409 -0.0513
 2424W        W18318   0.168   2.387   4.473 -0.1169  0.0180  0.2870
 2425W        W18319  17.372   1.414   0.071 -0.1354  0.0149  0.0704
 2426W        W18320  18.227  14.070  15.146  0.1098  0.3199  0.2531
 2427W        W18321  17.467   6.699  14.793  0.1119  0.1439  0.2663
 2428W        W18322  13.927   6.260  15.158  0.1296 -0.0190  0.1017
 2429W        W18323  15.136   5.620   5.049  0.2809  0.0410 -0.1702
 2430W        W18324  14.895   7.267  13.160  0.1069  0.1851 -0.1077
 2431W        W18325   4.336   1.395  15.138  0.2881 -0.1616 -0.3041
 2432W        W18326   2.085  10.780  10.187 -0.1343  0.0302 -0.0651
 2433W        W18327  16.887  13.225   5.000  0.1148  0.0167  0.0074
 2434W        W18328  12.645   0.982   2.935 -0.0300 -0.3959  0.1971
 2435W        W18329   0.068   8.508  12.233  0.1025  0.3269  0.2378
 2436W        W18330   1.535  12.549   1.222 -0.2399  0.0217 -0.1433
 2437W        W18331   2.986  18.620   4.992  0.1484 -0.1195  0.1216
 2438W        W18332   8.533  12.658   2.808 -0.2400 -0.1046  0.1203
 2439W        W18333  15.239   5.895   3.224 -0.0157 -0.2612 -0.0685
 2440W        W18334   2.350   3.757   0.900  0.2547  0.1924 -0.1414
 2441W        W18335  12.905  15.356   4.116 -0.3008  0.0791 -0.0479
 2442W        W18336  14.469  10.480  14.827 -0.1564 -0.0894  0.2527
 2443W        W18337  10.361  13.594   1.388 -0.1603 -0.1149  0.0767
 2444W        W18338  11.537   1.796   2.467 -0.1268 -0.1857  0.0386
 2445W        W18339  10.846  10.708   4.294 -0.1603  0.1215 -0.1708
 2446W        W18340   1.725  18.372   0.472 -0.5379 -0.1865 -0.1618
 2447W        W18341  18.334   5.304   0.160 -0.3005  0.0538 -0.1124
 2448W        W18342  18.496   5.517  10.821  0.0090 -0.1110  0.0937
 2449W        W18343   3.830   1.680   4.330 -0.1601 -0.1724  0.0210
 2450W        W18344  11.780   7.985  11.874  0.0437  0.0466  0.1770
 2451W        W18345   1.043  18.055  12.282  0.0087  0.1100 -0.2898
 2452W        W18346   1.663   1.371  10.832 -0.3339 -0.2913  0.0541
 2453W        W18347   2.006  13.394   3.413 -0.2351 -0.3538 -0.1894
 2454W        W18348   5.427   7.811   3.248 -0.0938 -0.0021  0.2567
 2455W        W18349   4.579   7.043  11.267 -0.3563 -0.0570 -0.3569
 2456W        W18350   0.869   0.896   2.390 -0.0273 -0.1132  0.0162
 2457W        W18351  13.129  17.237  14.504 -0.0465 -0.0898 -0.1492
 2458W        W18352   5.155   6.771  11.212  0.2489  0.3956 -0.0439
 2459W        W18353  12.161   5.449   2.772  0.4341  0.2671 -0.1752
 2460W        W18354   2.125  11.908  11.681  0.2633  0.1273 -0.0296
 2461W        W18355   6.640  10.400  15.347  0.0728  0.1722  0.2443
 2462W        W18356   1.287  12.078   1.226  0.1619  0.1506 -0.0697
 2463W        W18357   7.265   5.588  14.551  0.0588 -0.0269 -0.0515
 2464W        W18358   5.430   8.793   0.426 -0.2014 -0.3282  0.1976
 2465W        W18359   9.934   2.685  12.115  0.0175 -0.0679 -0.0131
 2466W        W18360   8.228   9.861  15.406 -0.1066  0.0259 -0.2611
 2467W        W18361   0.858   4.392   4.716  0.0543  0.0241  0.1219
 2468W        W18362   6.312  14.619  11.322 -0.4242 -0.1712  0.1523
 2469W        W18363   0.787  10.975   4.285  0.0464 -0.0986 -0.1754
 2470W        W18364  16.740   9.493  12.271  0.0610 -0.2801 -0.1281
 2471W        W18365   4.999   2.030   5.088  0.1629 -0.2322  0.0522
 2472W        W18366  13.618   5.255  15.310 -0.1349 -0.3515 -0.0044
 2473W        W18367   6.034   0.059  11.610 -0.2873  0.1035 -0.0873
 2474W        W18368  10.142   9.998   1.630 -0.1094  0.1596  0.2199
 2475W        W18369   6.851  14.257  15.458  0.1622  0.1094  0.1459
 2476W        W18370   0.052  10.681   4.809 -0.2025 -0.1364 -0.0290
 2477W        W18371   9.829  16.043  14.367  0.1334 -0.0591 -0.0965
 2478W        W18372  10.735  10.380   0.099  0.0175 -0.3459 -0.1194
 2479W        W18373   1.253  12.262   2.519 -0.2691 -0.0179 -0.1831
 2480W        W18374  10.485  11.865   5.405 -0.0059 -0.2361  0.0392
 2481W        W18375  12.530  12.728  14.644 -0.1301  0.0775 -0.1133
 2482W        W18376   2.805  11.203  10.696  0.0197 -0.1980  0.3574
 2483W        W18377   2.973  16.811   2.075  0.0791  0.3006 -0.1120
 2484W        W18378  11.147  12.999  12.225 -0.0717 -0.0630  0.0890
 2485W        W18379   7.546  11.364   2.333 -0.1683 -0.1708  0.0993
 2486W        W18380   4.879  15.176  14.968  0.1224  0.0477 -0.0597
 2487W        W18381   9.387   0.922  14.404  0.0716 -0.1144 -0.3829
 2488W        W18382   3.348   1.645  11.287 -0.0950 -0.0006  0.0418
 2489W        W18383  18.421  14.083   5.332 -0.2036 -0.1261 -0.2548
 2490W        W18384  17.793  15.338  12.867  0.3486  0.1719 -0.1507
 2491W        W18385   1.296  10.089   2.301  0.2567 -0.2363 -0.0437
 2492W        W18386  11.789  10.180  13.223 -0.1219 -0.2529 -0.0810
 2493W        W18387   6.161   8.557   4.528 -0.1555  0.1940 -0.0737
 2494W        W18388   5.312   6.504  14.636 -0.0330  0.0206  0.2489
 2495W        W18389  14.225  18.062   5.801 -0.1414  0.1792  0.2836
 2496W        W18390  11.778  12.672  13.511  0.2903 -0.2421 -0.0454
 2497W        W18391  16.167   6.365  14.166  0.0273 -0.1347 -0.2593
 2498W        W18392   6.967   3.459  10.338  0.0650  0.2614 -0.0826
 2499W        W18393  15.976   5.266   0.285 -0.2361 -0.0728  0.1583
 2500W        W18394  18.635   4.759  12.395  0.0872  0.1216 -0.0550
 2501W        W18395   2.546   5.423   0.180 -0.2676 -0.0942 -0.1151
 2502W        W18396  12.778  16.833   1.714  0.2012 -0.0593 -0.0109
 2503W        W18397  11.301  11.043  15.175 -0.1624  0.5046  0.2384
 2504W        W18398   0.389  12.837  14.177  0.0393  0.1142  0.0402
 2505W        W18399   3.180   9.490  12.712 -0.1518  0.1393 -0.1075
 2506W        W18400   1.106   1.000   4.859 -0.1805  0.1052 -0.2164
 2507W        W18401   8.673   5.728  12.899  0.3084  0.0517 -0.5024
 2508W        W18402   9.492  12.649   2.386 -0.2680 -0.1331 -0.1354
 2509W        W18403   8.360  14.839  14.690 -0.0743 -0.1451 -0.2590
 2510W        W18404   7.474   8.560  12.162 -0.0499 -0.1024  0.0243
 2511W        W18405  18.323   2.346   0.706  0.2211 -0.1626  0.3085
 2512W        W18406  10.847   5.948  14.590 -0.0066  0.1452 -0.0197
 2513W        W18407   6.193   7.644  10.991 -0.2942  0.0833  0.1763
 2514W        W18408  11.581   0.100  13.429 -0.1101 -0.2174  0.0499
 2515W        W18409  16.231   8.021   2.408  0.2044  0.2005  0.2333
 2516W        W18410  12.343  10.014   4.070  0.2916  0.0463  0.0956
 2517W        W18411   6.057   4.534  11.997 -0.3227 -0.0385  0.1507
 2518W        W18412   2.593   8.099  11.177  0.1685 -0.1612  0.0107
 2519W        W18413  12.823  14.301   4.015  0.1711 -0.2727  0.1528
 2520W        W18414   1.126  13.663   1.463 -0.0509  0.1411 -0.1505
 2521W        W18415  15.450   6.215  12.112 -0.0538  0.2323 -0.0250
 2522W        W18416  10.720  17.130  13.211  0.0263 -0.3645 -0.0984
 2523W        W18417  16.879  14.500   2.012 -0.0497  0.3275  0.2675
 2524W        W18418   3.608  15.394  11.931  0.3394  0.3793 -0.1471
 2525W        W18419   7.900   6.538  13.645 -0.0005 -0.0112  0.1811
 2526W        W18420   1.701  13.043   3.176  0.0682  0.0019  0.5912
 2527W        W18421  10.372   8.466   2.406  0.0705 -0.0128  0.0544
 2528W        W18422   8.171   8.212  12.041 -0.2673 -0.2143  0.0768
 2529W        W18423   5.903  14.349  12.814  0.3041  0.1509 -0.3064
 2530W        W18424   8.667   1.101   3.252 -0.5008  0.2126 -0.2968
 2531W        W18425   9.292   3.413  13.110 -0.0513 -0.2847 -0.1625
 2532W        W18426  13.169   3.635   0.747  0.1949 -0.0780  0.1039
 2533W        W18427   4.532   1.278   2.781 -0.1476  0.0197 -0.2209
 2534W        W18428  18.430  16.246   2.078 -0.0262 -0.4816 -0.0758
 2535W        W18429  15.961   5.392   2.137 -0.2001 -0.1514  0.1275
 2536W        W18430   5.463   4.862  15.487 -0.0343 -0.2193  0.1601
 2537W        W18431   7.176  13.952   2.458  0.0593  0.1578 -0.3327
 2538W        W18432  13.891   1.729  14.828 -0.0895  0.1119  0.1905
 2539W        W18433   8.577   6.950   0.655  0.0105  0.0195 -0.3213
 2540W        W18434   6.250   0.869  14.343  0.2986  0.1122  0.3940
 2541W        W18435   3.885   8.701  13.115  0.0211 -0.1481  0.0652
 2542W        W18436   2.258  18.403  13.147 -0.2640 -0.0481  0.0840
 2543W        W18437   9.175   8.881   1.547 -0.1054  0.1004 -0.1933
 2544W        W18438  11.997  15.097   4.604 -0.0282 -0.0144  0.2464
 2545W        W18439   8.631  10.003  15.115  0.2355  0.1117 -0.1186
 2546W        W18440  18.662  18.305   5.231 -0.1365  0.0347  0.0692
 2547W        W18441  18.138  18.280  13.344  0.0924 -0.3626 -0.0849
 2548W        W18442   3.369   4.288  11.047 -0.0523  0.0293  0.1770
 2549W        W18443  14.592  12.308   2.477  0.3939 -0.4821 -0.1073
 2550W        W18444   0.859   7.423  14.271  0.1446 -0.1376 -0.1039
 2551W        W18445   2.969   5.093   2.712  0.1585 -0.2632  0.0194
 2552W        W18446   6.498  10.683  13.822 -0.0084 -0.2049  0.0717
 2553W        W18447   0.967  12.836   4.287 -0.2985 -0.2531  0.0604
 2554W        W18448  10.503   7.768   4.214  0.1030 -0.2334 -0.3803
 2555W        W18449  14.776  18.839  14.949 -0.2390 -0.0638 -0.0104
 2556W        W18450  15.754  10.879  15.115  0.0918 -0.1455 -0.1008
 2557W        W18451   8.802  18.657  13.706 -0.0537 -0.0319 -0.2525
 2558W        W18452  14.922  18.369  12.985  0.2829 -0.0382  0.1303
 2559W        W18453   7.244   6.129  15.400 -0.2436 -0.2233 -0.0324
 2560W        W18454  15.664   8.144   0.408  0.3906 -0.1316 -0.1553
 2561W        W18455   4.192  17.382  13.690 -0.0647  0.2765  0.0672
 2562W        W18456   7.119  11.436  14.249 -0.1272  0.0635  0.0389
 2563W        W18457  13.137   6.024  10.914  0.0737 -0.3171 -0.2640
 2564W        W18458  17.300  17.021   1.963 -0.1748  0.0477  0.1726
 2565W        W18459  10.316  15.445  12.721  0.1056  0.1561 -0.2065
 2566W        W18460   2.574  13.778   3.746 -0.0442  0.0075 -0.1858
 2567W        W18461  18.352  11.522   4.609  0.1903 -0.0004 -0.0245
 2568W        W18462  15.454  14.627   3.777  0.3238 -0.2144  0.0536
 2569W        W18463   4.344   6.614   1.837  0.2292  0.3543  0.0461
 2570W        W18464   3.793   1.492  11.351 -0.0568  0.2773 -0.0480
 2571W        W18465  13.234   2.067   3.873 -0.1614 -0.0185  0.6038
 2572W        W18466  11.555  17.989   0.539 -0.2981 -0.0546 -0.1215
 2573W        W18467  11.976  13.424   5.400 -0.2024 -0.1452 -0.1124
 2574W        W18468  17.472   7.300  10.881  0.1063  0.1199  0.2142
 2575W        W18469   9.217   5.801  14.610 -0.2449 -0.2255 -0.0143
 2576W        W18470   1.091   3.553  11.356 -0.3813  0.0834  0.5509
 2577W        W18471  16.985   6.910   0.241  0.1381  0.3055 -0.0350
 2578W        W18472  16.433   4.024  14.298 -0.0063 -0.0445 -0.1165
 2579W        W18473  12.161   8.913   2.849  0.0053 -0.2219  0.0765
 2580W        W18474  14.027  18.069   0.100  0.1073 -0.0825  0.0495
 2581W        W18475   8.418  13.638  12.350 -0.1657  0.0492  0.0344
 2582W        W18476   2.770  13.656  13.976  0.1261  0.0044 -0.0618
 2583W        W18477  10.165  18.628  11.253  0.3085 -0.1838  0.2590
 2584W        W18478   9.271  14.880  11.157  0.1396 -0.1509 -0.1534
 2585W        W18479  12.052  13.275  11.408 -0.0106 -0.2286  0.1651
 2586W        W18480  13.809  12.721   4.780 -0.3886  0.2751  0.1391
 2587W        W18481   2.308   5.646   4.507 -0.3545  0.0550  0.0197
 2588W        W18482  18.446   0.359   3.963  0.0064 -0.0121  0.0556
 2589W        W18483   4.377   7.093   1.905 -0.0584  0.0349  0.1595
 2590W        W18484  14.878  17.260   2.998 -0.1405  0.0759  0.1875
 2591W        W18485   2.324   7.826  13.028  0.0536 -0.3481  0.4990
 2592W        W18486   0.312   8.553   2.290 -0.2115 -0.0218 -0.2632
 2593W        W18487   5.457  12.704   1.851 -0.3376 -0.0154  0.6313
 2594W        W18488   7.727   3.689  14.536 -0.2238  0.0242  0.0636
 2595W        W18489   7.198  10.612  13.104 -0.3942 -0.0708 -0.3133
 2596W        W18490   1.412  16.073  13.786 -0.1195  0.0938  0.0538
 2597W        W18491   0.103  10.207  11.874  0.0580  0.1610  0.0213
 2598W        W18492   3.956  16.355   4.959  0.0684  0.0461 -0.1368
 2599W        W18493  18.045   5.327  10.020  0.2987  0.2223 -0.1174
 2600W        W18494  14.430  17.091  12.510 -0.1247  0.1918 -0.0279
 2601W        W18495  18.153  18.825   4.710  0.0080  0.0157 -0.0675
 2602W        W18496  17.272   6.250   4.543  0.0726 -0.0116 -0.1116
 2603W        W18497   2.864   4.074   0.919  0.3520 -0.0406 -0.3136
 2604W        W18498  12.328   8.037  14.715  0.2650 -0.0152  0.1182
 2605W        W18499   5.975  15.209   5.100 -0.2022 -0.0793  0.0091
 2606W        W18500  14.919   8.104   1.474 -0.1382  0.2749 -0.1829
 2607W        W18501   0.631  10.562   3.398 -0.2034  0.1241  0.0514
 2608W        W18502   8.171  11.998  12.931  0.3983 -0.1084  0.0595
 2609W        W18503   6.057   9.241  13.967 -0.4597  0.0596  0.0236
 2610W        W18504  10.044   4.678  12.125  0.1277  0.3816 -0.0261
 2611W        W18505   8.193  12.911   0.941  0.2578  0.1623 -0.0150
 2612W        W18506   0.626   9.574   1.859 -0.1099 -0.2042 -0.0617
 2613W        W18507   8.230   2.061   5.394  0.4217  0.2940  0.1223
 2614W        W18508  11.570  17.871   1.785 -0.0379 -0.0479  0.1995
 2615W        W18509  10.252   0.848   3.582  0.1101 -0.1634 -0.0817
 2616W        W18510   7.238   2.254   4.324 -0.1605 -0.1890  0.0292
 2617W        W18511  10.373   0.081   3.503  0.1767 -0.0173  0.0330
 2618W        W18512  16.233  17.991  14.142 -0.2108  0.0307 -0.0462
 2619W        W18513  16.460  15.898   0.342  0.1115 -0.2345 -0.0263
 2620W        W18514  18.331   7.974  11.799  0.3009  0.0097 -0.3975
 2621W        W18515   1.045   5.118  15.189 -0.0573 -0.1625 -0.4892
 2622W        W18516  11.675   2.488   4.282  0.1863  0.0703 -0.1528
 2623W        W18517  14.420   1.245   0.741 -0.2975 -0.1916 -0.3355
 2624W        W18518  18.357   5.711  12.531 -0.1138  0.0954 -0.1956
 2625W        W18519  15.178  12.532   9.972  0.0223 -0.1487 -0.1409
 2626W        W18520   2.020  11.681   3.773 -0.0054  0.1339  0.2654
 2627W        W18521  10.409   5.199   5.765  0.2330 -0.1704  0.1228
 2628W        W18522   8.151   4.041   5.466 -0.2722 -0.3328 -0.2533
 2629W        W18523  14.771   6.497  13.842 -0.1019 -0.2869  0.0266
 2630W        W18524   6.690   9.511   2.991 -0.0739 -0.1975 -0.1062
 2631W        W18525  18.092   6.009   2.585 -0.3209 -0.1197  0.3578
 2632W        W18526  16.431  11.474  12.439  0.0243 -0.2199  0.1719
 2633W        W18527  10.839   0.604  14.506  0.4008  0.0827 -0.0659
 2634W        W18528   4.504  17.675   3.019 -0.0483 -0.0606 -0.2696
 2635W        W18529  17.369  17.588  14.310  0.2266 -0.0984  0.1518
 2636W        W18530   6.986   2.640   3.027 -0.2253  0.0855  0.0305
 2637W        W18531   1.415  14.967  13.567  0.2276 -0.1918  0.0633
 2638W        W18532   0.108  16.040  15.445  0.2854 -0.0259 -0.1497
 2639W        W18533   9.108   5.913  14.124 -0.0640 -0.3344 -0.0558
 2640W        W18534   9.471  15.321  14.699 -0.0292 -0.0162 -0.1261
 2641W        W18535  15.719   3.598   0.961 -0.0871  0.2429 -0.0710
 2642W        W18536   7.925   1.537   0.669  0.0295  0.0695 -0.1233
 2643W        W18537  10.033   7.831   5.001  0.2574 -0.0696  0.0987
 2644W        W18538   3.664   1.842  13.274 -0.4406  0.1043 -0.0339
 2645W        W18539   4.758  16.671   2.582  0.2026  0.1172  0.1853
 2646W        W18540   0.254   2.751   2.691  0.0917 -0.0194  0.1923
 2647W        W18541  18.403   2.108  11.009 -0.0707  0.2032  0.0545
 2648W        W18542  11.871  11.524   5.150 -0.2516  0.0606 -0.2049
 2649W        W18543   4.874  16.353  15.448  0.1651 -0.0345  0.1557
 2650W        W18544  17.477   1.458   4.145  0.0917  0.2072  0.0191
 2651W        W18545   3.696  11.972   1.021  0.2476 -0.1160  0.1066
 2652W        W18546  16.060   3.680   1.745 -0.0493  0.2524 -0.2538
 2653W        W18547  13.251   6.046   1.356 -0.1183 -0.0711  0.0922
 2654W        W18548   4.846  14.900   4.348  0.1039 -0.0966  0.1899
 2655W        W18549   2.386  10.533   4.924 -0.2662  0.0724 -0.0216
 2656W        W18550  12.001  13.867   2.460  0.1386  0.0870 -0.1124
 2657W        W18551  11.207  13.852   4.394  0.2067  0.0398 -0.1473
 2658W        W18552   2.420  15.572   4.105  0.2160  0.0773 -0.0041
 2659W        W18553   1.026   7.654   1.775 -0.1203  0.0786 -0.1148
 2660W        W18554  15.890   5.022   1.330 -0.2428  0.2278  0.3695
 2661W        W18555  11.240   8.617  14.855 -0.0883  0.1483  0.0684
 2662W        W18556  18.881   3.098  13.857 -0.1667 -0.0499  0.1344
 2663W        W18557   4.350  11.021   0.090 -0.1249 -0.1557 -0.1847
 2664W        W18558   6.778   7.683   4.834 -0.0315 -0.0215 -0.0026
 2665W        W18559  15.007  18.043   4.342 -0.1979  0.1977  0.2606
 2666W        W18560   7.066  16.814   0.600  0.0212 -0.2292  0.0048
 2667W        W18561   7.628   1.908   3.915  0.0763  0.1202 -0.2780
 2668W        W18562   4.082   1.181   0.004 -0.1128 -0.0646 -0.0608
 2669W        W18563  17.222   6.471  12.003 -0.0164 -0.0963 -0.0865
 2670W        W18564  11.758   2.881  14.019  0.1931 -0.3976  0.1161
 2671W        W18565   5.595  16.256  11.103  0.1115  0.0402 -0.1425
 2672W        W18566  10.066   3.948   0.856  0.2999 -0.1026  0.0724
 2673W        W18567   0.669   4.485  13.835 -0.1147  0.2332  0.1210
 2674W        W18568  16.071  13.755   1.787  0.0206 -0.1223 -0.1984
 2675W        W18569   4.445  13.325   4.245  0.2664 -0.0207  0.2442
 2676W        W18570   4.763   9.201  11.729 -0.0173  0.0231  0.3130
 2677W        W18571   2.845  15.609   5.198  0.1143 -0.3138 -0.1743
 2678W        W18572  10.042  18.789   0.551  0.2197  0.1054 -0.2326
 2679W        W18573  17.729  11.183   3.288 -0.1135 -0.0416  0.0724
 2680W        W18574  12.365  15.202   2.378  0.0227 -0.0937 -0.1565
 2681W        W18575  18.130   3.367   2.379  0.1468 -0.1319 -0.1416
 2682W        W18576  14.129  16.799   1.139 -0.4632 -0.1477 -0.0894
 2683W        W18577  15.763   1.608   4.689 -0.1629 -0.0355  0.1346
 2684W        W18578   6.853  10.170  13.267 -0.1206  0.1689  0.2540
 2685W        W18579  13.525  17.383  13.588 -0.0547 -0.0327 -0.1559
 2686W        W18580   7.948   4.481  13.268 -0.0995 -0.0547  0.1120
 2687W        W18581   3.815   4.331  12.177  0.1389 -0.0440  0.1463
 2688W        W18582   4.052  14.053  10.262 -0.0296 -0.0530 -0.1274
 2689W        W18583   7.252  12.575   1.635  0.0421  0.2131  0.0110
 2690W        W18584  15.498   4.960   3.029 -0.2065  0.1582 -0.0104
 2691W        W18585  12.716  17.813   2.373  0.0611 -0.1176  0.0576
 2692W        W18586   0.678   4.183  14.334 -0.2446 -0.0781  0.0960
 2693W        W18587   1.825  17.956   3.976 -0.2496 -0.1137  0.1760
 2694W        W18588  12.126   4.369   2.520 -0.1622  0.1655  0.0861
 2695W        W18589  16.096   5.831   1.793 -0.0361  0.3815  0.2094
 2696W        W18590   6.751  14.959   2.858 -0.0700 -0.4454 -0.0432
 2697W        W18591  11.351   8.831   5.614  0.2621  0.1959 -0.1936
 2698W        W18592  15.719   0.602   1.183 -0.2044 -0.1737  0.0894
 2699W        W18593   1.675  16.178   3.738 -0.2958 -0.1817  0.1615
 2700W        W18594   1.073   9.830  14.916 -0.0206  0.1741 -0.0692
 2701W        W18595  10.926   5.447   4.574 -0.2412 -0.1455 -0.4434
 2702W        W18596   3.337   3.657   1.757 -0.0374  0.0193  0.0669
 2703W        W18597  18.357  12.357   3.896  0.0864 -0.3652  0.1965
 2704W        W18598  11.812  14.233   4.860 -0.1762 -0.0673  0.0643
 2705W        W18599   2.596   4.455  15.457  0.1034 -0.2134  0.2290
 2706W        W18600  15.822  13.005  15.349  0.1165 -0.1238  0.2465
 2707W        W18601   6.907   3.629   4.361 -0.1184 -0.2746  0.1690
 2708W        W18602  15.304  18.881  10.789  0.1315  0.2831  0.0053
 2709W        W18603   2.086   3.153   2.053  0.1154  0.1445  0.0927
 2710W        W18604  11.944  15.064   5.259 -0.0777 -0.0804  0.0448
 2711W        W18605  15.807   7.561  15.184  0.3697  0.1564 -0.2246
 2712W        W18606  16.773   1.962   0.202  0.2290 -0.0764 -0.3332
 2713W        W18607  15.811   2.735   2.802  0.2089 -0.0139 -0.1176
 2714W        W18608   9.532   0.880   5.264  0.2279 -0.0686 -0.0004
 2715W        W18609   1.989  12.898   0.825 -0.1071  0.1610  0.3240
 2716W        W18610   1.913  13.308  10.167  0.0989  0.1130 -0.5979
 2717W        W18611  11.512   4.443  11.559 -0.0802 -0.0239  0.3711
 2718W        W18612   5.585   7.490   1.412  0.1899  0.4217  0.0154
 2719W        W18613   0.390   9.845  12.202  0.0868 -0.0612  0.0005
 2720W        W18614  10.563   3.172  14.395  0.1840 -0.4894  0.1173
 2721W        W18615   9.730   4.229  12.859  0.0155 -0.0103  0.2138
 2722W        W18616  17.524   9.848   4.316  0.1224  0.2386 -0.0760
 2723W        W18617  13.096  11.017   0.004 -0.4660 -0.3595  0.0259
 2724W        W18618  18.114  12.397   1.950  0.1258 -0.0862  0.1681
 2725W        W18619  17.993   5.802  14.854  0.0375  0.1503 -0.0430
 2726W        W18620   5.339  12.458   3.100 -0.0787  0.5704  0.0964
 2727W        W18621  10.462  11.733   2.810  0.0667 -0.1501 -0.0991
 2728W        W18622   3.989  15.198  13.323  0.3740  0.1157  0.1614
 2729W        W18623   4.272   1.528   0.366  0.3207  0.0334 -0.0537
 2730W        W18624  18.091  18.478   5.525  0.0245 -0.0642  0.3030
 2731W        W18625  15.885  12.691  11.963  0.2041  0.2983 -0.0832
 2732W        W18626  10.938  15.424  11.235  0.0575  0.2419  0.2624
 2733W        W18627   4.223  14.621  10.365  0.2550 -0.0271  0.1644
 2734W        W18628  14.378   3.770   3.692 -0.0098 -0.0214 -0.0409
 2735W        W18629  10.433   2.077   3.560  0.2869 -0.0625  0.2608
 2736W        W18630   2.913   0.736   1.066 -0.0568 -0.0022  0.1417
 2737W        W18631  12.569  14.736  13.017  0.2365  0.2688 -0.0878
 2738W        W18632   6.569  15.862  10.702 -0.0389 -0.0822 -0.0978
 2739W        W18633   7.653   0.534  11.244 -0.0443 -0.4959  0.1615
 2740W        W18634   2.101   7.074  10.625  0.0132  0.2776  0.2398
 2741W        W18635   3.390   0.432  12.510 -0.1501  0.0409 -0.1099
 2742W        W18636  10.762   0.053   3.027  0.0085 -0.1956 -0.0881
 2743W        W18637  11.584  15.879  15.250 -0.1811 -0.1306 -0.1512
 2744W        W18638  11.806   8.154   1.444  0.4091 -0.0533 -0.0612
 2745W        W18639   3.841  14.590   5.580 -0.3599  0.2261 -0.1433
 2746W        W18640   2.804   1.615  10.473  0.2124 -0.2518 -0.1960
 2747W        W18641  10.275   9.663  13.665 -0.1893 -0.0895 -0.2655
 2748W        W18642  12.286   2.640  11.828 -0.1584  0.0419  0.2502
 2749W        W18643   5.748   9.333  14.736  0.4025 -0.0930  0.0217
 2750W        W18644  12.012   1.019   0.626 -0.3507 -0.0279 -0.0006
 2751W        W18645  16.650   3.081  14.750  0.1892  0.3052  0.1580
 2752W        W18646  15.015  18.031   3.830  0.2116 -0.1972  0.0798
 2753W        W18647  15.464   5.841   1.609 -0.1364 -0.2457  0.0580
 2754W        W18648  11.289  17.372  14.176 -0.0426 -0.1690 -0.0664
 2755W        W18649   1.227  10.493   1.916 -0.2082 -0.0624  0.1844
 2756W        W18650  11.153   1.808   4.851 -0.1788  0.1897 -0.2570
 2757W        W18651  12.607   8.723   1.324  0.0806  0.0237 -0.0929
 2758W        W18652  12.097   6.427  11.849  0.2095  0.0884  0.0279
 2759W        W18653  13.707   6.269   1.600 -0.3240 -0.3801 -0.1655
 2760W        W18654  12.788   8.043  11.549 -0.3436 -0.0755 -0.0949
 2761W        W18655   9.892  15.248  13.576 -0.2740  0.1913 -0.1488
 2762W        W18656  14.288   6.522   2.097  0.2078  0.3057 -0.0533
 2763W        W18657  14.663  14.893   1.104 -0.1017  0.1615  0.2970
 2764W        W18658   9.020  15.425  13.490 -0.2767  0.0195  0.0244
 2765W        W18659   1.124  13.047   0.528 -0.0210  0.0457 -0.1004
 2766W        W18660  15.432   5.717  15.076 -0.2439 -0.2520 -0.1737
 2767W        W18661   1.144   5.625  13.389 -0.0918  0.1501  0.0712
 2768W        W18662  14.581   8.745   3.468  0.0673  0.1411  0.1295
 2769W        W18663   6.192  15.585   2.388  0.2242  0.1663  0.4932
 2770W        W18664   6.294  15.176   1.735  0.5078  0.2401  0.2356
 2771W        W18665   5.039   3.440   4.242  0.0712 -0.2220  0.0939
 2772W        W18666   9.981   4.445   0.026 -0.0140  0.0630 -0.2275
 2773W        W18667   4.796  15.505   5.294  0.2767  0.1792  0.1653
 2774W        W18668   3.668  11.451  13.965 -0.0281  0.1640 -0.1556
 2775W        W18669  10.130  12.445  11.681  0.1983  0.0418  0.1855
 2776W        W18670  11.396   5.327  12.000  0.0806 -0.1406 -0.0740
 2777W        W18671   0.361   8.613   0.946 -0.2641 -0.0570 -0.1846
 2778W        W18672   5.013  16.253   1.366 -0.1936 -0.1844  0.1724
 2779W        W18673   6.720   5.258   3.988 -0.0259  0.0185  0.1319
 2780W        W18674   5.356   9.794  14.004  0.3307  0.1906 -0.1579
 2781W        W18675   0.624   3.240   2.063  0.1588 -0.2984  0.0272
 2782W        W18676   7.167   7.093  11.602  0.2014 -0.1217 -0.1187
 2783W        W18677   5.847   9.047   4.625 -0.0795 -0.0829 -0.2664
 2784W        W18678   2.244  16.237   1.776 -0.1083  0.1586  0.1416
 2785W        W18679   3.939  16.465  14.466  0.3510 -0.3334  0.0632
 2786W        W18680   6.702   0.809  13.619 -0.1372  0.0683 -0.1173
 2787W        W18681  12.608  14.084   0.848  0.0289 -0.0404 -0.2363
 2788W        W18682   5.418   7.482  12.806 -0.0341 -0.1464  0.2096
 2789W        W18683   3.884   6.652   4.486 -0.0078  0.1806 -0.2579
 2790W        W18684  12.972  13.736   3.904 -0.0678 -0.0570 -0.0263
 2791W        W18685   2.876   5.556   1.945  0.1892  0.1517  0.0504
 2792W        W18686  18.113   1.292  13.635 -0.0302  0.3143  0.2163
 2793W        W18687   8.316  13.671   3.029  0.0498  0.0489  0.3204
 2794W        W18688  17.226  15.183   4.020 -0.2182  0.2257 -0.3700
 2795W        W18689   6.515  16.442  13.125 -0.2734  0.0812  0.1807
 2796W        W18690  17.820  15.642   1.385 -0.0902  0.0007 -0.0276
 2797W        W18691  17.627   9.131  10.366 -0.0358 -0.0140  0.0039
 2798W        W18692   9.514   8.482  12.722 -0.3735 -0.2942  0.1220
 2799W        W18693  13.964   7.121  10.494 -0.1858 -0.2154  0.3911
 2800W        W18694   4.695   6.695  10.958 -0.3318  0.1356 -0.0531
 2801W        W18695  14.215  16.058   0.822  0.1742 -0.0968  0.2420
 2802W        W18696   9.241   0.289   4.166  0.0158 -0.0581  0.0278
 2803W        W18697  12.784  14.623  11.118 -0.0954 -0.0838  0.2702
 2804W        W18698   0.566  17.307  11.124 -0.0007 -0.1519 -0.1739
 2805W        W18699  13.464  12.935   2.500  0.1491 -0.3669 -0.3744
 2806W        W18700  16.067  12.805   3.949 -0.0076  0.0421 -0.0090
 2807W        W18701  14.434   5.414   4.411 -0.1585 -0.1601 -0.2110
 2808W        W18702   2.602   0.970   0.741  0.1395  0.0580  0.2465
 2809W        W18703  10.702  18.059  11.105  0.0265 -0.2393  0.2679
 2810W        W18704  10.085  13.939   2.799  0.1449 -0.1084  0.1388
 2811W        W18705  15.675  13.580   2.770 -0.2626  0.1773 -0.0298
 2812W        W18706  10.544  14.825   2.245 -0.0502 -0.0426 -0.1772
 2813W        W18707   8.370  15.771   1.939 -0.1226  0.1520  0.1341
 2814W        W18708  11.775   8.380   1.017 -0.2608  0.0247 -0.0544
 2815W        W18709  13.605  13.493   4.001 -0.2163  0.2823 -0.2320
 2816W        W18710  10.942   2.758   0.157  0.1757  0.1733 -0.1075
 2817W        W18711  13.578  13.164  11.783 -0.2758 -0.1502 -0.0424
 2818W        W18712   5.173   6.312  11.309  0.0801  0.0396  0.0188
 2819W        W18713   5.747  15.787   4.010 -0.3830 -0.3421 -0.0176
 2820W        W18714  16.446   6.479   3.549 -0.0095 -0.0171  0.2862
 2821W        W18715   3.272   9.748   2.193 -0.1351 -0.1611 -0.1042
 2822W        W18716  17.806   5.408   3.697  0.0968  0.0585  0.2096
 2823W        W18717   5.160  17.320   3.633 -0.0528  0.0103 -0.0564
 2824W        W18718   3.433  12.674   1.916 -0.3434  0.0363  0.1053
 2825W        W18719   4.631  11.336  14.195  0.0005  0.0068 -0.0542
 2826W        W18720   1.141  16.914   3.205 -0.1865  0.1090  0.1539
 2827W        W18721   5.484   7.088   4.506 -0.0625 -0.1260  0.0150
 2828W        W18722  15.768  16.598   4.163  0.2153  0.0954 -0.0452
 2829W        W18723   6.485  12.692  12.740  0.0755 -0.0750 -0.1157
 2830W        W18724   3.658   7.140  11.348 -0.1311 -0.0296 -0.0868
 2831W        W18725   8.181  16.020  15.331  0.0039  0.1649 -0.3127
 2832W        W18726   4.074   0.569  12.168 -0.0043 -0.1357 -0.2198
 2833W        W18727  16.508   4.544   2.018 -0.2129 -0.1700 -0.2424
 2834W        W18728  12.304   4.959  12.245 -0.2983 -0.0850  0.1838
 2835W        W18729  16.761   9.824  15.361  0.1307  0.1323 -0.1486
 2836W        W18730  17.434   5.024   9.321  0.1588 -0.0246  0.0513
 2837W        W18731  13.666   0.331  13.547  0.1077  0.2370  0.3487
 2838W        W18732   1.502  13.550  11.698  0.1549 -0.2688  0.0451
 2839W        W18733   9.633   2.704   0.348 -0.0917 -0.4606 -0.1487
 2840W        W18734   3.015  13.566   4.351  0.0568 -0.1959  0.1278
 2841W        W18735  13.911   6.133  14.626 -0.2194  0.1288  0.0560
 2842W        W18736  11.922  11.337  11.150 -0.1126  0.1178 -0.2076
 2843W        W18737   5.011   7.243   2.473 -0.3393  0.1743  0.1325
 2844W        W18738   5.353  10.503   3.576  0.0521 -0.1529 -0.0060
 2845W        W18739  11.303   3.521  15.305  0.0288 -0.2043  0.3704
 2846W        W18740   2.467  11.780   0.124 -0.1579 -0.1064  0.3746
 2847W        W18741  10.506   6.339   0.924  0.0778  0.0942 -0.0331
 2848W        W18742   6.579  18.316   3.105  0.1941 -0.1948 -0.3470
 2849W        W18743   4.874  13.936   4.905 -0.2669 -0.1270  0.2719
 2850W        W18744   7.133  15.231   2.958  0.0648 -0.3008  0.1371
 2851W        W18745   3.151   1.645   2.935 -0.2369  0.0788  0.0802
 2852W        W18746   2.037   3.370   0.836 -0.0686 -0.3786 -0.2010
 2853W        W18747  14.353   6.808   1.652  0.0635  0.1042  0.0358
 2854W        W18748   5.669   7.758   4.077 -0.1869 -0.2947  0.0333
 2855W        W18749  14.726   5.286   2.735  0.0042 -0.1383 -0.0203
 2856W        W18750   8.308   8.238   6.028  0.0618  0.1743  0.0485
 2857W        W18751   1.274   5.164   3.181  0.2595  0.2032 -0.0025
 2858W        W18752   1.632  11.310  12.489 -0.0363 -0.0313  0.3092
 2859W        W18753  18.179  16.793  13.236 -0.0165 -0.2272  0.0848
 2860W        W18754   7.916   5.771   4.517 -0.0547  0.1366 -0.2302
 2861W        W18755   9.880   8.983   1.607  0.1253 -0.0082 -0.3352
 2862W        W18756   8.464   0.986   0.203  0.3924  0.2172 -0.1403
 2863W        W18757   3.633   9.108   1.042 -0.1084 -0.1992  0.1391
 2864W        W18758  16.927  18.451   4.843 -0.1221 -0.0928  0.0715
 2865W        W18759   4.435   7.896   4.475 -0.0196  0.1193  0.3209
 2866W        W18760  17.404  10.504  14.840  0.1033  0.1207 -0.0733
 2867W        W18761   6.504  17.577  15.046 -0.1543 -0.0638 -0.0007
 2868W        W18762   6.181  11.456  15.326 -0.1179 -0.0333  0.1730
 2869W        W18763  10.395  16.061  11.743  0.3299  0.0916 -0.1071
 2870W        W18764   2.633   8.799  13.061  0.1661 -0.0542  0.1035
 2871W        W18765   5.281  11.633   3.368  0.2144  0.0717 -0.0198
 2872W        W18766   3.527   2.662  10.676 -0.3730  0.5232  0.2716
 2873W        W18767   9.842   1.022  13.927  0.2995  0.1834 -0.0492
 2874W        W18768   4.340  15.338   5.478  0.1667 -0.3294 -0.0909
 2875W        W18769   1.370   4.242   4.924 -0.1419 -0.0713  0.1864
 2876W        W18770   8.739   7.673   1.990 -0.0758 -0.1994  0.0608
 2877W        W18771  10.290  17.668  13.085  0.1773  0.1307 -0.1249
 2878W        W18772   6.765  17.179  12.747  0.1256 -0.1012 -0.1068
 2879W        W18773   4.402  15.016  14.912  0.2648  0.0554 -0.0411
 2880W        W18774   2.793  10.820   0.039 -0.1460 -0.0086  0.0631
 2881W        W18775   8.337  11.185  12.634  0.1300  0.0698  0.2308
 2882W        W18776   6.724   1.939  11.978 -0.1371 -0.1970  0.0742
 2883W        W18777   6.364  15.245   4.279  0.2271 -0.2072 -0.0413
 2884W        W18778  14.935   0.969  13.430 -0.1028  0.0601 -0.1294
 2885W        W18779  18.191  16.514   2.902 -0.0470  0.3776 -0.0192
 2886W        W18780   5.741   5.907   5.080  0.3171  0.0382 -0.0323
 2887W        W18781   3.198  10.758   5.083 -0.0124  0.1395  0.2055
 2888W        W18782   5.621  12.781   2.340 -0.0566  0.0619  0.1382
 2889W        W18783   0.269   3.643  11.572 -0.0152 -0.2950  0.2449
 2890W        W18784   3.396  11.716   3.091 -0.1523 -0.1358 -0.1780
 2891W        W18785   6.060  11.285   2.758  0.1814  0.1691 -0.2647
 2892W        W18786  12.669   3.434  11.774 -0.2381 -0.1097  0.3249
 2893W        W18787   8.058   1.265  14.773 -0.1332 -0.3101  0.1495
 2894W        W18788  17.110   0.563  12.809 -0.0285 -0.0276 -0.2891
 2895W        W18789  13.059  12.535  11.406 -0.2117  0.0113  0.1776
 2896W        W18790  15.145  12.668  15.471  0.0046  0.3036  0.1268
 2897W        W18791  11.478   2.635  13.710  0.1122 -0.1769 -0.0261
 2898W        W18792  16.500  16.015   1.107  0.2344 -0.0935  0.1849
 2899W        W18793   9.471   7.281  14.931  0.0499 -0.0147 -0.2340
 2900W        W18794   1.918  18.096   1.980  0.2847 -0.1315 -0.2983
 2901W        W18795   0.396  13.182   3.051  0.0114 -0.1183 -0.2185
 2902W        W18796  10.747   4.553   1.578  0.1573 -0.0778 -0.0375
 2903W        W18797   8.405   8.458  13.775  0.0656 -0.1055 -0.0667
 2904W        W18798   3.300   8.363   5.385 -0.2427  0.0442  0.1294
 2905W        W18799   3.963  17.008   3.812  0.2678 -0.3756 -0.2603
 2906W        W18800   3.947   5.104  11.516 -0.0839  0.2355  0.1194
 2907W        W18801   9.557  11.268  11.201 -0.0338 -0.2155  0.1178
 2908W        W18802  16.972  12.110   3.303  0.0058  0.2037 -0.0898
 2909W        W18803   7.019   3.227  13.367 -0.1415 -0.0839 -0.1485
 2910W        W18804  11.420  18.652   4.869 -0.0578 -0.1187 -0.1142
 2911W        W18805  14.521   3.049   3.440 -0.1530 -0.2278 -0.2638
 2912W        W18806  11.393  12.397  12.241 -0.0784  0.1373 -0.2248
 2913W        W18807  17.009  13.153  14.771 -0.1980 -0.3085  0.0662
 2914W        W18808   3.856  16.128   3.012  0.0417 -0.4102  0.1936
 2915W        W18809   8.561   2.806   4.412 -0.0081 -0.1215  0.1072
 2916W        W18810  14.370  12.991  13.858 -0.0974  0.1247 -0.4561
 2917W        W18811   6.281  14.445   0.483  0.0533 -0.1629 -0.3228
 2918W        W18812   1.922   9.345  10.338  0.2317 -0.0215 -0.0894
 2919W        W18813   0.283  11.869  11.136  0.1435 -0.1338 -0.1341
 2920W        W18814   9.152   6.891   2.385 -0.0839 -0.2301  0.3559
 2921W        W18815   6.802   1.499  11.318 -0.1661 -0.0916 -0.0395
 2922W        W18816  18.000  13.905   3.987  0.1466 -0.0546 -0.1477
 2923W        W18817   4.545   2.655  14.254  0.0465 -0.0365 -0.2218
 2924W        W18818   0.571  10.056   3.407 -0.2882 -0.3383  0.1071
 2925W        W18819   4.390  16.148   1.298  0.1360  0.1263  0.0449
 2926W        W18820   9.885   9.655   5.421  0.0778  0.2618  0.0839
 2927W        W18821  17.532   5.681   1.225 -0.0558  0.2990  0.0207
 2928W        W18822  17.965   1.244   4.870 -0.4023 -0.1826 -0.0316
 2929W        W18823  16.790   2.920  15.424 -0.2869 -0.0266  0.0404
 2930W        W18824   5.620  15.513   4.721  0.1137 -0.0337 -0.2559
 2931W        W18825   7.317  11.066  13.485  0.1215 -0.1182 -0.1528
 2932W        W18826  13.892   1.095   5.142  0.1631 -0.2675  0.2669
 2933W        W18827   6.757  13.220   0.806 -0.4132 -0.2971  0.3937
 2934W        W18828  10.513   8.618  11.803 -0.1135  0.2146  0.0179
 2935W        W18829  11.007  17.912  14.893 -0.1087 -0.2049  0.1081
 2936W        W18830   3.331   9.692  13.897 -0.0593 -0.1092 -0.1625
 2937W        W18831   5.952   7.806   4.988 -0.2549 -0.1222  0.0304
 2938W        W18832   1.088  17.654   0.234  0.0520  0.4461  0.3750
 2939W        W18833  13.139   9.302   3.127  0.1640  0.2124 -0.0632
 2940W        W18834  16.123   1.556  12.483 -0.0955  0.2639  0.2766
 2941W        W18835  12.540  17.456  15.481 -0.0148  0.0134 -0.2261
 2942W        W18836  11.132   5.959   3.292 -0.0006  0.1608  0.2703
 2943W        W18837  10.043   6.264  15.301  0.2587  0.2108  0.0044
 2944W        W18838  18.631  11.751   1.772  0.1677  0.0230 -0.0888
 2945W        W18839   2.343  16.384   4.884  0.1390  0.2438 -0.0557
 2946W        W18840   6.001   1.988   5.912 -0.0519  0.4103 -0.2471
 2947W        W18841  10.804   9.896  13.999  0.2602  0.1432  0.0209
 2948W        W18842   1.283   1.185   1.511 -0.0409 -0.1081 -0.2156
 2949W        W18843   2.052   2.953   1.168 -0.0547 -0.2082  0.2660
 2950W        W18844  14.519  18.095  13.347 -0.1014  0.1970  0.0357
 2951W        W18845   5.161  11.641  13.536 -0.0134  0.4099  0.0577
 2952W        W18846   8.352  10.641   1.408  0.0891  0.1861 -0.2878
 2953W        W18847  15.529   6.600  12.931  0.1097  0.3077  0.1368
 2954W        W18848  16.652  11.970   3.664  0.1307 -0.1442  0.2732
 2955W        W18849  14.283  12.283  15.479 -0.0837 -0.1394  0.2457
 2956W        W18850   0.389   1.856  14.201  0.0960 -0.1659  0.0334
 2957W        W18851   9.191  11.873   1.998 -0.1550 -0.2378  0.0577
 2958W        W18852  10.130  14.287  11.968 -0.0328  0.2039 -0.1589
 2959W        W18853  14.620  15.714   1.805  0.2784  0.1547 -0.0129
 2960W        W18854   3.409  16.577  13.764  0.2474  0.2249 -0.0353
 2961W        W18855   2.492   1.956   2.844 -0.0649 -0.1027 -0.4750
 2962W        W18856   1.229   6.640  14.782  0.1531  0.1119 -0.1285
 2963W        W18857  15.748   4.396  13.551  0.3691 -0.0373 -0.1898
 2964W        W18858   7.897  11.148  15.236  0.0035  0.0477 -0.0130
 2965W        W18859  14.141  10.765  12.820  0.1178  0.0469  0.3177
 2966W        W18860   7.142  15.040   1.939  0.0650 -0.3596 -0.0160
 2967W        W18861   5.145   0.653   4.161 -0.2129 -0.1461 -0.0493
 2968W        W18862  15.330  13.931  12.412 -0.2175 -0.1930 -0.0390
 2969W        W18863   2.200   1.206  13.108  0.1613  0.0036  0.2066
 2970W        W18864  15.517   9.187   2.091 -0.0539 -0.0969  0.0068
 2971W        W18865  11.786  14.521  13.558  0.4294 -0.0884 -0.1948
 2972W        W18866  10.199  17.198  13.992 -0.0195 -0.4235 -0.3495
 2973W        W18867   5.071  13.047   2.615  0.0408 -0.1142  0.1915
 2974W        W18868  16.668  10.440   9.916  0.2009  0.0645 -0.2821
 2975W        W18869   7.246   2.752   5.925 -0.1456  0.0705  0.0611
 2976W        W18870   4.562  17.216  10.951 -0.1801  0.0384 -0.1556
 2977W        W18871   2.273  11.735  13.218 -0.0016 -0.1743  0.2056
 2978W        W18872   2.781   2.725  13.829  0.1487  0.0980 -0.1714
 2979W        W18873  14.145  17.101   0.731 -0.0871  0.1249 -0.2694
 2980W        W18874  10.594  17.086   4.702 -0.0884  0.1312 -0.0097
 2981W        W18875  18.550   5.653  11.359 -0.0102  0.3832 -0.0601
 2982W        W18876   5.812   6.706   4.621 -0.0311 -0.2502  0.0950
 2983W        W18877   4.265   9.461  14.383 -0.4152  0.1444 -0.2203
 2984W        W18878  13.325  14.696   1.837 -0.0924 -0.0114  0.2132
 2985W        W18879   1.119  17.616  14.805  0.2026  0.0169  0.0108
 2986W        W18880   8.667   5.894  14.911  0.0552 -0.1422 -0.2872
 2987W        W18881  11.411   8.089   5.428  0.0441 -0.0411 -0.2135
 2988W        W18882  12.711  13.829  10.204 -0.2279  0.3259  0.1732
 2989W        W18883   4.573  18.002  12.408 -0.2531  0.0640 -0.1804
 2990W        W18884  15.804   8.901  10.640 -0.1155 -0.0349 -0.0326
 2991W        W18885  16.990  10.493   2.933 -0.2018 -0.0396 -0.3247
 2992W        W18886   3.253  13.030   2.449  0.1025  0.0064 -0.0201
 2993W        W18887  18.308  11.844  14.435  0.1523 -0.1049  0.2514
 2994W        W18888   4.995   8.215  13.442  0.2825  0.1630 -0.0635
 2995W        W18889   4.030   7.191  14.263  0.2144 -0.2696  0.1342
 2996W        W18890   9.850  10.791   0.949  0.2878  0.0308  0.0275
 2997W        W18891   7.329  14.031  13.420  0.0434 -0.1027 -0.1551
 2998W        W18892  18.834   4.350   1.883  0.0805  0.0078 -0.0037
 2999W        W18893   2.801  17.259   4.385  0.2015 -0.2666 -0.2469
 3000W        W18894   2.587   3.671   4.272 -0.2520  0.0857 -0.1347
 3001W        W18895  15.143  16.803  12.829 -0.1252 -0.1261 -0.0018
 3002W        W18896   1.518  14.785   0.799  0.2943  0.0023 -0.3153
 3003W        W18897  17.893   8.250  12.176 -0.1387 -0.3088 -0.0628
 3004W        W18898   0.876   0.531   0.797  0.0125  0.0452 -0.2024
 3005W        W18899  12.636  13.671   1.139 -0.0654  0.1435  0.1746
 3006W        W18900  18.795   1.443  13.280  0.1380  0.1367 -0.0310
 3007W        W18901  17.196  14.311  11.462  0.0454  0.3258 -0.1165
 3008W        W18902   9.796   6.295   4.595  0.3491 -0.0600  0.1759
 3009W        W18903  14.474  10.213  11.411  0.0281 -0.1178  0.1237
 3010W        W18904  15.117  14.189  11.016 -0.3311 -0.1481  0.0391
 3011W        W18905  15.806   9.300  10.398 -0.0095 -0.0709 -0.4486
 3012W        W18906   6.013  14.067  14.095 -0.1033 -0.3029  0.0878
 3013W        W18907   2.665  17.813  12.638  0.0428 -0.0050 -0.0633
 3014W        W18908  11.525  17.702   0.115  0.1220  0.1926  0.0328
 3015W        W18909  10.586  18.369   2.114 -0.1468  0.0789 -0.1433
 3016W        W18910  17.572  12.020   1.629 -0.0523 -0.0898  0.0947
 3017W        W18911  14.131   9.004   1.993  0.1489  0.4001  0.0939
 3018W        W18912   4.003  18.466   0.547  0.0328 -0.2862 -0.1415
 3019W        W18913   5.099   4.844   0.344 -0.0467  0.2130  0.0871
 3020W        W18914   4.898   3.350   3.471  0.0363  0.2385  0.0964
 3021W        W18915  16.924   1.683  15.139  0.2607 -0.0776 -0.2835
 3022W        W18916   9.822  14.070   4.109  0.2491 -0.0983  0.2885
 3023W        W18917  10.690  11.375  11.471  0.0941 -0.3753  0.0591
 3024W        W18918   8.192  15.242   1.797 -0.1770 -0.1035  0.3681
 3025W        W18919  10.057   4.111  13.231  0.0324  0.0675  0.1488
 3026W        W18920   1.180  16.554  13.037  0.0189 -0.2753 -0.2225
 3027W        W18921  16.189   8.793   2.606  0.1482  0.0326  0.5661
 3028W        W18922  11.512  11.890   3.923  0.1615  0.3179 -0.1957
 3029W        W18923  14.196   7.645  13.515  0.3581 -0.0930 -0.3383
 3030W        W18924  18.439   3.212   4.567  0.0476 -0.1449 -0.1907
 3031W        W18925  17.141   3.283   2.543  0.1209  0.4241 -0.0882
 3032W        W18926  11.497  11.644  13.646 -0.2746  0.0909  0.2201
 3033W        W18927  14.359   1.206   2.132  0.0850  0.3099 -0.0616
 3034W        W18928  12.741  11.994   3.434  0.0236 -0.0430 -0.0879
 3035W        W18929  12.251  16.174   0.250 -0.0264  0.0783  0.0367
 3036W        W18930   3.934   9.550  11.577  0.1142 -0.0530  0.0223
 3037W        W18931   7.731  16.206  14.525 -0.0142 -0.1993  0.1178
 3038W        W18932   5.983  10.995   0.792  0.1210 -0.1349 -0.1936
 3039W        W18933  16.317  10.217  14.120 -0.0589 -0.3489 -0.1088
 3040W        W18934  10.821   6.894   1.580  0.3164  0.0893 -0.1757
 3041W        W18935   1.780   6.085  13.921  0.2049 -0.2101 -0.0867
 3042W        W18936  16.191  10.456   5.007  0.1238  0.0158  0.0224
 3043W        W18937  17.104   5.898  12.820 -0.2858  0.3168 -0.1526
 3044W        W18938   2.982   7.323   4.906  0.0585 -0.2116 -0.0350
 3045W        W18939  10.896   0.973  15.372 -0.1137  0.0221 -0.2235
 3046W        W18940   5.875  11.846  15.427  0.2875 -0.0485  0.2320
 3047W        W18941  16.360   7.261   2.895  0.2955  0.1128  0.1117
 3048W        W18942   5.423   1.701   1.356 -0.1117 -0.1844 -0.2228
 3049W        W18943  17.768  17.782   3.962  0.1382 -0.0949 -0.0451
 3050W        W18944   2.428   4.003  12.338  0.0119 -0.1386 -0.2366
 3051W        W18945  15.563  15.671  11.503  0.1396  0.0435 -0.3870
 3052W        W18946  14.149   9.113  12.071 -0.0839  0.1934  0.1635
 3053W        W18947   3.509  18.557  13.163 -0.0089  0.1639  0.2938
 3054W        W18948   4.684   1.775  11.891  0.1154  0.0093 -0.0101
 3055W        W18949   7.413  13.008   1.288 -0.0363  0.1885 -0.1610
 3056W        W18950   5.980  12.456   2.498 -0.2521  0.2176 -0.2183
 3057W        W18951   3.728   6.347   2.632  0.1029  0.2657 -0.0459
 3058W        W18952   0.288  11.045   4.332  0.2955 -0.0730  0.3053
 3059W        W18953  16.402   3.607   3.944 -0.2825  0.2750  0.0430
 3060W        W18954   7.989  18.791   0.221  0.1384 -0.0815  0.2221
 3061W        W18955   8.686  18.061   1.046  0.1224  0.0463  0.0636
 3062W        W18956   4.851  10.611  11.687 -0.0582  0.2301 -0.0252
 3063W        W18957   3.326  17.202  12.985  0.2347  0.1579  0.0181
 3064W        W18958   0.994   9.484   4.026  0.2437 -0.1777  0.3200
 3065W        W18959  18.495   7.553   1.095  0.0032 -0.0863 -0.0784
 3066W        W18960  14.505   2.233   2.214  0.0581 -0.1763 -0.2885
 3067W        W18961   2.363   9.029  13.534  0.2671  0.2971  0.0629
 3068W        W18962  10.145  15.065  14.070 -0.2721 -0.2314  0.3200
 3069W        W18963   9.307   9.873   4.771 -0.3414  0.0930  0.3136
 3070W        W18964  16.573   1.618   0.716 -0.0339  0.2665  0.1721
 3071W        W18965  12.994   1.888   4.867  0.2280 -0.0535 -0.2952
 3072W        W18966  14.465  15.985  12.250  0.2363 -0.0626 -0.1669
 3073W        W18967   5.467  12.340   2.615  0.0061  0.0746  0.1414
 3074W        W18968  12.345  11.650   5.448  0.1906 -0.1459  0.2914
 3075W        W18969   8.696  12.559   4.821  0.1559 -0.1461  0.1167
 3076W        W18970  11.099  11.424  13.306 -0.0265 -0.2943  0.0765
 3077W        W18971  11.324   6.956  10.937 -0.1021 -0.3011 -0.2983
 3078W        W18972   1.982   5.063  14.831 -0.4251  0.2712 -0.1668
 3079W        W18973   3.051   1.748  10.072  0.0687  0.0482  0.2134
 3080W        W18974  12.341   0.387  11.815  0.0846 -0.1229  0.0922
 3081W        W18975   2.983   8.897  13.446  0.0131 -0.0568  0.2403
 3082W        W18976   8.231  14.149  15.234  0.1348  0.1030 -0.2859
 3083W        W18977  14.572   8.954  11.348  0.2568  0.0927 -0.4743
 3084W        W18978  10.967   1.517   1.065  0.1341 -0.0098  0.0691
 3085W        W18979  10.787   0.466   0.947 -0.1280  0.1897 -0.0556
 3086W        W18980  13.535   5.076   3.272  0.0867  0.0426 -0.2932
 3087W        W18981   1.447  13.244   4.225 -0.1262  0.2337 -0.1644
 3088W        W18982   7.164   9.682   3.037 -0.1764 -0.0679  0.3179
 3089W        W18983   1.320  11.373  14.387  0.0924 -0.2643 -0.1671
 3090W        W18984  16.308   0.867   4.551 -0.0441  0.0662  0.1877
 3091W        W18985  11.519  15.778   0.831  0.0433 -0.0017  0.4093
 3092W        W18986   0.278   6.054  12.777  0.0415  0.0553 -0.1227
 3093W        W18987   8.475   1.517   2.352 -0.0307 -0.0042  0.2192
 3094W        W18988  14.142  17.318   5.156  0.1662  0.1680 -0.0934
 3095W        W18989  17.843   4.260  15.059 -0.2713  0.1189 -0.3410
 3096W        W18990  11.897   8.969  10.972 -0.1542  0.0119 -0.1521
 3097W        W18991   2.025   6.382  14.276 -0.0763 -0.3077 -0.1606
 3098W        W18992   3.296  12.478  14.609 -0.0019 -0.0174  0.0819
 3099W        W18993  14.136   8.574   3.271  0.0304 -0.3292 -0.2125
 3100W        W18994   8.013  11.869   0.829  0.2153 -0.4705  0.1059
 3101W        W18995   5.959   3.900   1.103 -0.1079  0.1766 -0.0187
 3102W        W18996   1.612   5.177   2.819 -0.0596  0.2838  0.1606
 3103W        W18997  10.407   5.908  10.935  0.1986 -0.1389 -0.0067
 3104W        W18998   5.706  18.859   4.696 -0.2673 -0.0790 -0.0758
 3105W        W18999  14.728  13.600   3.996 -0.1608 -0.2111  0.0658
 3106W        W19000  11.574  18.509  15.189  0.1744  0.1724  0.0447
 3107W        W19001   7.340   1.506   4.008  0.1608  0.0032 -0.2038
 3108W        W19002  12.161   4.853   2.209  0.0966  0.2571 -0.1200
 3109W        W19003  13.913   0.494  12.993 -0.2551  0.1395 -0.2415
 3110W        W19004   3.662   2.099   1.352  0.2825  0.2125  0.2338
 3111W        W19005   5.364   0.070   2.351 -0.0342  0.2204  0.0534
 3112W        W19006   3.264   4.937   1.074 -0.1539  0.2442 -0.1630
 3113W        W19007   2.745  10.507   5.241  0.1120  0.2242 -0.2189
 3114W        W19008  11.106  16.344   3.636 -0.1291 -0.1227 -0.0681
 3115W        W19009   2.293  10.398  13.205  0.0151 -0.2423 -0.1495
 3116W        W19010  12.982  16.796  15.374  0.0678 -0.1222  0.1914
 3117W        W19011  11.988   1.559   3.372  0.1612  0.0703 -0.3619
 3118W        W19012  11.399  17.747   3.457  0.0976  0.0455 -0.2310
 3119W        W19013   9.688  12.775  13.909  0.2270  0.0227 -0.1701
 3120W        W19014  14.529  10.912   1.014  0.1562  0.1464  0.0586
 3121W        W19015  10.212   3.646  15.270 -0.1188 -0.1951  0.0772
 3122W        W19016   2.570  15.593  11.080 -0.0931  0.2761  0.2297
 3123W        W19017   8.844  14.437  11.050 -0.1483 -0.2556  0.6131
 3124W        W19018  10.207  10.321   5.075 -0.1094 -0.2420  0.3223
 3125W        W19019   8.632  10.076   5.388  0.0540 -0.0166  0.2117
 3126W        W19020  11.430  10.098   0.471 -0.1229 -0.0327  0.1760
 3127W        W19021  17.162   7.165  14.954  0.2312  0.1286  0.0390
 3128W        W19022   1.895  18.132  10.025  0.0875 -0.0494 -0.0692
 3129W        W19023  13.796   4.621  10.789 -0.0673 -0.1024 -0.2640
 3130W        W19024  17.132  17.962   2.652 -0.1530 -0.1977  0.0612
 3131W        W19025   0.236   8.642   3.233  0.0402 -0.2706 -0.1464
 3132W        W19026  12.588  17.438  13.693  0.1104  0.0537  0.2410
 3133W        W19027  10.732  10.912  11.423  0.1822 -0.2917 -0.1673
 3134W        W19028   5.832  16.927  12.199 -0.1928 -0.3914 -0.0478
 3135W        W19029   3.754   1.772   2.736 -0.0416 -0.0957  0.0001
 3136W        W19030   6.815   7.730  11.696 -0.1363  0.1646  0.0018
 3137W        W19031   9.018  10.799  11.372 -0.3748 -0.2830 -0.0642
 3138W        W19032   8.036   4.610   5.184 -0.2153 -0.0388  0.0137
 3139W        W19033   8.481   8.128   4.310 -0.3426 -0.1619  0.2397
 3140W        W19034  16.662   7.699   1.977  0.0629 -0.1248 -0.1906
 3141W        W19035   7.064   8.959   4.955  0.3470 -0.2512  0.1716
 3142W        W19036  18.039   8.690   4.596 -0.2938  0.2045 -0.3731
 3143W        W19037  14.088   3.446  13.586 -0.3443  0.1609  0.0307
 3144W        W19038   5.989   3.805  10.858  0.1352  0.0645 -0.0227
 3145W        W19039   4.181   2.227   3.147 -0.2139  0.2938  0.0837
 3146W        W19040   9.011   7.683   1.519 -0.0819  0.0853  0.0158
 3147W        W19041  12.558   1.284  15.204 -0.0843  0.1563  0.3886
 3148W        W19042   5.780   5.047   1.116 -0.0129 -0.3116  0.1856
 3149W        W19043  18.697  10.106   0.487 -0.2097  0.3191  0.2263
 3150W        W19044   4.362   8.754  11.532  0.0119  0.2893  0.0400
 3151W        W19045  17.029   0.451   9.971 -0.0090  0.1360 -0.1377
 3152W        W19046   0.683   2.373   3.988 -0.1037 -0.0837 -0.1025
 3153W        W19047  18.214   9.125   2.606 -0.1324  0.0070  0.0176
 3154W        W19048   7.671   2.349   0.144 -0.1792  0.0542 -0.1459
 3155W        W19049  17.499   8.779  12.890  0.3188 -0.0684 -0.1707
 3156W        W19050   3.585  14.245   0.386 -0.1568  0.3450  0.0504
 3157W        W19051  16.625  14.006  11.598 -0.0094 -0.1126 -0.1454
 3158W        W19052  14.168   9.923  11.831  0.3653  0.0530 -0.1208
 3159W        W19053   8.540  10.589   2.089 -0.0369  0.0895  0.1907
 3160W        W19054   2.970  12.697   1.614  0.0181  0.3023 -0.0210
 3161W        W19055   3.387  18.358  14.989  0.1407 -0.1320 -0.3289
 3162W        W19056  10.961   5.552  13.472 -0.0412 -0.0758  0.2430
 3163W        W19057   8.288   7.934  15.291  0.1230  0.1129 -0.1394
 3164W        W19058   6.221   3.916  13.586 -0.2578 -0.1989 -0.2029
 3165W        W19059  12.253   4.713   3.878  0.0387 -0.1421  0.0167
 3166W        W19060   1.640  14.552   3.952  0.2659  0.1206 -0.0119
 3167W        W19061   8.846   1.644  12.460 -0.1822 -0.2415 -0.0140
 3168W        W19062  15.724   4.940   1.816 -0.0256  0.0828 -0.0784
 3169W        W19063  11.875   0.644   0.938 -0.0655 -0.0048 -0.2935
 3170W        W19064  11.087  11.243   3.351 -0.1337 -0.3616 -0.2937
 3171W        W19065   5.598  15.844   3.043  0.0306 -0.1631 -0.4617
 3172W        W19066  10.971   7.163   4.321 -0.1372  0.2285  0.3998
 3173W        W19067  11.767  18.221   4.025 -0.2678 -0.1084  0.0568
 3174W        W19068  10.777  14.858   2.815  0.0542  0.1973  0.3734
 3175W        W19069   3.026   5.757  12.038 -0.1536 -0.0410 -0.0836
 3176W        W19070   8.591  16.396  14.714 -0.0113 -0.0120  0.2945
 3177W        W19071   9.800  18.151  11.603  0.2779  0.0467 -0.1277
 3178W        W19072   5.091   0.434   2.592  0.2422  0.2836 -0.0762
 3179W        W19073   4.579  18.035   5.531  0.2247  0.4165  0.2269
 3180W        W19074   9.357   3.579  11.110 -0.1592 -0.2808  0.2057
 3181W        W19075   9.065  13.849  13.162 -0.1173 -0.0651 -0.2587
 3182W        W19076  16.013   5.223  13.702  0.1353  0.0770 -0.0162
 3183W        W19077  10.612  12.690   3.775  0.3623 -0.0663 -0.2055
 3184W        W19078  15.564  12.320  13.055  0.0059  0.2055  0.1420
 3185W        W19079  12.189   7.482  11.062 -0.0229 -0.0710 -0.0875
 3186W        W19080  14.168  14.334   3.396  0.0206  0.2408 -0.0297
 3187W        W19081  15.182  18.041  13.238 -0.0649 -0.1088  0.0920
 3188W        W19082   4.335  12.379   9.871  0.0524  0.0806 -0.2287
 3189W        W19083   3.145   9.863   3.643 -0.2710  0.0654  0.0920
 3190W        W19084  17.478   1.237  12.814  0.2232  0.1902  0.2869
 3191W        W19085   1.760  14.018  12.569 -0.1227 -0.1608  0.1725
 3192W        W19086   4.518  13.623  13.934  0.1910 -0.0777 -0.2693
 3193W        W19087   6.228   1.540  14.270 -0.1356 -0.1208 -0.2724
 3194W        W19088  17.950   9.760   1.035  0.0434  0.2140 -0.1722
 3195W        W19089   1.042  12.370   4.051 -0.4672  0.1263  0.1041
 3196W        W19090   7.022  10.985   0.891  0.0495  0.0521  0.2013
 3197W        W19091  14.541  17.876   3.779 -0.2782 -0.2784 -0.0917
 3198W        W19092  15.094  11.412  14.648 -0.0816 -0.2225 -0.1520
 3199W        W19093   6.409  16.001  12.184 -0.2942  0.0709  0.0751
 3200W        W19094   7.629   8.131  14.527 -0.1292  0.1290 -0.0750
 3201W        W19095  16.623  13.346   3.593 -0.1964  0.0621 -0.2352
 3202W        W19096  17.826  10.875   1.787  0.0730  0.1471 -0.0754
 3203W        W19097  13.580  10.307  12.140  0.0895 -0.0859  0.2218
 3204W        W19098   5.635   6.211  13.192  0.0804 -0.1029 -0.0248
 3205W        W19099   1.330  11.170  10.869 -0.0418 -0.4709 -0.0505
 3206W        W19100  13.556  15.566   2.939 -0.0600  0.1023 -0.2073
 3207W        W19101   8.800  15.414  11.947 -0.0157  0.2795  0.1334
 3208W        W19102   9.893   0.401  12.428  0.0622  0.1484  0.1461
 3209W        W19103  16.775  12.230  10.971 -0.1655 -0.1410  0.1252
 3210W        W19104  17.970  13.077  14.810 -0.2643  0.1477 -0.0970
 3211W        W19105  11.600  12.989  13.177 -0.0033 -0.2147  0.1309
 3212W        W19106  12.052   8.813  11.472 -0.3493  0.0828  0.0307
 3213W        W19107   0.191   2.410  13.353  0.1489  0.0594 -0.1482
 3214W        W19108   8.588   1.304  10.256  0.0271  0.1226 -0.0986
 3215W        W19109   9.040   6.359   2.661  0.3240 -0.0438  0.0568
 3216W        W19110  14.832   3.452  10.679  0.1792  0.2645  0.2060
 3217W        W19111   2.493   7.024   5.549  0.0169 -0.0002 -0.2832
 3218W        W19112   9.239   3.473  12.553 -0.3167 -0.0510  0.3268
 3219W        W19113   0.340   7.391  15.476  0.1793  0.1095 -0.0605
 3220W        W19114  11.746   0.422  11.431 -0.2346 -0.1655  0.1049
 3221W        W19115   1.965  13.386   2.854 -0.0994 -0.0778  0.2359
 3222W        W19116  12.168   7.235  12.655  0.1504  0.3079 -0.0782
 3223W        W19117   4.638   0.431   3.389  0.1303  0.1492  0.1008
 3224W        W19118  11.134  14.316  12.186 -0.1769  0.0171 -0.0415
 3225W        W19119   8.299  13.907  10.796  0.0164  0.4216  0.2130
 3226W        W19120   7.060   3.006  14.225 -0.0122 -0.0014 -0.2428
 3227W        W19121   3.728   1.993  11.473 -0.3210  0.3092  0.1693
 3228W        W19122   2.041   1.290  14.660  0.0933  0.3257 -0.1708
 3229W        W19123   7.043  18.534  12.822 -0.0754 -0.0893  0.3083
 3230W        W19124   8.647  10.977  14.000  0.3038  0.0766 -0.2057
 3231W        W19125  15.260   3.175   4.041  0.1711 -0.2213  0.2365
 3232W        W19126  13.072   0.276   2.827  0.3216 -0.1796  0.1520
 3233W        W19127  14.895  10.194  15.114 -0.1429 -0.1191 -0.1637
 3234W        W19128  13.500  17.382  12.421 -0.4285  0.0158  0.2348
 3235W        W19129   5.038  17.598  12.060  0.0958 -0.1638  0.1514
 3236W        W19130  18.530  15.228   3.947 -0.0731 -0.3451  0.3668
 3237W        W19131   9.383   8.064   3.817  0.1534  0.2775  0.1259
 3238W        W19132   5.558  10.752   2.543 -0.0085 -0.1132 -0.0338
 3239W        W19133   2.295  18.710  11.942  0.0315 -0.2824 -0.2354
 3240W        W19134   9.732   7.996   2.975 -0.2074 -0.0851  0.1076
 3241W        W19135  13.443  14.884  14.122 -0.2510  0.0481  0.1542
 3242W        W19136   7.664   7.366   0.275 -0.4016 -0.0648  0.1214
 3243W        W19137   1.615   4.503   2.129 -0.2077 -0.0113  0.0007
 3244W        W19138  17.170   3.048   0.315 -0.0554  0.1068  0.3930
 3245W        W19139   7.421   8.619   1.272 -0.5063  0.3013 -0.3191
 3246W        W19140  18.619   9.491  14.283 -0.2008  0.2365 -0.1917
 3247W        W19141   8.492   7.815  11.178  0.2667 -0.5076 -0.0685
 3248W        W19142  14.488  16.816   3.833 -0.2720 -0.1783 -0.1729
 3249W        W19143  16.607   3.149   1.243 -0.1847  0.0362  0.1468
 3250W        W19144   6.226   0.652  15.302 -0.4688 -0.4196  0.1546
 3251W        W19145  11.855   3.479  13.304  0.0433  0.0559  0.0795
 3252W        W19146   9.594  18.877  15.490 -0.1681 -0.1893 -0.3156
 3253W        W19147   6.648   0.741   2.818  0.1445  0.1529 -0.3602
 3254W        W19148  16.542  10.796   0.684 -0.1720 -0.0939 -0.0892
 3255W        W19149   2.652   4.392   4.467 -0.0458  0.1174  0.1900
 3256W        W19150  15.143   2.365   3.039  0.2802  0.0629  0.1277
 3257W        W19151  12.498  13.701   2.096 -0.1306  0.1566  0.0273
 3258W        W19152  12.847  17.653   4.452 -0.1327 -0.0861 -0.0494
 3259W        W19153   4.303   0.281  13.877 -0.2507 -0.1603 -0.0312
 3260W        W19154   2.949   0.771  13.103 -0.0302  0.0275 -0.3843
 3261W        W19155  13.461   9.978   4.205  0.1490 -0.1485 -0.0719
 3262W        W19156  11.691   4.791   5.369  0.3146 -0.2564 -0.3184
 3263W        W19157  17.540   7.433   5.572 -0.4671 -0.1195 -0.0041
 3264W        W19158   2.618  11.370  15.187  0.0301  0.1934 -0.4024
 3265W        W19159   5.505   0.352  14.823 -0.3390 -0.3135  0.4448
 3266W        W19160   4.175   5.671   1.567 -0.3541 -0.0758 -0.2229
 3267W        W19161  17.186   4.411  14.675 -0.0126  0.3550 -0.3000
 3268W        W19162   1.351   5.198  11.416  0.2209  0.1576  0.4162
 3269W        W19163   1.897  16.489  10.828  0.0802 -0.3384  0.1006
 3270W        W19164   3.662   1.307  13.557 -0.2727 -0.1655 -0.1475
 3271W        W19165   1.242   0.838  10.510  0.4333  0.0535 -0.0068
 3272W        W19166   8.136  10.306  11.247  0.1815 -0.1036  0.0565
 3273W        W19167  13.110   6.982   1.897 -0.0619  0.4999  0.1380
 3274W        W19168   2.670   9.688   4.327  0.1410  0.2100 -0.0257
 3275W        W19169  17.332  12.516  12.528 -0.0296 -0.0250 -0.1407
 3276W        W19170  16.551   8.696   0.391  0.2124 -0.0762  0.3104
 3277W        W19171  13.443  14.119  15.182  0.4081  0.0996  0.0874
 3278W        W19172  17.234   6.065   4.076  0.0946  0.3074  0.0752
 3279W        W19173   3.016   7.300  14.174 -0.1340 -0.0944  0.1698
 3280W        W19174   7.071   8.173  12.369  0.0670 -0.2957  0.3392
 3281W        W19175   4.823   0.530  11.043  0.2122 -0.3652  0.0363
 3282W        W19176   3.246  16.754  12.303  0.0389  0.3164  0.1810
 3283W        W19177   6.103   6.141   3.045 -0.0872  0.1632  0.3069
 3284W        W19178  16.228   4.691  15.145  0.3520 -0.1013 -0.1504
 3285W        W19179  10.550  12.076  11.938  0.1287  0.1921  0.1918
 3286W        W19180   9.044   2.216   2.239  0.2802 -0.0642 -0.0987
 3287W        W19181  12.373  17.822  12.732  0.0795  0.0068 -0.0218
 3288W        W19182   4.078   3.727   1.493  0.0634  0.0059  0.3373
 3289W        W19183   0.250  10.287  15.088 -0.2553 -0.0547  0.1306
 3290W        W19184   9.776   6.130   0.920  0.1476  0.2233 -0.3015
 3291W        W19185  17.941   7.502   1.709  0.0605  0.0894  0.1706
 3292W        W19186  15.429   9.051  13.096  0.3620 -0.0012  0.1910
 3293W        W19187   5.031  11.624   2.823 -0.5551 -0.0894 -0.1792
 3294W        W19188   8.320   8.963   3.028  0.3120  0.3718 -0.0823
 3295W        W19189  14.983  12.654   0.893 -0.3953 -0.0337  0.2251
 3296W        W19190  18.126   5.063  14.697  0.0676 -0.0972  0.3231
 3297W        W19191  17.395   3.872   4.580 -0.1917 -0.3252 -0.0772
 3298W        W19192  13.193  15.720   1.624  0.1856  0.0102 -0.1964
 3299W        W19193   2.109  14.728   1.033 -0.0076 -0.0743  0.0031
 3300W        W19194   3.624  17.961  12.615  0.0895 -0.0380  0.3758
 3301W        W19195   4.028   5.048   4.063  0.0031  0.2766 -0.0525
 3302W        W19196   5.728  13.125   0.905 -0.2184 -0.2500  0.0841
 3303W        W19197   8.958  14.511  13.806  0.2758  0.1383  0.0664
 3304W        W19198  11.244   9.261   0.152 -0.1041  0.3311  0.0397
 3305W        W19199   1.480   7.210  10.153  0.0911 -0.0405  0.0861
 3306W        W19200  11.482   5.323   1.788 -0.1379  0.0191  0.0280
 3307W        W19201   8.241  18.150   2.313 -0.0253  0.0980 -0.1255
 3308W        W19202  16.747   7.826  11.672  0.0526  0.1511  0.2001
 3309W        W19203   9.856   6.731   0.357 -0.0073 -0.4718  0.1021
 3310W        W19204  14.072   1.527   0.178  0.0274  0.3974  0.1473
 3311W        W19205  13.205   5.772  12.385 -0.0783 -0.3818 -0.1758
 3312W        W19206   8.903   6.446  10.785  0.1049  0.1713 -0.1256
 3313W        W19207  17.554   3.862  10.479  0.2251  0.1809 -0.2339
 3314W        W19208  10.804   7.791   1.523 -0.1021 -0.1621  0.0842
 3315W        W19209   2.399  11.727  11.301  0.1872  0.1106 -0.1727
 3316W        W19210  12.908  12.889  12.295 -0.1638  0.0657  0.0993
 3317W        W19211  14.157   5.678  14.334  0.0834  0.4228  0.1774
 3318W        W19212   8.333   8.955  12.639  0.0905 -0.2029  0.5691
 3319W        W19213   9.641   0.423   2.355  0.0743  0.1903  0.2193
 3320W        W19214  11.599   3.871   2.065  0.2753 -0.3087 -0.0636
 3321W        W19215   9.620  17.794   0.034 -0.1220  0.2771 -0.0761
 3322W        W19216   1.399   1.151   3.587  0.0088 -0.0926 -0.0412
 3323W        W19217  17.982   6.501  12.823  0.0191 -0.0293 -0.0720
 3324W        W19218  13.222  10.089   1.559 -0.1232  0.1716 -0.2392
 3325W        W19219   3.793   3.817  15.141  0.1531 -0.0207  0.1279
 3326W        W19220   3.512   7.275  12.747  0.1043 -0.1842  0.1084
 3327W        W19221   7.574  11.196   0.950 -0.3016 -0.0493 -0.2766
 3328W        W19222  13.057  17.216  13.760 -0.1947 -0.1689  0.0536
 3329W        W19223  15.147   8.075  14.057  0.0456  0.0420  0.1599
 3330W        W19224  13.340  14.380   1.297  0.3870 -0.1425 -0.2497
 3331W        W19225   1.163   3.478   3.382 -0.2407 -0.2074 -0.1257
 3332W        W19226   7.712  13.714  11.731 -0.1201  0.2607  0.1252
 3333W        W19227   7.453   3.713  15.270 -0.1920 -0.0655 -0.2159
 3334W        W19228   7.008  17.605   4.002 -0.1471  0.0553 -0.2250
 3335W        W19229   1.966  14.679   1.580  0.5208  0.0253 -0.0170
 3336W        W19230   0.139  16.960   3.694  0.2298 -0.1513 -0.0927
 3337W        W19231  14.193   7.675   2.395  0.0630  0.3203  0.1407
 3338W        W19232   2.906  16.719  14.566 -0.1520  0.0467 -0.1266
 3339W        W19233   0.133   4.623  13.822 -0.0066  0.0255  0.0576
 3340W        W19234   3.479   1.086  11.336  0.0704 -0.2591 -0.0462
 3341W        W19235  10.577   9.442   0.085 -0.2463 -0.4553  0.1797
 3342W        W19236  13.009   0.643   4.524 -0.4140 -0.1548 -0.1274
 3343W        W19237   8.781   4.795   0.967  0.0963 -0.1452  0.2434
 3344W        W19238   5.277   7.229   3.265  0.0711  0.0849  0.1843
 3345W        W19239  14.948  17.316   0.393  0.3596  0.0600 -0.3693
 3346W        W19240   3.107  10.870  10.810 -0.2619  0.0036 -0.2525
 3347W        W19241  13.907   4.861  13.865  0.0358  0.2685  0.2834
 3348W        W19242   4.549  14.937   2.816  0.1637  0.3717  0.2415
 3349W        W19243   9.207  12.619   1.786 -0.0262 -0.3434  0.1503
 3350W        W19244  14.745  15.715  14.982 -0.1009 -0.0955  0.1324
 3351W        W19245   6.949   5.339  12.568  0.0104  0.1899  0.2829
 3352W        W19246   4.223  17.780  14.890  0.1901  0.0184 -0.0227
 3353W        W19247   4.622   8.338   1.826 -0.0875 -0.0071 -0.0892
 3354W        W19248   5.447  17.174  14.113 -0.0491  0.1708 -0.1006
 3355W        W19249   1.840  14.430   0.671 -0.1387 -0.0049 -0.0081
 3356W        W19250  17.738  13.785  12.074 -0.0321  0.1599 -0.0640
 3357W        W19251   2.749  11.522  12.360 -0.0051  0.3633  0.5080
 3358W        W19252  17.519   9.204  11.836  0.1827  0.0976  0.3073
 3359W        W19253   6.088  18.070   1.461 -0.0692  0.0201  0.0604
 3360W        W19254   5.384   3.424  13.627  0.2130 -0.0690  0.3204
 3361W        W19255   8.638  15.479   2.678 -0.0893 -0.0480 -0.1957
 3362W        W19256   4.751   1.632  15.383  0.2797 -0.1008 -0.0861
 3363W        W19257  18.476  11.147  10.801 -0.2476 -0.0333  0.2234
 3364W        W19258  10.044   2.416   0.315  0.0841  0.4183 -0.0810
 3365W        W19259   9.581   9.314   1.828  0.0664  0.1014 -0.5170
 3366W        W19260   3.024   5.886   1.069 -0.0926  0.0484  0.1677
 3367W        W19261   5.348   5.945   0.987  0.0083 -0.2065 -0.0049
 3368W        W19262  10.447   1.867  15.117 -0.1058 -0.0522  0.0937
 3369W        W19263   3.790   3.779  13.564 -0.0011  0.0493  0.0299
 3370W        W19264  10.488   1.284   4.378 -0.1006 -0.1194 -0.0493
 3371W        W19265  14.288  18.409  13.864  0.0939  0.1140  0.0876
 3372W        W19266   8.505   1.385   0.637 -0.0556  0.0562 -0.4233
 3373W        W19267   0.858  12.368   9.943 -0.0838  0.4558  0.1441
 3374W        W19268  16.437   1.593   2.734 -0.1914 -0.1576 -0.2410
 3375W        W19269   1.207  12.810   2.483 -0.0355 -0.0642  0.0211
 3376W        W19270   1.098   6.263   3.868 -0.1264 -0.1391  0.0583
 3377W        W19271  18.469   1.472  12.850 -0.0479  0.1709 -0.3666
 3378W        W19272  12.652   8.893  14.311  0.1061  0.2940 -0.0570
 3379W        W19273  10.589  10.556  13.222 -0.4720 -0.0568  0.3302
 3380W        W19274   0.856  17.809  13.550  0.0292  0.2715 -0.0707
 3381W        W19275  13.208   3.810  11.255 -0.0381  0.3859 -0.1121
 3382W        W19276   0.453   8.150   0.739 -0.0437  0.0640 -0.0610
 3383W        W19277   6.037   1.942   0.051  0.1672  0.0791 -0.2460
 3384W        W19278   7.147  13.012   2.634 -0.1511 -0.1071  0.2559
 3385W        W19279   4.971   1.274   4.611  0.1037 -0.0402 -0.0825
 3386W        W19280   6.318   4.925  14.843  0.2756 -0.3133 -0.1632
 3387W        W19281   8.904   9.046   4.626 -0.3364  0.2432 -0.1378
 3388W        W19282  14.921  14.690   5.615  0.0354 -0.4731  0.3243
 3389W        W19283  13.142   1.530   5.193 -0.2773 -0.4003  0.4198
 3390W        W19284  14.130  16.907  14.080 -0.1865  0.0719 -0.0331
 3391W        W19285   6.444  18.065   1.839 -0.1060 -0.0432 -0.1071
 3392W        W19286   4.587  14.365  13.798 -0.2240 -0.2676  0.1414
 3393W        W19287   6.634  17.064   4.368 -0.0666 -0.3298 -0.1013
 3394W        W19288  14.374  11.194   1.805  0.1980  0.0610 -0.1298
 3395W        W19289   1.736   1.439  13.190  0.1629  0.1203  0.2486
 3396W        W19290  11.010  14.652   1.962  0.2975  0.0620  0.5219
 3397W        W19291   3.354   2.713  13.601 -0.0235  0.3677  0.1163
 3398W        W19292  10.595   7.382   3.357 -0.0378 -0.3263 -0.5459
 3399W        W19293  14.058  11.185   1.296  0.1451  0.4542 -0.1339
 3400W        W19294  10.340   2.387   4.466 -0.0983  0.2944 -0.2360
 3401W        W19295   8.492  15.944  12.527 -0.2554  0.0128  0.0295
 3402W        W19296   6.933   2.292  13.706 -0.2365  0.1230 -0.0379
 3403W        W19297  10.239  17.102   2.407  0.2057  0.0087  0.0623
 3404W        W19298  15.567   7.418  12.967  0.4136  0.0715  0.1526
 3405W        W19299   5.253  10.874   4.796 -0.0826 -0.2224 -0.3886
 3406W        W19300  11.243   9.038   1.496  0.0222  0.1246 -0.1940
 3407W        W19301  17.509   1.926   1.107  0.0022  0.1025  0.0192
 3408W        W19302  17.407   0.511   2.479 -0.0382  0.1074  0.2632
 3409W        W19303  11.243   2.351   4.041  0.0760  0.1026 -0.3735
 3410W        W19304   8.367   6.987   1.166  0.0263 -0.0861 -0.2403
 3411W        W19305  15.050   0.491  14.214 -0.6435 -0.4462 -0.1809
 3412W        W19306  16.385   7.665  10.757  0.0527 -0.0651  0.0333
 3413W        W19307   0.452  17.207   0.566  0.0122 -0.0827  0.1170
 3414W        W19308   9.827   8.210   4.736  0.1787 -0.0358 -0.1332
 3415W        W19309   9.567  13.264  12.433 -0.3303 -0.0999 -0.0829
 3416W        W19310  16.658  14.154   9.969 -0.1546  0.2661 -0.1983
 3417W        W19311   6.079  15.601  13.363  0.0631  0.2684 -0.2141
 3418W        W19312   8.362   6.588   1.446 -0.0051  0.1055 -0.2832
 3419W        W19313   1.258  15.700   3.087 -0.2989  0.1397 -0.0712
 3420W        W19314  14.731   5.598  12.869 -0.0285  0.1168  0.0865
 3421W        W19315   0.150  14.292   1.088 -0.0921 -0.1643  0.0609
 3422W        W19316  11.723   4.063   2.544 -0.1930 -0.0371  0.3222
 3423W        W19317  15.365   2.937  11.610  0.1777 -0.0709  0.1314
 3424W        W19318  14.872   8.641   0.874 -0.1685 -0.2665 -0.1521
 3425W        W19319  13.261  13.445  11.486 -0.2570 -0.1091 -0.2305
 3426W        W19320  17.632  10.856  14.485  0.0438  0.2518  0.0779
 3427W        W19321   3.420   4.109  13.470 -0.0622 -0.0194  0.3458
 3428W        W19322  15.716   5.574   0.966  0.1062  0.0890  0.1440
 3429W        W19323   9.036   7.161  14.739 -0.0704  0.0674  0.0259
 3430W        W19324   5.994   5.788  13.269  0.0753 -0.2245 -0.2648
 3431W        W19325   7.106   2.039   2.584 -0.0915 -0.0890 -0.1342
 3432W        W19326  15.179   0.133  12.446  0.3671  0.2489  0.2145
 3433W        W19327  16.002   0.508  11.287 -0.0847  0.4130  0.1438
 3434W        W19328  17.808  16.985   2.074  0.0405  0.3381 -0.1624
 3435W        W19329  16.927   2.684   5.450  0.1516  0.0122 -0.4695
 3436W        W19330   3.829  13.855  13.866  0.0364  0.2007 -0.4595
 3437W        W19331   0.602   0.018  12.130  0.2140  0.0218 -0.1559
 3438W        W19332  15.831  11.127  13.629  0.2575 -0.1040  0.0358
 3439W        W19333   9.309   1.370   0.296 -0.2328 -0.3872 -0.0458
 3440W        W19334  12.648  14.929  13.548  0.3648 -0.1874  0.0024
 3441W        W19335  11.436  11.383  11.154 -0.0047 -0.1629 -0.0483
 3442W        W19336  11.997  14.745  12.966 -0.2964 -0.2260  0.0659
 3443W        W19337  15.835   4.796   4.279  0.1520 -0.1557  0.0528
 3444W        W19338   0.822  11.083   4.819  0.3060 -0.0501  0.3687
 3445W        W19339  12.915   7.420  14.076 -0.2545  0.0355  0.0848
 3446W        W19340   0.198  10.819   1.209 -0.1177 -0.2247 -0.1149
 3447W        W19341  14.987  10.077  13.946  0.1837  0.0804 -0.4081
 3448W        W19342   9.439  15.484  13.759  0.0317 -0.5497 -0.1449
 3449W        W19343   6.448   4.175   0.995  0.0867 -0.3035 -0.0023
 3450W        W19344  14.426   5.542  13.426 -0.0590  0.0164  0.2414
 3451W        W19345   1.488   4.015   0.509 -0.2672 -0.0065  0.0512
 3452W        W19346  15.353  15.505  13.127 -0.0799  0.2516  0.0875
 3453W        W19347   9.967  10.416   1.788 -0.1213  0.2538 -0.2540
 3454W        W19348   8.102   1.077   2.504  0.1263  0.1596  0.2532
 3455W        W19349   1.115   9.172   2.468  0.1073 -0.2419 -0.0248
 3456W        W19350   2.010  12.378   9.845 -0.2481  0.1779 -0.0336
 3457W        W19351  13.452   3.039  13.157 -0.0931  0.1552  0.1969
 3458W        W19352   6.829   3.537  14.264  0.0059 -0.1763 -0.0677
 3459W        W19353   3.302  14.948  12.061 -0.3256  0.0175  0.1862
 3460W        W19354  14.725  10.210   3.038  0.2233  0.1581 -0.1727
 3461W        W19355   7.598   5.702   0.142 -0.0334  0.0130  0.1445
 3462W        W19356   9.208  13.746  14.519 -0.0004 -0.1203 -0.1983
 3463W        W19357  17.528   5.736  14.241 -0.0325 -0.0950  0.1133
 3464W        W19358  13.132   9.233   9.651 -0.2585  0.0938 -0.1461
 3465W        W19359   8.962   0.612  11.292  0.3214 -0.3421 -0.2697
 3466W        W19360  18.346   1.843   2.507 -0.0981 -0.2550 -0.1672
 3467W        W19361  17.382   6.083  11.153 -0.1746  0.0502  0.0165
 3468W        W19362   1.203  11.568  12.553 -0.3050  0.1790 -0.1455
 3469W        W19363  14.282  17.762  13.715 -0.5322 -0.2664 -0.0196
 3470W        W19364   6.979  13.756   2.965  0.1039  0.1033  0.4830
 3471W        W19365  13.886  13.076  13.692 -0.3114  0.1388 -0.0183
 3472W        W19366   7.840   1.259  12.319  0.0498  0.1040 -0.2097
 3473W        W19367  12.655  17.402  14.624  0.3178 -0.1358  0.2274
 3474W        W19368  12.695   3.848   0.690 -0.2525 -0.0191 -0.1202
 3475W        W19369  11.282  13.337  14.363  0.0878  0.3612  0.5029
 3476W        W19370  10.140   4.454  14.138 -0.0709  0.2849 -0.2494
 3477W        W19371   0.753  14.708   4.878  0.2297  0.1286 -0.0788
 3478W        W19372   1.985   1.704   2.255  0.1344  0.2920 -0.0464
 3479W        W19373   2.108   7.873  11.131 -0.0404  0.0528  0.0594
 3480W        W19374  14.199  12.916   4.489  0.0119  0.2202  0.0031
 3481W        W19375   2.546  13.558  14.585 -0.0994  0.2067  0.1264
 3482W        W19376  15.881   8.121   4.706  0.0132 -0.4231  0.2521
 3483W        W19377   4.650   3.281  11.292 -0.0287  0.0769  0.2683
 3484W        W19378  18.113  13.436   1.479 -0.2988 -0.2560  0.0044
 3485W        W19379   2.207   9.211  11.732  0.0136 -0.2688  0.1176
 3486W        W19380  17.146   8.612   5.698 -0.0664 -0.0395 -0.0693
 3487W        W19381  18.632  13.729   4.978  0.2237  0.1559  0.2297
 3488W        W19382   4.555  17.573  12.809  0.1619  0.0150 -0.1071
 3489W        W19383   4.963  18.110   1.473 -0.2827  0.2537 -0.0753
 3490W        W19384   5.067  17.286  15.245 -0.2619 -0.0811  0.0309
 3491W        W19385   5.855  14.334  12.288  0.0274 -0.1966  0.2516
 3492W        W19386  10.468  11.664   2.237 -0.1071 -0.2594 -0.1272
 3493W        W19387  13.738   2.251   4.029 -0.0345 -0.1878  0.3238
 3494W        W19388  16.590   5.254   0.145  0.0969 -0.2796 -0.1726
 3495W        W19389  13.327  11.701  13.835  0.2981  0.0728  0.1358
 3496W        W19390   6.770   4.893  12.510  0.2010 -0.6469  0.2161
 3497W        W19391  17.901   0.974   4.465 -0.2083  0.2413  0.1534
 3498W        W19392  10.396  13.401   0.510  0.0242 -0.2881 -0.3953
 3499W        W19393   6.543  18.627  13.833 -0.0419 -0.1318  0.1097
 3500W        W19394   6.692  16.546  14.636  0.0445 -0.3327 -0.0084
 3501W        W19395  11.009   8.245   2.428 -0.0840  0.2120 -0.1483
 3502W        W19396  11.890  15.590   3.052  0.0253 -0.1138  0.1423
 3503W        W19397   4.118  10.719  13.715  0.0008  0.0696 -0.1331
 3504W        W19398   5.542   2.881  13.019  0.0117  0.2460  0.0389
 3505W        W19399  14.399   7.395  13.060  0.2995 -0.7058 -0.1389
 3506W        W19400  17.782  12.009  10.170 -0.3687 -0.0590 -0.1044
 3507W        W19401   3.282  17.690  13.015  0.4078 -0.2436  0.0468
 3508W        W19402  11.039   9.586   1.333 -0.0145 -0.0861  0.0180
 3509W        W19403   7.826  15.172   1.374 -0.1904  0.2203 -0.3670
 3510W        W19404   9.215  16.904  12.554  0.0442  0.0215  0.1289
 3511W        W19405  10.564   5.890  11.719 -0.0889 -0.2597  0.0094
 3512W        W19406  17.391  17.378   1.048  0.0133 -0.1394 -0.0160
 3513W        W19407  14.292  14.435  11.430  0.0569  0.1844  0.1458
 3514W        W19408   6.351  13.297  12.819 -0.2137 -0.3766  0.2508
 3515W        W19409   2.550  18.080  11.139  0.0368  0.0470  0.2856
 3516W        W19410   3.722   7.856   0.378  0.0415  0.1372 -0.0715
 3517W        W19411  17.737   4.930   9.828 -0.2321  0.1361 -0.1439
 3518W        W19412  14.280  10.591   3.042 -0.0188 -0.0123 -0.3703
 3519W        W19413   0.995   4.763   0.308 -0.2212  0.0637  0.1315
 3520W        W19414  14.908   1.125   1.010 -0.0092  0.5167 -0.0790
 3521W        W19415  11.339  12.326   0.698 -0.0182 -0.0188 -0.0958
 3522W        W19416   7.646   7.180  12.109 -0.1465  0.2008 -0.5654
 3523W        W19417  14.956  10.570   2.100 -0.2216 -0.1957 -0.0051
 3524W        W19418   2.171  12.153   0.396 -0.1629  0.1530 -0.0466
 3525W        W19419  14.364  11.048  10.776 -0.2958  0.2937 -0.2422
 3526W        W19420  18.851   1.361  14.967  0.2074  0.0867 -0.1494
 3527W        W19421   1.909   1.877  10.963  0.0102 -0.0770  0.3066
 3528W        W19422  15.509   9.969   1.745  0.1157 -0.1120  0.0773
 3529W        W19423  12.074   9.670  14.095 -0.3231 -0.4616  0.2329
 3530W        W19424   3.155   4.822  12.122  0.1512  0.0835  0.0209
 3531W        W19425   0.674   3.553  13.572 -0.0088  0.0145  0.1709
 3532W        W19426  18.402  11.842   3.830 -0.1059 -0.1731 -0.4903
 3533W        W19427   4.823   4.533   3.179  0.4489 -0.0001 -0.1643
 3534W        W19428   4.087   6.870   4.029  0.1543 -0.2782 -0.2676
 3535W        W19429   7.269   9.926   5.907  0.0023  0.1905 -0.0444
 3536W        W19430  12.249  14.654  11.065  0.0304 -0.1499  0.3675
 3537W        W19431  16.528  14.177  14.733 -0.4246  0.1143 -0.1510
 3538W        W19432   5.187   9.898   4.067  0.0245 -0.1699 -0.0540
 3539W        W19433   3.739   9.706  13.154  0.2067 -0.2215  0.2028
 3540W        W19434   6.244  16.401  14.964 -0.0850 -0.2036 -0.0199
 3541W        W19435  17.363  18.083  11.785  0.0965 -0.2057 -0.0916
 3542W        W19436  11.071  10.236   4.885 -0.0147  0.2523 -0.0878
 3543W        W19437  12.847  13.450  13.598  0.3238 -0.0074  0.0075
 3544W        W19438  15.230  14.092  15.370 -0.1983  0.1118 -0.3412
 3545W        W19439  10.255  16.878  11.318  0.2761  0.0679  0.0625
 3546W        W19440  16.258  11.059  15.362  0.2103  0.1450 -0.1330
 3547W        W19441   8.627  11.388  10.797  0.0715  0.3250  0.1655
 3548W        W19442   5.745   0.590  15.166 -0.1137  0.0105  0.0462
 3549W        W19443   8.105  10.862   1.041 -0.2404 -0.3192 -0.1464
 3550W        W19444  12.350   9.585  13.637  0.2435 -0.3668  0.0710
 3551W        W19445   5.590  11.403   3.729  0.0024  0.3481 -0.4991
 3552W        W19446  15.413  17.241   1.607 -0.0704 -0.0672 -0.0738
 3553W        W19447   1.874   2.435  11.560 -0.0719  0.1378 -0.2238
 3554W        W19448  13.775  14.451  13.382 -0.0591 -0.0920  0.0682
 3555W        W19449  16.739  18.190   0.992 -0.1389 -0.1857 -0.0817
 3556W        W19450  18.336   8.387   2.094 -0.0474  0.1728 -0.0511
 3557W        W19451  15.125  17.995   4.837 -0.2862  0.1386  0.3409
 3558W        W19452  17.439   8.147   5.761 -0.0882  0.1216  0.0501
 3559W        W19453   0.557  16.725  12.072 -0.3346  0.2451 -0.0233
 3560W        W19454  14.463   7.218  11.427  0.1123 -0.0325  0.0139
 3561W        W19455   6.362   9.189  12.514 -0.2340 -0.0760 -0.1413
 3562W        W19456  12.897  14.501   5.698  0.4342  0.1065  0.1264
 3563W        W19457  10.359  17.762   2.869 -0.0133 -0.4030  0.0983
 3564W        W19458  15.764  18.372   0.085  0.0431  0.0571  0.0815
 3565W        W19459  14.810  14.212   4.837 -0.0999  0.2041  0.1970
 3566W        W19460  17.255   4.419   9.115  0.3766  0.2689 -0.0433
 3567W        W19461  10.578   7.412   4.561  0.3943 -0.0828  0.0920
 3568W        W19462   7.695  11.511   4.799 -0.0173  0.0741 -0.1625
 3569W        W19463   5.534  17.419   4.828  0.2064 -0.1823  0.3060
 3570W        W19464   0.671  15.243  14.709  0.0081 -0.2388 -0.0089
 3571W        W19465   0.536  18.578   1.872 -0.0227  0.2465  0.0317
 3572W        W19466   9.911   0.550  13.083 -0.2259  0.0522 -0.2335
 3573W        W19467  13.650   5.743  12.750  0.0518  0.0402  0.4493
 3574W        W19468   8.019  17.295   2.219 -0.1633  0.2648  0.0039
 3575W        W19469  16.556  10.814   9.527  0.0307 -0.2096  0.0955
 3576W        W19470   7.039  14.831  14.933 -0.1447  0.2385  0.1671
 3577W        W19471  15.244   4.066  10.833  0.0957  0.1384  0.0165
 3578W        W19472  18.469   6.681  12.959  0.0276  0.2214 -0.1244
 3579W        W19473   6.666  15.554  13.581 -0.0570  0.1126 -0.1359
 3580W        W19474   9.310   2.003  11.736  0.1617 -0.0482  0.0961
 3581W        W19475   6.501   9.254  11.469  0.1263  0.0014 -0.0460
 3582W        W19476   8.945  13.487   3.442 -0.1653 -0.0661 -0.1893
 3583W        W19477  10.480  16.198   4.367  0.0445  0.1167 -0.3303
 3584W        W19478  17.501  18.300   4.190 -0.1517  0.0620  0.0578
 3585W        W19479   8.336   1.307  15.223 -0.0348  0.0402  0.0023
 3586W        W19480   0.362   4.336  11.144  0.0233  0.1972  0.3387
 3587W        W19481  10.534  16.156  13.281  0.4595  0.1190 -0.1085
 3588W        W19482  10.282  14.889  13.540 -0.1043  0.0248  0.4133
 3589W        W19483   3.828   2.481   2.392 -0.0311 -0.1365  0.0691
 3590W        W19484  12.562   8.859  12.758 -0.0244  0.0983  0.1255
 3591W        W19485   7.200   6.101  11.690  0.0936  0.1109 -0.0068
 3592W        W19486   9.575   3.982   5.051 -0.0098 -0.0014 -0.0489
 3593W        W19487   0.367   2.841   4.581  0.0488 -0.0812 -0.2056
 3594W        W19488   1.380   2.021  13.571  0.2068  0.0869 -0.1276
 3595W        W19489  18.166  13.550   0.995  0.2176  0.2046  0.1103
 3596W        W19490  16.796  14.603  12.309  0.1305  0.1334  0.3025
 3597W        W19491  17.065   0.414   3.616 -0.0390 -0.0123 -0.1085
 3598W        W19492   6.062  15.096   2.207  0.1870 -0.0828 -0.1306
 3599W        W19493  15.172  10.407  13.638 -0.0383 -0.0550 -0.1755
 3600W        W19494  11.676   0.518   2.170 -0.1413 -0.2261  0.3386
 3601W        W19495  14.377  11.301  12.854 -0.2011 -0.1135  0.1443
 3602W        W19496   3.988   3.926  12.388  0.3512  0.1067  0.2145
 3603W        W19497  17.312   9.221   2.089  0.0139  0.2788  0.1837
 3604W        W19498  15.339  18.042  11.435 -0.1554  0.1397 -0.0920
 3605W        W19499   7.254  13.394  12.089 -0.1321  0.2802  0.1417
 3606W        W19500   5.850  17.254   5.609 -0.2282  0.0324 -0.0673
 3607W        W19501  18.650  13.997   1.854 -0.1302 -0.3268  0.1722
 3608W        W19502  11.761  13.177   2.505  0.2734  0.0293  0.1599
 3609W        W19503   6.166  17.541   1.433  0.0045 -0.1938 -0.2097
 3610W        W19504  14.346   8.410   0.782  0.0560 -0.2098 -0.1105
 3611W        W19505   6.539   0.090   4.955 -0.3438  0.2965  0.2129
 3612W        W19506   9.293   6.935   4.070 -0.0233  0.0336  0.0387
 3613W        W19507   5.321   7.279  13.951  0.0618  0.1410 -0.0073
 3614W        W19508   2.944   6.263   2.999  0.1351  0.1755  0.3419
 3615W        W19509  14.125   2.074  11.466 -0.1442 -0.3115 -0.2865
 3616W        W19510  17.478   3.259   5.267 -0.1202  0.1669  0.4181
 3617W        W19511   1.078  14.697   2.580  0.0791  0.0040  0.0016
 3618W        W19512  17.110   1.045  13.587  0.5080 -0.0716  0.3310
 3619W        W19513   5.950   4.013   5.013  0.3971 -0.2049  0.0549
 3620W        W19514   2.961   1.522  14.324 -0.1212 -0.1450 -0.1268
 3621W        W19515   1.775  16.858   0.467  0.0975  0.2015  0.0644
 3622W        W19516   0.886  12.402   1.070 -0.3375  0.0278  0.0311
 3623W        W19517   3.617  13.077   3.792  0.1440  0.0322  0.0048
 3624W        W19518   6.037   3.647   2.067  0.1247  0.1944 -0.2373
 3625W        W19519   3.777  10.466   3.849  0.1196 -0.0757  0.0184
 3626W        W19520  14.139  11.635  13.123 -0.3769 -0.1463  0.2320
 3627W        W19521   1.295  15.165   1.100 -0.1943  0.0573  0.0153
 3628W        W19522   0.715   2.135   2.111 -0.0905  0.3246 -0.1728
 3629W        W19523   0.361  17.728   1.371 -0.0722 -0.1453 -0.3451
 3630W        W19524  10.556   8.068   3.655  0.1160 -0.1057 -0.1445
 3631W        W19525   6.307  14.254   9.884  0.0302 -0.0592 -0.1156
 3632W        W19526  11.686  18.821   1.286  0.2370  0.1503 -0.1538
 3633W        W19527  15.599   3.271  11.071 -0.0853  0.1431  0.0971
 3634W        W19528  14.835  18.156   0.076 -0.0206  0.0247 -0.2708
 3635W        W19529  15.594  17.867   2.873  0.1610 -0.1285  0.3255
 3636W        W19530   4.977   2.759   2.767 -0.1943  0.3400  0.0793
 3637W        W19531   7.386  14.484   3.997 -0.1172  0.0852 -0.2274
 3638W        W19532   2.871   4.101  10.931 -0.2497  0.2754 -0.0560
 3639W        W19533  12.354  15.413  13.554 -0.0952  0.4441 -0.3774
 3640W        W19534  16.831   3.436   3.981  0.0581  0.2230  0.2193
 3641W        W19535   0.467  15.636   4.280  0.1195  0.0712 -0.0140
 3642W        W19536  14.604  16.773  14.089 -0.0867 -0.0300  0.0596
 3643W        W19537   7.102  13.651   5.480 -0.1524 -0.0654  0.0342
 3644W        W19538   7.838   6.798  14.818  0.0545 -0.2479 -0.2175
 3645W        W19539   2.388  17.906   0.000 -0.0571 -0.3919  0.1748
 3646W        W19540  16.550  12.200   5.046  0.1359 -0.1986  0.1180
 3647W        W19541   0.590   8.023   4.274  0.1673 -0.1202 -0.3615
 3648W        W19542   3.573   6.375  15.043 -0.1743 -0.3947  0.0153
 3649W        W19543   3.888  15.238  12.833 -0.2632 -0.1388  0.0195
 3650W        W19544   2.807   4.588   2.509  0.0158 -0.0273  0.1217
 3651W        W19545  15.391   8.136   3.495  0.2671 -0.0693 -0.1185
 3652W        W19546   5.508  10.558  13.193 -0.0372  0.1660  0.0742
 3653W        W19547  17.081  11.439   0.515  0.0975 -0.1506 -0.1929
 3654W        W19548   6.300  13.217   3.069 -0.0590 -0.0822 -0.0816
 3655W        W19549   5.535  12.519   4.670  0.0307  0.0202  0.0819
 3656W        W19550  12.928   3.748  14.747  0.0482 -0.0096 -0.0656
 3657W        W19551   0.329   5.992  14.845  0.1399 -0.1965 -0.0361
 3658W        W19552  14.681   0.225  10.881 -0.2020 -0.1649 -0.0651
 3659W        W19553   6.292  15.323  11.369 -0.2706  0.0610 -0.3998
 3660W        W19554  13.414  15.327  10.397  0.0698  0.0248 -0.2872
 3661W        W19555   9.676  15.559   1.556  0.1927  0.2771  0.1047
 3662W        W19556  18.685  12.728   3.493  0.1195 -0.0757 -0.1352
 3663W        W19557   3.767   2.874   5.061  0.0871 -0.3088 -0.1434
 3664W        W19558  11.107  17.332   3.443 -0.0216 -0.0789 -0.1362
 3665W        W19559   2.201  10.175   5.264  0.2807  0.0242 -0.0579
 3666W        W19560  18.821  12.625   2.630 -0.1696 -0.2157  0.1577
 3667W        W19561   6.986  10.632  10.986  0.0548  0.2263 -0.1839
 3668W        W19562  18.478  18.771  12.043 -0.1829  0.2669  0.2082
 3669W        W19563   9.369  16.409  12.652  0.1053 -0.1819  0.0345
 3670W        W19564  15.275   4.841   3.582 -0.3271  0.1622  0.0043
 3671W        W19565  11.154  17.120   0.055 -0.2122  0.2630  0.2773
 3672W        W19566  13.364  14.099   0.251 -0.0850  0.0198 -0.2170
 3673W        W19567  18.528   7.346   1.625 -0.3190 -0.4705  0.0657
 3674W        W19568   6.044   0.292  14.707  0.0883  0.0266  0.0838
 3675W        W19569   1.963  11.362   0.840  0.0889 -0.0290  0.2461
 3676W        W19570   4.465   8.640   3.929 -0.0657  0.3807 -0.1252
 3677W        W19571   0.941  16.986  12.334  0.2576 -0.0483  0.2707
 3678W        W19572  18.759  18.698   3.016 -0.1998  0.0904 -0.0165
 3679W        W19573   6.218  15.339   0.465 -0.1104 -0.0299  0.0133
 3680W        W19574   4.638  10.116  11.654  0.0648 -0.0808  0.0508
 3681W        W19575   9.601   5.249   4.460  0.1652 -0.3116 -0.0910
 3682W        W19576   4.053  11.540   3.787 -0.1855  0.1725  0.2107
 3683W        W19577   0.794  15.028   1.709  0.1074 -0.1326  0.1401
 3684W        W19578  13.870   9.275  11.029 -0.1824  0.1915  0.0986
 3685W        W19579   9.639  10.074  13.200  0.3839 -0.0512 -0.0512
 3686W        W19580   8.489  10.449  15.301  0.0030  0.0785  0.2629
 3687W        W19581   0.808   4.976   1.812 -0.2506 -0.2118  0.0490
 3688W        W19582  10.845   2.300   1.388 -0.0691 -0.3150  0.0246
 3689W        W19583   1.028   3.569  13.938  0.1096 -0.0444 -0.0427
 3690W        W19584  15.255   0.952  11.162  0.1265  0.1050 -0.2206
 3691W        W19585   6.445   9.553  15.201  0.2577 -0.0306 -0.0250
 3692W        W19586  11.821   5.144  11.326  0.1088 -0.0925 -0.0844
 3693W        W19587  12.377  13.386  13.228 -0.1441  0.0168 -0.1263
 3694W        W19588  13.901   9.031   0.217 -0.1650  0.1645 -0.1778
 3695W        W19589  17.596  12.144   1.090  0.1543  0.3516 -0.0938
 3696W        W19590  12.561  15.320   0.053  0.0190 -0.2749 -0.1150
 3697W        W19591  15.654   0.150  13.645 -0.0135 -0.0265  0.0208
 3698W        W19592  18.162  15.730  11.743 -0.0821  0.1367 -0.1928
 3699W        W19593   5.933   0.851   3.823 -0.0197  0.1871 -0.3000
 3700W        W19594   5.816   4.854  12.358  0.2401 -0.0480  0.0546
 3701W        W19595   3.203   1.268  11.779 -0.1824 -0.1964 -0.1556
 3702W        W19596   2.694   2.654   0.403  0.0162 -0.0301  0.0907
 3703W        W19597  11.963   4.866   5.811 -0.1196 -0.2989  0.0558
 3704W        W19598   0.073  17.915  12.742  0.2020 -0.2501  0.3697
 3705W        W19599   8.308  15.662  14.135  0.0366 -0.0124 -0.4251
 3706W        W19600  15.854  12.905   3.475  0.1391 -0.0927  0.0302
 3707W        W19601   6.951  14.254  13.642 -0.0006 -0.1819  0.1451
 3708W        W19602   1.524  13.583   3.698  0.1324 -0.2512  0.1769
 3709W        W19603  15.171  15.596  11.857  0.3787  0.1343 -0.0661
 3710W        W19604   2.851  15.208   2.086 -0.2849 -0.2618 -0.1543
 3711W        W19605   1.021   7.843  12.889  0.1744 -0.1786  0.3062
 3712W        W19606   6.420   4.510   0.611  0.2621  0.0670  0.0791
 3713W        W19607  16.917  17.190  14.793  0.2931 -0.0099  0.0721
 3714W        W19608  15.312   6.362  14.752 -0.1215 -0.0184 -0.0041
 3715W        W19609   4.736   6.282  14.414  0.0768  0.2497  0.2139
 3716W        W19610   5.405  11.275  13.774 -0.2421  0.2242 -0.0944
 3717W        W19611  16.601  18.171   4.538  0.1747  0.1170 -0.1709
 3718W        W19612  15.124  12.517   4.470  0.1523 -0.0016  0.1842
 3719W        W19613  17.937   9.134   3.399 -0.1433  0.0850 -0.0632
 3720W        W19614  13.708   8.215  13.452  0.0072  0.3093  0.0154
 3721W        W19615   1.985  14.477  11.813  0.0737  0.3096 -0.0399
 3722W        W19616  18.660   3.829  12.790  0.0287  0.0949  0.2336
 3723W        W19617  15.595  16.288  13.401 -0.1576  0.1567 -0.0255
 3724W        W19618   8.111   8.045   4.634  0.1003 -0.2172 -0.2610
 3725W        W19619   0.528  12.577   4.230 -0.1174  0.0107 -0.2097
 3726W        W19620  16.707   0.770   3.858 -0.0962  0.0666 -0.1734
 3727W        W19621  12.159  13.791   3.602 -0.1298  0.0853 -0.0906
 3728W        W19622  14.256  15.531   0.777  0.2010 -0.1763  0.3123
 3729W        W19623   5.719  16.340   3.266  0.3164  0.3637  0.0736
 3730W        W19624  16.520   0.508  12.637  0.0988 -0.1169 -0.2523
 3731W        W19625   7.779   7.106  15.333  0.0965  0.4405  0.1303
 3732W        W19626   1.360   7.554  14.452 -0.0360  0.4299 -0.0612
 3733W        W19627  17.543   8.053  15.408  0.0849  0.2113  0.0160
 3734W        W19628  10.788   1.685   2.732 -0.1208  0.2038 -0.1579
 3735W        W19629   1.234   6.720   1.487  0.2579  0.0107  0.0088
 3736W        W19630  11.318  15.442  14.498 -0.2438 -0.0832  0.0191
 3737W        W19631   6.091  16.149  13.067 -0.0550  0.1037  0.0322
 3738W        W19632   7.102   7.558   3.032 -0.0531  0.0881 -0.2271
 3739W        W19633  17.785   8.080   5.163 -0.2979  0.2526  0.1057
 3740W        W19634  11.538   0.328  12.414  0.0639 -0.0853  0.3738
 3741W        W19635  17.740  10.576   4.499 -0.0367 -0.1130 -0.0874
 3742W        W19636   2.372   6.472   4.026 -0.2014  0.2106  0.0333
 3743W        W19637  15.905  13.203   0.641  0.1974  0.0373  0.1796
 3744W        W19638  13.049   5.222   4.133 -0.3166  0.0185  0.1294
 3745W        W19639   4.019  14.036  15.267 -0.0690  0.0307  0.0139
 3746W        W19640   1.428  13.544  15.032 -0.2310 -0.0822 -0.3558
 3747W        W19641  11.899   7.779  13.067 -0.2224 -0.3173  0.1261
 3748W        W19642   4.434   2.562  11.878  0.3726  0.0847 -0.2217
 3749W        W19643  13.680  10.856  12.716 -0.1248 -0.2861 -0.1128
 3750W        W19644  14.993  16.173   5.275 -0.0189 -0.1345 -0.0600
 3751W        W19645   1.613  13.785   4.124  0.2600 -0.6012 -0.2117
 3752W        W19646   9.212   1.681  14.875 -0.0354  0.2686 -0.3997
 3753W        W19647  13.164   7.205   0.287 -0.0665  0.2439 -0.0864
 3754W        W19648   2.836   7.633  12.269 -0.0092 -0.3781 -0.2784
 3755W        W19649  18.438   3.748   2.301  0.3086  0.0828  0.1333
 3756W        W19650   7.104   6.389  12.431 -0.0038 -0.0756 -0.2888
 3757W        W19651   1.125   7.041  13.586  0.0194  0.1418 -0.2362
 3758W        W19652   4.332   5.939   2.594  0.0338  0.0559  0.2802
 3759W        W19653   9.724   1.660   0.055 -0.1478  0.1716 -0.2462
 3760W        W19654  14.385   5.543   2.503  0.3173  0.2551 -0.1033
 3761W        W19655   1.960   7.727   4.342  0.1524 -0.0952 -0.3162
 3762W        W19656  11.903   7.477   3.207  0.0707 -0.5247 -0.2325
 3763W        W19657   0.567  18.805   0.622  0.1685 -0.1339  0.0051
 3764W        W19658  10.124  12.250  12.746 -0.2327  0.1644  0.1244
 3765W        W19659  17.299   1.551   5.247  0.0260 -0.1106  0.0321
 3766W        W19660  10.442  11.006  15.112  0.0207 -0.0844 -0.0753
 3767W        W19661   7.274  18.479  15.105  0.0663  0.0891  0.0983
 3768W        W19662   9.302  13.271  14.711  0.2092  0.0596 -0.0640
 3769W        W19663  12.089  11.506  11.653 -0.3665  0.1904  0.1100
 3770W        W19664  12.074  17.776   4.813 -0.1045 -0.2410  0.4439
 3771W        W19665   0.550   5.981  13.971  0.2753  0.1540  0.1458
 3772W        W19666  16.638   1.492   3.395 -0.0492 -0.2632  0.0531
 3773W        W19667   7.080   2.652  12.431 -0.0773 -0.0050 -0.1013
 3774W        W19668  17.949   7.267   5.365  0.1320  0.0191 -0.3009
 3775W        W19669   5.931  18.146  11.159  0.0314  0.1087 -0.1854
 3776W        W19670  18.688  18.082  10.738  0.0174  0.0784 -0.1277
 3777W        W19671   6.997   6.782  13.579 -0.0948 -0.2119 -0.0231
 3778W        W19672  16.645   3.026  11.810 -0.0608 -0.3953  0.2247
 3779W        W19673   2.476   4.528   3.976  0.0538 -0.1333  0.1442
 3780W        W19674   9.572  12.404   1.529  0.1237 -0.1529 -0.0411
 3781W        W19675   5.110  16.975   4.553 -0.0379  0.0522 -0.2660
 3782W        W19676   2.452   0.822  10.590 -0.0445 -0.0948  0.0367
 3783W        W19677  12.499   8.092  12.867  0.2471  0.1260 -0.0464
 3784W        W19678  18.742  16.597  12.020  0.0604  0.0915  0.2559
 3785W        W19679  17.922   3.418   2.829 -0.1024 -0.1346  0.0351
 3786W        W19680  10.612  11.457  14.880 -0.1247 -0.0579  0.2699
 3787W        W19681   3.037  18.361   0.418 -0.0549 -0.0869 -0.0794
 3788W        W19682  11.563   1.821   1.968 -0.1355 -0.0634  0.1915
 3789W        W19683   5.890   6.145   3.525 -0.0666 -0.0281 -0.0292
 3790W        W19684  17.430   7.207  14.481 -0.1653 -0.2598  0.0147
 3791W        W19685   9.608   6.771   3.709 -0.0015  0.2258 -0.0459
 3792W        W19686  18.361  13.905   1.301  0.1109  0.1726 -0.2223
 3793W        W19687  14.456   5.192  11.143 -0.3758 -0.1692  0.1301
 3794W        W19688   8.895  16.827  12.167 -0.0387  0.0283 -0.5591
 3795W        W19689   7.429  12.893  13.353 -0.2356  0.2359  0.0253
 3796W        W19690  18.817   0.186   3.455  0.2832 -0.1070 -0.1723
 3797W        W19691   5.693  17.024   3.915  0.3043 -0.4083 -0.1044
 3798W        W19692  18.413   3.449  14.760 -0.1401 -0.0367 -0.0043
 3799W        W19693   6.348  12.580   4.223  0.0901  0.1307 -0.1532
 3800W        W19694   5.631  11.155   2.225 -0.0585 -0.0519 -0.0017
 3801W        W19695  16.147  14.486   5.515 -0.3057  0.1215  0.1311
 3802W        W19696  11.255  12.804  14.711 -0.1336 -0.2539 -0.0139
 3803W        W19697   5.665  14.971  14.416 -0.1202  0.0159  0.0080
 3804W        W19698   4.944   7.717  13.036 -0.1213  0.1478 -0.0542
 3805W        W19699  10.532   9.777  15.108  0.0353  0.2281 -0.0889
 3806W        W19700   7.496   0.567   4.556  0.0156 -0.1172 -0.1387
 3807W        W19701   7.164  16.537  14.402 -0.0590  0.1044 -0.0575
 3808W        W19702   7.106   0.878   0.483  0.2324  0.1906 -0.0439
 3809W        W19703  17.142  16.312   4.339 -0.2046  0.1529  0.1149
 3810W        W19704   9.665   6.602   3.096 -0.1699 -0.2825  0.2443
 3811W        W19705   2.056   8.075  15.014  0.0664 -0.1114 -0.3649
 3812W        W19706   6.368  16.860  10.899 -0.3109  0.2407 -0.0348
 3813W        W19707   2.500  15.566  12.690  0.0045 -0.1701 -0.0614
 3814W        W19708  14.997  15.979   2.073  0.0161  0.0163  0.3101
 3815W        W19709  12.720  15.680   2.976  0.2517  0.0626  0.2851
 3816W        W19710  12.634   3.401  11.127  0.1302 -0.0642  0.0615
 3817W        W19711   6.493   2.208   2.154  0.0132 -0.2151  0.0997
 3818W        W19712   8.590  16.667   0.045 -0.2420  0.4417  0.2990
 3819W        W19713  17.950  13.223  11.847 -0.0037  0.2532  0.2750
 3820W        W19714   3.031   5.409  10.435  0.0511 -0.1394  0.1342
 3821W        W19715   8.742  16.653  11.621  0.1484 -0.2999  0.2595
 3822W        W19716  12.361   1.197   3.300 -0.2281 -0.2190 -0.0083
 3823W        W19717   5.583  11.150  11.369  0.1596 -0.0443 -0.4135
 3824W        W19718  10.739  17.173  14.721  0.2208 -0.3820 -0.0589
 3825W        W19719   2.355  10.935  15.226 -0.2100  0.3017  0.0207
 3826W        W19720  14.522   6.493   0.060  0.1700  0.0438  0.2932
 3827W        W19721  11.547   6.989  12.817  0.0293 -0.3421  0.0525
 3828W        W19722   5.592  14.776   0.824 -0.0935 -0.1778  0.0861
 3829W        W19723  10.846   5.421  14.560  0.0586 -0.0918  0.0643
 3830W        W19724   7.365   4.653   0.225  0.0648  0.0632 -0.1502
 3831W        W19725   0.175  13.470   1.240 -0.0422 -0.2294 -0.0643
 3832W        W19726  18.618   5.532  15.309 -0.0733 -0.0303 -0.1282
 3833W        W19727   4.708  17.615   4.425  0.3000 -0.0176 -0.5208
 3834W        W19728   1.539   1.008   3.115  0.0935  0.2321 -0.0382
 3835W        W19729   4.421  16.517  10.120  0.1319 -0.2819 -0.1031
 3836W        W19730   3.939  13.871   1.382  0.0625  0.0000  0.3456
 3837W        W19731   6.542   1.737  12.468 -0.0648 -0.0285 -0.0769
 3838W        W19732   8.733  17.464   1.552  0.0667  0.4246 -0.0480
 3839W        W19733   3.584  15.471  11.372  0.1003  0.0035 -0.1472
 3840W        W19734   9.578   1.298  14.603 -0.0217  0.0837 -0.0015
 3841W        W19735  17.904  14.529  13.173  0.2573  0.0693  0.1099
 3842W        W19736  11.054   4.853   2.393  0.1165  0.2712 -0.0833
 3843W        W19737  18.334   4.957   9.860  0.0205  0.1515 -0.3532
 3844W        W19738   7.074   7.403  14.584  0.0762 -0.2204 -0.0302
 3845W        W19739  11.839  16.332   1.683 -0.0214  0.1862 -0.1679
 3846W        W19740  14.079   8.827   0.639  0.1110  0.1303 -0.1608
 3847W        W19741   0.607   9.018  12.382 -0.1616 -0.1572 -0.2621
 3848W        W19742   3.503   4.178  14.335  0.6244 -0.3168  0.1138
 3849W        W19743  13.229  16.932  14.131  0.4400  0.2503 -0.1784
 3850W        W19744   1.092  13.946  15.232 -0.3334 -0.1567  0.0659
 3851W        W19745   5.106  18.691   2.062 -0.2372 -0.2275  0.1124
 3852W        W19746  18.177  16.465  11.917  0.1871  0.0572 -0.1373
 3853W        W19747   6.304  13.264  13.726  0.1148 -0.0321  0.1567
 3854W        W19748  16.478  13.383   1.613  0.3846 -0.2894  0.1164
 3855W        W19749   4.891  18.843   2.618  0.2288 -0.0419 -0.0504
 3856W        W19750  13.844  15.793  12.295  0.1484  0.2747 -0.0282
 3857W        W19751   6.155  16.127   4.151  0.0548  0.2219 -0.3381
 3858W        W19752  17.986  13.309   4.965  0.0157  0.0938 -0.1539
 3859W        W19753   5.353   6.664   4.859  0.0022 -0.1353 -0.0134
 3860W        W19754   5.357   4.264  15.431 -0.3009 -0.2271 -0.2614
 3861W        W19755  15.975   6.686   3.688  0.0756 -0.3668 -0.1975
 3862W        W19756   2.169  10.495   3.084  0.0416 -0.0793  0.0129
 3863W        W19757   7.877  16.255   0.634 -0.3474  0.0574  0.1472
 3864W        W19758  17.870  13.427   1.990 -0.2339 -0.2199  0.2028
 3865W        W19759  14.446   7.724   2.855  0.1353 -0.0597  0.1051
 3866W        W19760  14.111   8.440   4.202  0.2443  0.2184  0.1864
 3867W        W19761  17.942  16.539  13.625 -0.4235  0.1131 -0.1666
 3868W        W19762  10.000   6.707   2.761 -0.0769 -0.3825 -0.3872
 3869W        W19763   7.081   0.480   0.193 -0.0547  0.1540 -0.3085
 3870W        W19764   7.648   3.271   4.599 -0.0473 -0.1265  0.0756
 3871W        W19765  14.171  14.116  13.706 -0.0615 -0.2627  0.0445
 3872W        W19766  14.411  14.477  11.993  0.1991 -0.1016 -0.2145
 3873W        W19767   7.018   2.429   3.451 -0.2582  0.1562  0.2032
 3874W        W19768  15.301  18.202   0.816  0.1845 -0.0501  0.1347
 3875W        W19769   5.822  10.030  13.956 -0.1017  0.1815 -0.2611
 3876W        W19770  13.522   0.758   4.427  0.0113  0.2914  0.0001
 3877W        W19771  11.259   0.475   1.825  0.1194 -0.2182  0.1668
 3878W        W19772   0.637   2.051  15.275  0.1054 -0.2111  0.1456
 3879W        W19773   0.642  16.246   1.764 -0.1332  0.2490  0.0532
 3880W        W19774  17.386   2.955  11.396 -0.3276  0.1815  0.0571
 3881W        W19775  12.701   1.775  15.320  0.3001  0.3279 -0.1466
 3882W        W19776   1.873   2.081   3.568  0.1415  0.2561 -0.2133
 3883W        W19777   1.457   5.763   1.940 -0.0916  0.0512 -0.0936
 3884W        W19778  18.137  11.423  13.893 -0.0266  0.0149  0.1401
 3885W        W19779   0.090   6.909  11.329 -0.2072 -0.1450  0.1521
 3886W        W19780   6.966   4.742  13.579 -0.1062 -0.0365  0.2264
 3887W        W19781  10.224   9.504   2.370 -0.2142  0.0038 -0.1385
 3888W        W19782  14.618  18.114  14.225 -0.2021 -0.0888 -0.1025
 3889W        W19783  14.872   5.268  14.286  0.0143  0.1783 -0.0020
 3890W        W19784  17.070   5.103   3.208  0.3140 -0.1295 -0.3437
 3891W        W19785   7.160   9.185  14.548  0.2008 -0.0165 -0.0546
 3892W        W19786   2.262  18.191  10.762  0.0681 -0.0456 -0.0421
 3893W        W19787   1.267   8.429  14.227  0.0379  0.1145  0.2211
 3894W        W19788   7.160   5.728   3.130 -0.4414 -0.1577  0.1259
 3895W        W19789  10.348  10.918   4.229  0.0138  0.2138 -0.1565
 3896W        W19790  13.485  16.160  14.789  0.1571  0.0038 -0.1777
 3897W        W19791   1.117  17.505   4.033  0.0048  0.0865 -0.1311
 3898W        W19792   2.502  15.873  15.419  0.0675  0.2068 -0.0284
 3899W        W19793   9.738  18.194   2.166  0.0055 -0.1088  0.1552
 3900W        W19794  11.621   4.780  13.062  0.1133  0.0258 -0.4120
 3901W        W19795   6.802   2.202  12.416 -0.3527  0.0849 -0.0626
 3902W        W19796  13.274   9.021  10.709 -0.2658 -0.3436  0.2674
 3903W        W19797  17.420  10.263   1.004 -0.0378  0.1378 -0.3746
 3904W        W19798  15.267   6.679  15.124 -0.1132 -0.1648 -0.0476
 3905W        W19799   4.448   3.957   4.791 -0.1320  0.2295 -0.1454
 3906W        W19800  11.725   0.555  14.751  0.0465  0.0578  0.0252
 3907W        W19801   4.660   7.200  15.440  0.0398 -0.0549  0.0638
 3908W        W19802   6.763   0.318   4.037  0.1684  0.2318 -0.1532
 3909W        W19803  16.742  11.215  13.856 -0.0518 -0.3188  0.1112
 3910W        W19804   8.563   4.007   1.203  0.3384  0.0969  0.1970
 3911W        W19805   6.688  10.632   3.169 -0.0759 -0.1762  0.0054
 3912W        W19806  13.071   3.347  15.019  0.0213 -0.0287 -0.0456
 3913W        W19807   6.783   9.925  15.103  0.2605  0.0660 -0.0706
 3914W        W19808  17.555   1.248   4.642  0.1729  0.1993 -0.0894
 3915W        W19809   5.830  16.661   3.602  0.1019  0.0808 -0.1731
 3916W        W19810   4.280  18.038   2.648 -0.2393 -0.0199 -0.0064
 3917W        W19811   3.854  12.099   1.876 -0.2796  0.3189 -0.1283
 3918W        W19812  12.105  14.158   6.111 -0.0845 -0.1043 -0.0769
 3919W        W19813   7.114   0.884  12.554  0.0539 -0.2313 -0.0666
 3920W        W19814  14.178  18.117   1.817  0.1387  0.0568  0.1040
 3921W        W19815  14.492  10.626   2.300 -0.5489 -0.4413  0.0973
 3922W        W19816  16.933   9.227  14.460  0.0202  0.1494  0.0218
 3923W        W19817   5.169  18.029  14.149 -0.0551 -0.1441  0.3656
 3924W        W19818  11.619  14.893  14.738  0.1676  0.0229 -0.1552
 3925W        W19819  11.879  14.197   1.591  0.0693  0.0110 -0.4377
 3926W        W19820   8.155   1.777   1.724  0.0241 -0.2908 -0.1773
 3927W        W19821  14.519   0.088  11.299  0.0008 -0.0361 -0.0257
 3928W        W19822   4.202   0.719  13.439  0.4133 -0.1414  0.0223
 3929W        W19823  10.823   1.412   5.458  0.2348 -0.0626  0.0278
 3930W        W19824  15.826  15.516   4.124  0.1348  0.0456 -0.1647
 3931W        W19825  18.314   1.160  11.357  0.1944  0.2489 -0.0270
 3932W        W19826  16.632  10.398  11.838  0.1267  0.1136 -0.2691
 3933W        W19827   9.056  16.697  13.830 -0.1121  0.1325  0.1597
 3934W        W19828   3.411   5.320  13.499  0.1821 -0.2692  0.2784
 3935W        W19829   3.638   9.572   3.052  0.1501 -0.2021  0.0646
 3936W        W19830   2.273  10.526   1.555  0.2795 -0.0096  0.0568
 3937W        W19831  17.762  13.678  15.197 -0.0545  0.1339  0.0822
 3938W        W19832  15.783   9.538  14.939 -0.1432 -0.3677  0.0886
 3939W        W19833   7.732   1.157  15.269  0.1565 -0.1692  0.2615
 3940W        W19834  14.740  15.355   1.326 -0.2742  0.0486  0.2037
 3941W        W19835   4.464  14.723   1.406 -0.3590 -0.0253  0.1771
 3942W        W19836   0.413   8.800   5.183  0.5407  0.0958 -0.0575
 3943W        W19837  18.257  18.142   0.373  0.0402  0.0465 -0.1580
 3944W        W19838  17.371  10.672   5.152 -0.0178  0.3975 -0.0527
 3945W        W19839  15.823  11.050  12.084  0.1830 -0.0106 -0.1186
 3946W        W19840  14.930  14.885   1.502  0.0024  0.0125 -0.3205
 3947W        W19841  11.939  11.866  11.345 -0.1429 -0.3521 -0.1558
 3948W        W19842   5.563   6.782  13.209 -0.2374 -0.0736  0.0716
 3949W        W19843  13.944  14.802   4.526 -0.2896 -0.1438 -0.1563
 3950W        W19844   8.931  14.457  11.909  0.1320 -0.0620 -0.3367
 3951W        W19845   0.665   4.902  14.782  0.2119  0.0127  0.0586
 3952W        W19846  12.858  17.878   0.757  0.1723  0.0551  0.1052
 3953W        W19847  18.113   5.725   0.958 -0.2463 -0.1418 -0.1522
 3954W        W19848  11.414  18.191   3.200 -0.1808  0.1664 -0.2610
 3955W        W19849   1.230   4.498   2.547  0.1202  0.0101  0.2030
 3956W        W19850  17.687  17.650  15.447 -0.1277  0.5078  0.1928
 3957W        W19851  14.709  18.837   0.818  0.2243  0.0007  0.0916
 3958W        W19852   0.947  18.857  11.769  0.3903  0.2991 -0.1575
 3959W        W19853   3.443  14.367   2.517  0.2474  0.0074 -0.1667
 3960W        W19854   5.630  12.466  10.600  0.0284 -0.1058  0.0105
 3961W        W19855  17.664  14.457  11.284 -0.2253  0.1920 -0.0617
 3962W        W19856  12.679   8.807  11.714 -0.0597  0.1467 -0.3460
 3963W        W19857   2.554  15.965  13.683 -0.0429  0.0671  0.1460
 3964W        W19858   3.649  17.298  13.805  0.1981 -0.1052  0.0193
 3965W        W19859   2.979   4.571   4.100 -0.0462  0.1570 -0.3017
 3966W        W19860  11.148   9.229  12.658 -0.0376  0.1160 -0.0036
 3967W        W19861  14.523   3.834  14.215  0.0112  0.4080  0.3014
 3968W        W19862  16.303  15.438  15.180  0.4094 -0.2319 -0.1036
 3969W        W19863  11.746  11.861   2.935  0.2213  0.1905 -0.0827
 3970W        W19864  15.514  15.821  13.920 -0.0650  0.0869  0.3696
 3971W        W19865  11.662   5.347  12.971 -0.1296 -0.1875 -0.1257
 3972W        W19866  18.233  17.776  13.457 -0.4887  0.3129  0.2894
 3973W        W19867   7.363  14.971   1.461  0.2639  0.0064  0.0885
 3974W        W19868  13.786   3.196   2.598  0.1727 -0.0742  0.0652
 3975W        W19869   5.161  15.523  15.218 -0.1732 -0.3434 -0.1761
 3976W        W19870  15.604  16.789  13.337  0.1287  0.1176  0.2212
 3977W        W19871  11.052   9.912   1.846  0.0249 -0.0030 -0.0290
 3978W        W19872  12.672  13.150   2.200 -0.1973 -0.0638 -0.0306
 3979W        W19873  18.246   0.519   0.924 -0.0412 -0.0089  0.0020
 3980W        W19874  15.265   2.181   1.232 -0.0566 -0.1139  0.1082
 3981W        W19875   4.723  17.293   1.868 -0.2586 -0.0690  0.2677
 3982W        W19876   1.773  17.761   5.947 -0.1575 -0.0796 -0.2496
 3983W        W19877   8.018  13.547  14.890  0.1991  0.0578  0.0043
 3984W        W19878   5.308   8.105   4.409  0.0717 -0.2936  0.0929
 3985W        W19879   9.232   7.457   3.326 -0.2129 -0.1191 -0.1370
 3986W        W19880   1.974  10.576   4.063 -0.3448 -0.0188 -0.0348
 3987W        W19881   7.544   2.796   5.546 -0.0914  0.1989 -0.0048
 3988W        W19882  10.153  12.224  14.345  0.0176  0.1108 -0.1305
 3989W        W19883   1.176   2.782   2.169  0.2278  0.0173 -0.1087
 3990W        W19884   2.626  15.805   1.754  0.1508 -0.2739  0.0486
 3991W        W19885  14.291  13.075   1.831  0.1411  0.0852  0.1737
 3992W        W19886   8.150   1.206   1.010 -0.2123 -0.3310  0.4023
 3993W        W19887   4.211  12.751  12.090  0.1448 -0.1623  0.1133
 3994W        W19888  10.163   7.018  13.210  0.1125 -0.3046 -0.0725
 3995W        W19889   0.536   0.438  13.074  0.0696  0.3868  0.0867
 3996W        W19890  12.055  15.915   4.134  0.2194 -0.0594  0.3212
 3997W        W19891   1.936  12.653   4.593 -0.2209  0.0712 -0.0527
 3998W        W19892  10.084  15.201   1.573 -0.2894 -0.1364 -0.1554
 3999W        W19893   7.581   9.086   1.251 -0.1352 -0.1237 -0.2510
 4000W        W19894  13.840   3.399  11.900  0.0964  0.2978 -0.2352
 4001W        W19895   3.818   8.358   0.259 -0.1230 -0.0925  0.0486
 4002W        W19896  16.617  10.255  11.356 -0.7112 -0.1251 -0.1637
 4003W        W19897   6.743  15.241   3.843 -0.1408  0.3475 -0.4314
 4004W        W19898  12.274  15.723  13.141 -0.0284 -0.0203 -0.0903
 4005W        W19899  11.419   5.722  13.439 -0.1952  0.0638 -0.2245
 4006W        W19900   5.139  12.094  15.390 -0.2296  0.2437  0.0835
 4007W        W19901   8.280  15.557   5.243 -0.2306 -0.0594  0.3725
 4008W        W19902  17.105   3.481   4.868 -0.3798 -0.4459 -0.2376
 4009W        W19903  10.881  10.722   3.476 -0.0740 -0.0315 -0.2640
 4010W        W19904   9.166   8.412  11.548  0.3398 -0.2335 -0.0931
 4011W        W19905   2.546   8.077  14.902 -0.3465  0.1490  0.2196
 4012W        W19906  16.869   8.154   1.579  0.1183  0.0815 -0.0784
 4013W        W19907   8.705   2.605   3.253  0.1816 -0.1452 -0.0039
 4014W        W19908  11.081   9.152   0.849 -0.1176 -0.2097  0.0723
 4015W        W19909  11.676   5.652  15.167 -0.5266  0.1225  0.1958
 4016W        W19910   1.641  11.073  13.544  0.3776 -0.0481 -0.0229
 4017W        W19911  10.715  10.320  11.718  0.1626  0.1208 -0.1689
 4018W        W19912  15.285   5.782   1.135 -0.0299  0.0481 -0.3965
 4019W        W19913   6.559  15.355  14.019 -0.0898 -0.1696  0.2587
 4020W        W19914  17.440  10.610   5.651  0.1438  0.4072  0.2579
 4021W        W19915   2.045  15.409  14.034 -0.0597  0.1979  0.0544
 4022W        W19916   3.191  10.356  14.305 -0.0093  0.0752  0.1308
 4023W        W19917  15.177   1.467  13.403 -0.1574  0.0362 -0.1285
 4024W        W19918  17.483  10.661  12.495 -0.0105  0.1165  0.1599
 4025W        W19919  13.273   5.964  14.133 -0.1068 -0.2975 -0.1490
 4026W        W19920  18.444   1.791   3.435 -0.0978 -0.0086  0.0974
 4027W        W19921  12.084   9.211   5.053 -0.1517  0.1098  0.1416
 4028W        W19922  14.472   8.146   4.467 -0.0435  0.2123 -0.0730
 4029W        W19923   2.485   9.693   1.552 -0.3646  0.1969  0.0432
 4030W        W19924   6.411   6.989   0.095  0.0873 -0.0653 -0.2598
 4031W        W19925  15.835  14.184  11.018 -0.2715 -0.0284  0.1643
 4032W        W19926   9.099   2.003   1.409 -0.2086  0.0701  0.2267
 4033W        W19927   4.539  16.664   1.274  0.1223 -0.0472 -0.0302
 4034W        W19928  10.173  11.526  11.315 -0.0605 -0.0862 -0.0126
 4035W        W19929   1.282   7.029  15.060 -0.2536 -0.2041  0.2843
 4036W        W19930   5.767   7.586   1.873 -0.0897  0.3297 -0.0654
 4037W        W19931  15.274  12.402   1.479 -0.0565  0.0437  0.1209
 4038W        W19932   0.160   4.754  10.981  0.2173  0.0246 -0.1015
 4039W        W19933   2.469   3.204   4.695 -0.2849 -0.0926 -0.3103
 4040W        W19934   0.551  12.669   5.164 -0.1457 -0.2791 -0.1616
 4041W        W19935   3.733   2.292   4.072 -0.0483 -0.1490  0.2780
 4042W        W19936  17.883   3.989  11.721  0.3087  0.0158  0.1713
 4043W        W19937   9.725   7.170  13.079 -0.1876  0.1152  0.2326
 4044W        W19938  13.750  18.345   1.536  0.2875  0.1367  0.0839
 4045W        W19939   8.034  18.342   3.670  0.1726 -0.0522  0.1150
 4046W        W19940  15.533  16.608  13.854 -0.1958  0.2338  0.0528
 4047W        W19941   1.928   7.962   9.590  0.1226  0.3392  0.0121
 4048W        W19942  13.445   5.809   2.821  0.2217 -0.0434  0.0387
 4049W        W19943   5.749  12.540   1.460 -0.0090 -0.2092  0.2930
 4050W        W19944  14.244   9.732  15.405 -0.4329 -0.3824 -0.4757
 4051W        W19945  18.842   3.506   2.120  0.1729  0.1478  0.0366
 4052W        W19946   0.421  15.500   5.213 -0.0110  0.2861  0.0585
 4053W        W19947   0.708   4.662  11.029 -0.2099 -0.1192  0.0182
 4054W        W19948   2.157  12.255  15.007 -0.1322  0.1556  0.3952
 4055W        W19949  14.263  11.499   4.197 -0.0270 -0.2100 -0.2507
 4056W        W19950   2.377   6.150   0.135 -0.1602  0.0100  0.0879
 4057W        W19951   7.790   9.496   4.143  0.0709 -0.1019  0.2331
 4058W        W19952  16.579  10.297  15.488  0.0522 -0.1407 -0.3126
 4059W        W19953   5.477   5.460   3.771  0.2596  0.0079  0.0267
 4060W        W19954  12.322   3.551   5.885  0.0795  0.2700  0.2060
 4061W        W19955  16.679   3.436   3.379  0.0943  0.2150 -0.0012
 4062W        W19956  16.997   4.928  15.171 -0.1533 -0.2305 -0.2149
 4063W        W19957   2.866   2.714  12.723 -0.0124  0.1550  0.0023
 4064W        W19958   1.123   2.505   4.203 -0.0801  0.2076 -0.0582
 4065W        W19959  14.996  12.375   2.026  0.0570  0.0829  0.1595
 4066W        W19960   3.044   4.206  11.441  0.0886  0.0463 -0.1002
 4067W        W19961   7.794   7.689  13.619 -0.0843  0.2553 -0.2304
 4068W        W19962  12.322   5.245   4.848  0.0068 -0.0509 -0.1753
 4069W        W19963  10.405  12.181   3.038 -0.0382  0.0517  0.1802
 4070W        W19964  18.354   1.069   9.879  0.1227  0.0489  0.0400
 4071W        W19965   7.816   1.235   4.786 -0.1450  0.4114 -0.0225
 4072W        W19966  13.534  14.531   0.593  0.0216 -0.2565 -0.2252
 4073W        W19967  14.276  12.724   2.597 -0.2430  0.0717 -0.0716
 4074W        W19968   3.795  13.540  12.409 -0.1355 -0.0998  0.1098
 4075W        W19969   4.399  12.893   3.987 -0.1156  0.1106 -0.0965
 4076W        W19970   6.732   6.649   4.445 -0.0931  0.1986  0.0373
 4077W        W19971  12.104  15.184   3.730 -0.3039 -0.0192 -0.2656
 4078W        W19972   8.307   9.266   0.862  0.1974  0.2671  0.3168
 4079W        W19973   1.093  13.287   4.658 -0.3641 -0.2008 -0.0148
 4080W        W19974  13.140   6.199   4.141  0.3853  0.0742  0.0660
 4081W        W19975   4.635  16.798  13.134  0.1365  0.2434 -0.0644
 4082W        W19976  18.616   4.700  10.735 -0.1167 -0.3598 -0.3101
 4083W        W19977  14.070  10.121   3.911  0.4066  0.2058 -0.0086
 4084W        W19978  11.219  18.653  13.474  0.1215 -0.1802  0.0950
 4085W        W19979  12.955  15.517  12.923  0.2126 -0.0338  0.0552
 4086W        W19980   6.220  18.577  11.156 -0.0563 -0.0675 -0.2208
 4087W        W19981  17.114  16.790  15.126 -0.0427  0.1565 -0.1350
 4088W        W19982  16.570  14.685  15.140 -0.0727 -0.2961 -0.3343
 4089W        W19983  12.628  13.179  14.861 -0.2371 -0.1318  0.1584
 4090W        W19984  10.820  13.761  15.293 -0.2958 -0.1172 -0.0383
 4091W        W19985  14.555  12.183  14.371  0.2993 -0.0271  0.3441
 4092W        W19986   8.879   8.092   2.917 -0.0675  0.2636  0.1766
 4093W        W19987  12.061  18.615   0.970  0.1521  0.0000 -0.0121
 4094W        W19988   3.475  11.798   3.564 -0.1308 -0.0986  0.0920
 4095W        W19989   3.422   4.670  14.260  0.4308  0.1145 -0.3255
 4096W        W19990   2.371  12.328  14.232 -0.2976  0.0015 -0.2278
 4097W        W19991  11.622   0.824  13.609  0.0559 -0.1605  0.0360
 4098W        W19992   5.897   7.710   3.337  0.0371  0.0287  0.1088
 4099W        W19993  11.907   5.968   0.921  0.0287 -0.1527  0.2051
 4100W        W19994   4.603   2.281  13.293  0.1526  0.1870 -0.2883
 4101W        W19995   0.810  16.048   1.228  0.1229  0.2536 -0.1202
 4102W        W19996  10.749   6.731   0.943 -0.3330  0.1592  0.1089
 4103W        W19997   9.107   3.415  15.464 -0.0159 -0.1711  0.3528
 4104W        W19998   4.992   4.566  14.305  0.0238  0.2672 -0.0239
 4105W        W19999  18.380  16.231   5.022  0.0385  0.1024 -0.0371
 4106W        W20000  13.996  17.560   0.025 -0.1173 -0.0789 -0.1853
 4107W        W20001  14.349   7.592   4.346 -0.0734  0.0684  0.0719
 4108W        W20002  17.746   0.226   1.017 -0.1939  0.0521 -0.1515
 4109W        W20003  17.336  10.416   4.705  0.0587  0.2566 -0.2110
 4110W        W20004   4.844  14.267  13.235 -0.1681  0.2857  0.1002
 4111W        W20005   8.609   7.503  11.619  0.2311  0.1669  0.0465
 4112W        W20006  12.123  12.779   2.407  0.1793  0.0917 -0.0476
 4113W        W20007   7.536   8.809  11.541 -0.1836  0.1586  0.1958
 4114W        W20008   9.617  17.317  14.061  0.1582 -0.0039  0.4242
 4115W        W20009   0.629  18.307  13.516  0.0544 -0.1653  0.1207
 4116W        W20010  17.895   7.112  13.149  0.2223 -0.0746  0.3519
 4117W        W20011  13.418  12.814  12.251  0.0753 -0.0058  0.0761
 4118W        W20012  18.390   2.126   3.041 -0.0639  0.2093  0.2132
 4119W        W20013   8.336   8.626   2.256  0.0582  0.3313  0.1292
 4120W        W20014   1.380   8.069   3.042 -0.0150 -0.0285 -0.1229
 4121W        W20015   5.862   8.468  11.272 -0.1135  0.0403 -0.2747
 4122W        W20016  11.994  17.316   3.489  0.1224 -0.1167  0.0085
 4123W        W20017   9.077  16.085   4.004 -0.1683  0.1059  0.4480
 4124W        W20018   1.063  18.825  15.144  0.0681 -0.5789  0.0291
 4125W        W20019  14.798   9.070   0.709 -0.0145  0.1698 -0.1777
 4126W        W20020  14.057   3.574   1.862 -0.1058 -0.0483  0.1891
 4127W        W20021   5.989   2.945   4.521 -0.1636 -0.3796  0.1566
 4128W        W20022  18.499   8.286  13.071  0.0157  0.1379  0.0459
 4129W        W20023  14.439  13.454  12.994 -0.2556  0.2870 -0.1135
 4130W        W20024  11.859  16.016   4.996 -0.1716 -0.0389 -0.1313
 4131W        W20025   1.628   8.639   1.274 -0.3250 -0.0814 -0.0086
 4132W        W20026  17.645   7.997  13.208 -0.0658 -0.0350  0.0325
 4133W        W20027  15.362   3.641  13.713  0.0329 -0.6022  0.0537
 4134W        W20028  12.718   6.906   1.628  0.1928 -0.3370 -0.0417
 4135W        W20029   4.166  10.065   5.168 -0.0809 -0.0578  0.3133
 4136W        W20030  11.608   8.953  12.718  0.1418  0.1502 -0.1616
 4137W        W20031   6.721   5.643   3.005  0.0783 -0.1916  0.0893
 4138W        W20032  13.235  10.483   4.073 -0.0717  0.0309  0.0890
 4139W        W20033  11.382   5.010   2.720  0.1466  0.1173 -0.0859
 4140W        W20034   6.250  14.095  12.539  0.1721 -0.1665 -0.1540
 4141W        W20035  10.878  18.693   2.462 -0.1691 -0.2462 -0.1539
 4142W        W20036  11.976  15.196   2.722 -0.2714  0.1354 -0.1360
 4143W        W20037   6.505   7.355   5.642  0.0001 -0.1220  0.0206
 4144W        W20038   9.124   2.911   2.122  0.0108  0.2213 -0.0698
 4145W        W20039  16.439   0.292  11.400 -0.0491 -0.2865  0.0557
 4146W        W20040  16.586   1.468   2.020 -0.3215  0.2278  0.1963
 4147W        W20041   4.613   3.135  14.067  0.0460  0.2385  0.2952
 4148W        W20042  12.410   8.504   2.857  0.0268 -0.2380 -0.3186
 4149W        W20043  18.188   9.183   4.545  0.2037 -0.3844 -0.1433
 4150W        W20044   8.069   5.349   4.775 -0.3953 -0.4339  0.0390
 4151W        W20045   6.410   0.262  15.070  0.1993 -0.1513 -0.0405
 4152W        W20046   2.609   3.656  10.828 -0.0160 -0.1477 -0.2332
 4153W        W20047  11.411   2.176  14.340  0.0216  0.0695  0.1182
 4154W        W20048  12.386   0.886  12.421  0.0197 -0.1744 -0.2329
 4155W        W20049   8.389  17.706  12.853  0.1349 -0.1196 -0.2257
 4156W        W20050   3.123  12.680  13.725 -0.2830 -0.0357  0.1097
 4157W        W20051   8.476   6.162  11.908  0.1295 -0.2434  0.0905
 4158W        W20052   1.146   5.734   1.372 -0.0725 -0.2123 -0.2755
 4159W        W20053  14.328  15.087  11.081 -0.3708 -0.1812  0.3850
 4160W        W20054  16.654  16.389   1.474 -0.0658  0.0353  0.1442
 4161W        W20055  12.706   9.747  14.034 -0.0572 -0.1765 -0.1899
 4162W        W20056   0.070   6.529  12.831  0.0861 -0.3290 -0.3201
 4163W        W20057  15.232   4.559  10.969 -0.2064  0.1241 -0.0785
 4164W        W20058  10.472   1.721  11.145 -0.1138 -0.3066 -0.3606
 4165W        W20059  13.490  15.905   1.184 -0.1151 -0.2377 -0.1822
 4166W        W20060   7.377  15.787   4.126 -0.2109  0.2024 -0.0664
 4167W        W20061  10.818   3.306   0.749 -0.0707 -0.0393 -0.4147
 4168W        W20062   5.907  17.511  15.405 -0.0690 -0.1904  0.3749
 4169W        W20063   9.383  18.682  13.722  0.1129  0.1326  0.1440
 4170W        W20064   8.322   9.865  14.692 -0.0222 -0.1059  0.0167
 4171W        W20065  11.241   8.526   1.870  0.1481 -0.4171  0.0650
 4172W        W20066   7.323   8.146  14.110 -0.0650  0.1965 -0.1220
 4173W        W20067   2.298  18.860   2.910  0.0716 -0.0887  0.1081
 4174W        W20068   7.381   6.409  13.604  0.0921  0.1350  0.1883
 4175W        W20069  16.275   4.171  13.478 -0.0885 -0.0374 -0.1529
 4176W        W20070   8.343   4.618   2.523 -0.0791 -0.2303  0.0328
 4177W        W20071   3.433   3.866   0.878  0.1281  0.0701  0.1836
 4178W        W20072  12.680  14.709   4.786  0.1680  0.0955 -0.1496
 4179W        W20073  17.290  12.065  15.312 -0.0725  0.1371 -0.0100
 4180W        W20074   1.550  11.612  15.281  0.0833 -0.0204 -0.2241
 4181W        W20075   2.091   5.368  15.260 -0.1148 -0.0059 -0.1534
 4182W        W20076  12.573  12.920   4.186  0.1231 -0.1148 -0.1528
 4183W        W20077  16.134  16.189   4.249  0.1105 -0.1494  0.0416
 4184W        W20078  15.448  16.588   0.769 -0.2492  0.0746 -0.2075
 4185W        W20079  15.356   2.795   3.080  0.0871 -0.2652  0.2817
 4186W        W20080  12.573   0.758  11.531  0.2287 -0.0158 -0.0494
 4187W        W20081   2.254   3.626  13.023  0.3805  0.2526 -0.0793
 4188W        W20082  11.234   4.586  12.761 -0.4640 -0.1824  0.1429
 4189W        W20083   1.198   4.236   2.913 -0.1543  0.1748  0.3054
 4190W        W20084   6.625  16.018   0.806 -0.0795 -0.0616 -0.0657
 4191W        W20085   5.006  16.667  12.228  0.2885 -0.1194  0.1867
 4192W        W20086   5.467  18.260  15.105 -0.0242  0.0926  0.1492
 4193W        W20087  18.137  13.875   4.925  0.2153  0.0194  0.2038
 4194W        W20088  13.991  15.388   4.508  0.0310  0.1282  0.1978
 4195W        W20089   1.925  18.773   0.159  0.0467 -0.1017 -0.3786
 4196W        W20090  10.324   4.895   1.209  0.2145 -0.2483  0.1407
 4197W        W20091   5.424   7.255  13.305  0.0528  0.4448  0.1574
 4198W        W20092  11.746   2.316  12.833  0.0423  0.1488  0.0619
 4199W        W20093   3.053  10.240   6.006 -0.1942 -0.0114  0.0560
 4200W        W20094  13.338   8.883  13.803  0.0817 -0.2671  0.0082
 4201W        W20095   1.061  16.670  10.755  0.0257 -0.2326 -0.0729
 4202W        W20096  14.696   1.787   1.869 -0.1796  0.0520  0.0378
 4203W        W20097   8.746  17.875   0.049 -0.1842 -0.0351 -0.1509
 4204W        W20098  12.893   7.275  14.966  0.4577 -0.0327  0.1015
 4205W        W20099   0.501  16.883   4.576  0.3324  0.3490 -0.2356
 4206W        W20100   5.446   4.721  14.329  0.4250 -0.1826 -0.3785
 4207W        W20101   6.032  18.566   2.344 -0.1819 -0.4284 -0.0081
 4208W        W20102   2.002  12.018  14.112 -0.0723  0.0675  0.0132
 4209W        W20103  14.985   8.568   1.742  0.0404 -0.2164  0.3631
 4210W        W20104  12.187  18.295   3.058  0.1261  0.0748 -0.3501
 4211W        W20105   6.531  16.241   1.813  0.0672 -0.0130  0.0523
 4212W        W20106  16.502  15.877   1.600 -0.0525  0.0513 -0.4290
 4213W        W20107   2.903  11.532   0.412 -0.3031  0.2928 -0.5645
 4214W        W20108  13.176  10.191  12.387 -0.0030 -0.0874  0.0180
 4215W        W20109  12.802  15.630   2.448 -0.0098 -0.2871  0.0431
 4216W        W20110   7.159   6.667   4.805  0.4159  0.3085 -0.0052
 4217W        W20111  18.463  18.669   0.592 -0.2437  0.2290 -0.0655
 4218W        W20112  17.393   8.605   3.510  0.0058 -0.1210 -0.1159
 4219W        W20113   3.122   3.232  14.232 -0.0526  0.1623 -0.1895
 4220W        W20114  17.120   7.851  12.725 -0.1764 -0.2621  0.0186
 4221W        W20115  13.003   6.630  12.858 -0.0119 -0.0651  0.0732
 4222W        W20116  13.160  15.824   5.664 -0.0731 -0.0439 -0.1756
 4223W        W20117   9.420   4.242  14.744 -0.0825 -0.0304  0.0892
 4224W        W20118  11.020   0.449  15.488  0.2014 -0.1915  0.1793
 4225W        W20119   2.891   4.852   1.490 -0.1710  0.2074 -0.1413
 4226W        W20120  14.722   8.094   0.993  0.1769  0.1083  0.1501
 4227W        W20121  15.223   7.770   0.245  0.1155  0.2755  0.0605
 4228W        W20122  18.333  11.589   2.644  0.2599 -0.2209 -0.1521
 4229W        W20123   9.144  13.121   0.054  0.1815  0.1467  0.1291
 4230W        W20124   7.735  17.207   2.944 -0.1289  0.0951  0.1132
 4231W        W20125  10.381  14.424   4.750 -0.0772  0.0151  0.0839
 4232W        W20126  11.693  18.059   5.654 -0.1449  0.0196 -0.0136
 4233W        W20127  17.937  10.249   2.209 -0.0436  0.3287 -0.0098
 4234W        W20128   2.979   5.801   3.416  0.1011 -0.2205 -0.0290
 4235W        W20129  11.327   1.295  11.177  0.3258 -0.0047 -0.0347
 4236W        W20130   5.141   8.638  10.866  0.1450  0.0927 -0.0919
 4237W        W20131   8.303   8.717   0.160  0.1409 -0.2427  0.2285
 4238W        W20132  13.488   1.618  14.342  0.0433  0.1553 -0.0632
 4239W        W20133   9.696   0.855   4.756  0.2636 -0.0334 -0.2799
 4240W        W20134  10.073  14.150  12.509  0.0767 -0.0216  0.0967
 4241W        W20135   1.903  18.362  14.072  0.1786 -0.1271  0.2137
 4242W        W20136  12.103   6.477  10.858  0.2637 -0.2114 -0.1916
 4243W        W20137  16.640   8.444   5.109  0.0998  0.1364 -0.1789
 4244W        W20138  17.466  12.493   0.782 -0.0993 -0.2323  0.1320
 4245W        W20139   4.580   7.560   4.032  0.0686  0.1390  0.0659
 4246W        W20140  14.014  14.825   3.906  0.0836 -0.0989 -0.4400
 4247W        W20141   7.757  18.049  13.203  0.3584 -0.1804 -0.2781
 4248W        W20142   3.899  13.817   3.894 -0.0096  0.0178  0.0402
 4249W        W20143   5.489   2.586  14.971  0.0642  0.0594 -0.0426
 4250W        W20144   8.971   4.786  15.032  0.0643 -0.0915 -0.2401
 4251W        W20145   9.330  14.684  11.668 -0.0967  0.0594  0.3439
 4252W        W20146  15.008   5.169   3.160 -0.0732 -0.2410  0.0149
 4253W        W20147   1.490   2.223  14.883  0.0802  0.0103  0.1784
 4254W        W20148  14.453   0.999   5.966  0.0958 -0.0355  0.2798
 4255W        W20149   0.314   4.826   3.855 -0.1199  0.3115 -0.0048
 4256W        W20150   4.202  11.167  13.968  0.0785  0.1730 -0.2580
 4257W        W20151  10.972   6.454   2.773 -0.3532 -0.0318 -0.0966
 4258W        W20152  14.464   5.124   2.191 -0.0096 -0.0597  0.0809
 4259W        W20153  18.305   0.381   3.424  0.1435 -0.0156 -0.3101
 4260W        W20154   7.971  11.444  12.839  0.1463 -0.0388  0.0194
 4261W        W20155   0.829   6.518  10.190  0.1082  0.1800  0.1997
 4262W        W20156  15.636  18.344   2.695 -0.2415  0.3133 -0.1744
 4263W        W20157   6.024  16.214   2.107  0.1602  0.1517  0.2670
 4264W        W20158   3.201  15.747   5.558  0.1254 -0.2771  0.1996
 4265W        W20159  15.394  18.713   2.264  0.1976  0.0712 -0.0000
 4266W        W20160  18.362   2.674  12.374  0.1057 -0.1114  0.2989
 4267W        W20161  16.695  11.487   2.578  0.2825 -0.1758  0.3238
 4268W        W20162  13.577   0.701  12.714 -0.5276 -0.1715 -0.1262
 4269W        W20163  10.589   4.439  11.836  0.3695 -0.1496 -0.0663
 4270W        W20164   4.505   0.648  14.435 -0.0771 -0.2172 -0.0357
 4271W        W20165   8.090   6.306  11.173 -0.1101 -0.1772 -0.0479
 4272W        W20166   8.624  14.320  14.168 -0.0599  0.1997 -0.3885
 4273W        W20167  15.893  11.448  12.341 -0.3844 -0.2038 -0.1295
 4274W        W20168   2.189  10.104   0.156  0.2955 -0.0986 -0.0050
 4275W        W20169   3.473   2.980  12.299 -0.1430 -0.2315  0.1364
 4276W        W20170  12.444  11.943  10.597 -0.0052  0.5241  0.3600
 4277W        W20171   8.527   2.670   1.029 -0.0316 -0.4463  0.2355
 4278W        W20172  10.537   4.388  15.304  0.2857  0.0202  0.1174
 4279W        W20173  12.208  16.820  13.299  0.2257  0.1244 -0.3343
 4280W        W20174   1.171  13.716   4.530  0.3650 -0.0942  0.0292
 4281W        W20175  13.111   6.251  15.353  0.0849 -0.0562  0.1176
 4282W        W20176  16.089  16.050   2.907 -0.0217  0.1900 -0.1873
 4283W        W20177   9.892  16.567  14.696  0.1347 -0.3563  0.1090
 4284W        W20178  11.249   4.790  15.345  0.1352  0.0400  0.1941
 4285W        W20179  10.961   2.849   1.060  0.1883 -0.1840  0.0196
 4286W        W20180   2.420  17.759   3.213 -0.1838 -0.1528 -0.0408
 4287W        W20181  17.325  10.171  12.466  0.0959  0.1134  0.0272
 4288W        W20182   5.997   3.681   2.657  0.0967 -0.0817  0.1677
 4289W        W20183  13.642  17.793   4.028 -0.1577 -0.0431  0.1616
 4290W        W20184   7.081   0.128   2.836 -0.3512  0.0896  0.3260
 4291W        W20185  18.542  18.182  13.668  0.0330  0.1268 -0.2142
 4292W        W20186   0.067   9.882   2.515 -0.1452 -0.2816 -0.1338
 4293W        W20187   9.581   2.479  13.499  0.0015  0.2309  0.1063
 4294W        W20188   7.390  16.055   0.420 -0.1938 -0.2075  0.0280
 4295W        W20189   6.248  11.754  10.561  0.0673  0.3017 -0.2159
 4296W        W20190  11.807  17.917   3.081 -0.2022  0.1557  0.0963
 4297W        W20191  10.186   5.532   4.239  0.0886 -0.0920  0.0902
 4298W        W20192   8.993  10.622   3.391  0.2313  0.0235 -0.0313
 4299W        W20193  12.625  12.799   0.750 -0.1524  0.1911  0.2155
 4300W        W20194   9.304   7.992   0.401  0.4217  0.2216  0.4214
 4301W        W20195  13.994   1.086   3.211 -0.5586  0.2912  0.0317
 4302W        W20196  11.781   1.386   1.994 -0.2704  0.0170  0.0262
 4303W        W20197  10.593  14.071  12.330  0.0713 -0.1093 -0.2723
 4304W        W20198  15.366  14.611   0.155 -0.1220  0.1048 -0.0084
 4305W        W20199   1.109   1.883   9.490  0.2245 -0.0618 -0.0554
 4306W        W20200   3.452   0.758  14.868  0.0975  0.1019  0.1741
 4307W        W20201   5.838   9.336   1.554 -0.0194  0.0427 -0.0320
 4308W        W20202   7.223   9.367   2.331  0.1362 -0.2569  0.0342
 4309W        W20203   5.322  16.019  15.411 -0.1048  0.1280 -0.5658
 4310W        W20204  12.869  11.382   2.809 -0.0844  0.0902 -0.1350
 4311W        W20205   7.583   0.886  14.663 -0.3764 -0.2905  0.3075
 4312W        W20206  13.078   4.289  13.029 -0.0962  0.1174 -0.2631
 4313W        W20207   9.686  10.104   4.516  0.4482 -0.0218 -0.0814
 4314W        W20208  13.932   0.987  14.847 -0.0140  0.0035 -0.2833
 4315W        W20209   3.290  16.848   6.075 -0.2460 -0.1592  0.0901
 4316W        W20210  18.559  17.020   3.350 -0.2708  0.0057 -0.0886
 4317W        W20211  17.772  10.312  12.701 -0.0869 -0.2731 -0.0260
 4318W        W20212  18.673   4.089   4.611  0.3175 -0.0124  0.0648
 4319W        W20213   1.747   9.819   2.511 -0.3949 -0.1000 -0.1918
 4320W        W20214   8.811   2.206  12.949  0.1575 -0.0399 -0.1647
 4321W        W20215   7.754   9.252   0.797 -0.0491 -0.2590 -0.0726
 4322W        W20216   7.914   0.453   1.389  0.1855  0.0635  0.1462
 4323W        W20217  13.896   0.497   3.321 -0.1967 -0.2271 -0.1370
 4324W        W20218  18.329   1.824   4.017  0.1339 -0.3028 -0.1631
 4325W        W20219   7.364   1.624  10.612  0.1151  0.0961 -0.3014
 4326W        W20220   8.691  13.154   5.472 -0.2739  0.1288 -0.2540
 4327W        W20221  15.953   9.355   5.012 -0.0318  0.2137 -0.0735
 4328W        W20222  15.636   9.719   1.262  0.0426  0.1101  0.3526
 4329W        W20223  14.975  16.403  10.200  0.0866  0.0538  0.1182
 4330W        W20224  12.160   6.984   0.022  0.2934 -0.1621 -0.0451
 4331W        W20225  10.620  13.230   1.717  0.2304  0.2350  0.0675
 4332W        W20226   3.856   6.024   4.664  0.0974  0.3310 -0.2102
 4333W        W20227   4.197  13.247   4.670 -0.0807  0.3871 -0.1592
 4334W        W20228   4.377   2.542   1.060  0.3091  0.0168  0.1344
 4335W        W20229   5.468   5.165  11.503  0.0170 -0.2427 -0.0625
 4336W        W20230  16.999  10.139   3.912  0.0761 -0.0276  0.0899
 4337W        W20231  10.234  14.489  15.382 -0.1314  0.3184 -0.1935
 4338W        W20232   3.850   0.968  10.943 -0.3017  0.3235  0.0328
 4339W        W20233   4.298   5.767   0.250  0.0046  0.3347 -0.3887
 4340W        W20234   3.415  17.099  14.471  0.0467 -0.0366  0.1596
 4341W        W20235  16.103   9.446   2.990  0.3696 -0.1095 -0.5231
 4342W        W20236  10.330  15.779   0.185 -0.0415 -0.1574  0.0519
 4343W        W20237  10.855  14.488   2.441 -0.1145 -0.1200  0.3633
 4344W        W20238  10.433   5.959   2.327  0.1969 -0.4578 -0.0531
 4345W        W20239   2.369   8.658   0.903 -0.4158 -0.5065 -0.1999
 4346W        W20240  11.720   7.521  11.631  0.2469  0.0933 -0.2491
 4347W        W20241   5.591  11.927   3.877 -0.0611  0.2616  0.2887
 4348W        W20242   8.474  17.268  14.938 -0.1218 -0.0855  0.2261
 4349W        W20243   7.736  16.009   5.212  0.1927 -0.0134 -0.0886
 4350W        W20244   4.018  11.504   2.828  0.1399  0.1306 -0.1839
 4351W        W20245  13.721   3.306   3.132 -0.2008  0.0460  0.2576
 4352W        W20246  17.061  18.848  14.530  0.0697  0.2445 -0.0185
 4353W        W20247   9.395   5.766   3.122 -0.3453  0.0682  0.0338
 4354W        W20248   9.537   9.906   0.482 -0.0365 -0.3582 -0.2033
 4355W        W20249  16.237   1.290   2.372  0.0995  0.0274 -0.0668
 4356W        W20250  15.861   3.005  12.773  0.0314  0.2270 -0.0857
 4357W        W20251   2.832   2.358   4.931  0.1004 -0.4200 -0.3131
 4358W        W20252  12.380   5.065   1.718 -0.2976 -0.0305  0.1942
 4359W        W20253  17.615  10.739  12.982  0.0323  0.0242 -0.0665
 4360W        W20254  14.873   7.470   0.086 -0.2716  0.0902 -0.2906
 4361W        W20255   2.867   9.339  10.806 -0.1786  0.3250 -0.1359
 4362W        W20256   8.753  13.454  15.292 -0.2383  0.1005 -0.1429
 4363W        W20257   8.899   8.234  12.937  0.0856  0.3519 -0.0195
 4364W        W20258  18.692  16.014  12.943  0.0294 -0.1958 -0.2250
 4365W        W20259   2.252  14.043   3.294 -0.0492  0.0498  0.2903
 4366W        W20260  17.508  16.122   1.458  0.1273  0.1446 -0.1772
 4367W        W20261   9.151  14.315   1.338  0.3607  0.0027 -0.1674
 4368W        W20262  18.116  14.459   4.150 -0.2056 -0.0019 -0.1014
 4369W        W20263   0.466  18.298   1.340 -0.1930  0.0191  0.1746
 4370W        W20264   7.450  12.156   2.127  0.4272 -0.2529 -0.1368
 4371W        W20265  16.945  13.841   4.373 -0.0617  0.2411 -0.0125
 4372W        W20266   1.668   6.626   1.169 -0.0123  0.2385  0.1437
 4373W        W20267  14.216  12.882  10.997 -0.0145  0.2182  0.0065
 4374W        W20268   7.649   0.563  13.702  0.0583  0.4920  0.2249
 4375W        W20269   5.184  14.348   4.708  0.4988 -0.1667  0.0020
 4376W        W20270  16.941   5.005  14.574  0.5912  0.1140  0.1655
 4377W        W20271  12.378   8.729   1.947 -0.3679 -0.2693 -0.0843
 4378W        W20272  16.948   9.829   0.880  0.1218 -0.0586 -0.2240
 4379W        W20273  17.957  15.101  10.816 -0.3049 -0.2756 -0.0651
 4380W        W20274  16.858  10.741   0.169 -0.0025 -0.0216 -0.0657
 4381W        W20275  14.621   8.364   2.559  0.0818  0.3498 -0.1162
 4382W        W20276  13.760   0.752  11.293  0.1392 -0.0462 -0.0344
 4383W        W20277   8.783   4.519   3.966  0.2343  0.0290  0.1309
 4384W        W20278  15.082   2.772   5.823 -0.0731 -0.0106  0.0007
 4385W        W20279   3.249  16.806  10.928 -0.2332  0.0055  0.3406
 4386W        W20280   2.589  12.491  15.132  0.0270 -0.0207  0.1227
 4387W        W20281   5.801   4.950  11.109 -0.2105  0.1015 -0.3752
 4388W        W20282   8.768   1.811   0.392  0.1807  0.1632  0.0309
 4389W        W20283   6.358   8.833   1.953 -0.3860 -0.2140 -0.0572
 4390W        W20284  10.784   5.053   1.513 -0.0426  0.3060  0.1206
 4391W        W20285   9.654  11.382   0.665 -0.0094 -0.1130  0.0159
 4392W        W20286   5.966  18.430   4.116 -0.0573  0.1477  0.2121
 4393W        W20287  18.210   0.852  13.889 -0.1180 -0.2912  0.1838
 4394W        W20288   3.494   7.443  13.361  0.1380  0.0879 -0.1821
 4395W        W20289  17.430   4.251   2.241 -0.0448  0.1574 -0.1104
 4396W        W20290  16.154   6.420   4.294 -0.3357 -0.1965 -0.1619
 4397W        W20291   4.392   9.823  15.318  0.0590  0.1727 -0.5475
 4398W        W20292  13.150   9.316  12.241 -0.1671 -0.0964 -0.1045
 4399W        W20293  15.649  17.865   0.129 -0.1659  0.1580 -0.0413
 4400W        W20294  10.959   6.279  15.038 -0.1186  0.0134 -0.0972
 4401W        W20295  15.042   3.672   4.148  0.1139  0.1474 -0.1967
 4402W        W20296   1.796  12.997   4.892 -0.0978 -0.2154  0.0303
 4403W        W20297   1.483  18.251   4.079  0.1765 -0.0539 -0.0365
 4404W        W20298   2.543  12.438   3.896  0.1080  0.0691 -0.0748
 4405W        W20299   1.020   6.004  10.913  0.4234  0.1852 -0.0105
 4406W        W20300  10.079   8.957  11.189  0.2236 -0.2632  0.0257
 4407W        W20301   5.909   8.169   2.406 -0.0240 -0.2514 -0.2159
 4408W        W20302   7.465   8.971   0.491 -0.1262 -0.0311 -0.0109
 4409W        W20303   5.770   7.988   4.524  0.0409  0.0333 -0.3943
 4410W        W20304  16.922   2.279  12.072 -0.0041 -0.0799 -0.1480
 4411W        W20305  17.828   2.164   0.346  0.0872 -0.2035 -0.2319
 4412W        W20306   1.548   7.123  10.689  0.1914  0.2958  0.0794
 4413W        W20307  10.491   8.033   0.643 -0.4243  0.0381 -0.0912
 4414W        W20308  11.127   8.521  10.953  0.0769 -0.0832  0.0977
 4415W        W20309   2.370   6.939   0.791 -0.2098  0.3356  0.0853
 4416W        W20310   0.151  17.130   4.191 -0.2386 -0.2728  0.0714
 4417W        W20311   2.903   6.462   3.894 -0.1054 -0.1713 -0.1422
 4418W        W20312  11.654   7.112   2.920 -0.0581 -0.0062  0.0649
 4419W        W20313   1.621  14.443  11.279 -0.0669  0.2733 -0.2151
 4420W        W20314  10.973  11.063   3.926 -0.0651  0.0041 -0.0990
 4421W        W20315  18.540   9.121  15.199 -0.2801 -0.0325 -0.1424
 4422W        W20316   9.723   3.502  13.417 -0.0723 -0.0100 -0.1180
 4423W        W20317  17.458  16.921  12.534 -0.1431  0.0865  0.0356
 4424W        W20318  14.000   4.449   4.555  0.1061 -0.1600  0.0293
 4425W        W20319  11.309   6.528  14.719 -0.2591  0.2880 -0.0155
 4426W        W20320  17.321  10.019  14.519  0.0432 -0.2235 -0.0192
 4427W        W20321  14.092   1.609   3.517 -0.4016  0.0000 -0.1329
 4428W        W20322   3.318   0.491  12.038 -0.1184  0.1253  0.0482
 4429W        W20323  17.791  10.369  12.188 -0.0105  0.1527 -0.2478
 4430W        W20324  18.370  15.352   0.639  0.0196 -0.1264  0.0068
 4431W        W20325  18.049  11.814   0.059  0.0871 -0.1028 -0.0821
 4432W        W20326   1.711  18.032   5.519  0.2552 -0.0625  0.4187
 4433W        W20327  12.274  18.090   4.060 -0.2378 -0.0989  0.3470
 4434W        W20328  18.638   3.433  10.823 -0.0798  0.1453  0.0203
 4435W        W20329   8.779  16.289   5.323 -0.0585 -0.1618 -0.0356
 4436W        W20330  13.925  12.723  10.621 -0.3110 -0.1849  0.0910
 4437W        W20331  15.686  12.007   0.606  0.3589 -0.1204 -0.0771
 4438W        W20332   5.286  16.078   1.824 -0.2299 -0.1574 -0.0171
 4439W        W20333  17.296   0.005   3.439 -0.0733  0.0565 -0.1915
 4440W        W20334   6.120  10.421   5.761  0.0613 -0.1662  0.2768
 4441W        W20335  10.386  15.264   2.018  0.2606 -0.1760 -0.0487
 4442W        W20336  14.842   3.323  12.720 -0.2861 -0.2109  0.0656
 4443W        W20337  11.860  13.421   0.726  0.2038  0.0509  0.4029
 4444W        W20338  11.281   2.195   4.556  0.1406 -0.0799  0.1875
 4445W        W20339  15.766   5.634  11.551 -0.1817  0.0102 -0.0091
 4446W        W20340  14.082   2.584   5.143 -0.1628 -0.1938 -0.1402
 4447W        W20341   6.179   3.991   3.251  0.3562  0.2991 -0.1313
 4448W        W20342   4.758   5.062  10.993  0.1305  0.0934 -0.0310
 4449W        W20343  15.912   5.928  14.417  0.1696 -0.2468  0.0083
 4450W        W20344  13.638   5.720  14.444 -0.0617 -0.0667  0.1718
 4451W        W20345   6.111   6.016  13.729 -0.0309 -0.1374 -0.1519
 4452W        W20346   6.835   3.729   3.888 -0.0693 -0.0238  0.1943
 4453W        W20347   9.612  10.863  12.164  0.3798  0.3376  0.2773
 4454W        W20348  18.354   2.124   1.188 -0.2821 -0.0149 -0.2209
 4455W        W20349   9.272   6.573   1.770  0.0400 -0.1074  0.0346
 4456W        W20350  10.680   9.269  11.828  0.1030 -0.0820  0.1506
 4457W        W20351   2.550   7.964   5.478  0.1373 -0.2123  0.2109
 4458W        W20352   0.343  14.976   3.245 -0.0467 -0.3441  0.1009
 4459W        W20353  17.000  14.075  10.365  0.2460 -0.1986  0.1050
 4460W        W20354   5.873  16.736   4.915 -0.1380  0.0444  0.0560
 4461W        W20355  16.233  17.650  15.108  0.1299 -0.0596 -0.0457
 4462W        W20356   6.930  14.318   3.822 -0.0502  0.0461  0.2670
 4463W        W20357   4.954   7.161  10.981  0.1088  0.2264  0.0412
 4464W        W20358  14.374   6.706  11.242  0.1884 -0.0138  0.0227
 4465W        W20359   2.748  11.917  12.037 -0.2232  0.1742 -0.0997
 4466W        W20360  14.268   0.750   5.156 -0.0406 -0.2702 -0.0353
 4467W        W20361   0.544  18.651  13.180  0.2036  0.1972  0.0521
 4468W        W20362   3.998  18.215   1.547  0.0922 -0.0283 -0.0603
 4469W        W20363   0.835  11.460   0.741 -0.3251  0.1500  0.0517
 4470W        W20364  16.224  17.221  12.092  0.1065  0.3383 -0.0107
 4471W        W20365  17.434  17.245  12.963 -0.2863 -0.0245  0.2703
 4472W        W20366   3.854  12.833   4.723  0.1750 -0.2923  0.3079
 4473W        W20367  13.588   3.384  13.939  0.2786 -0.2720  0.0310
 4474W        W20368  14.721  15.236   2.799  0.0728  0.1586 -0.5559
 4475W        W20369   1.076   3.193   5.612  0.0211  0.1376 -0.1789
 4476W        W20370   5.080   9.388   3.890 -0.2320  0.1388 -0.0894
 4477W        W20371   4.181   4.548  10.726  0.2756  0.0568  0.1624
 4478W        W20372  11.796  14.962   0.979 -0.0437 -0.0533 -0.2201
 4479W        W20373  10.499   3.545  13.089  0.2134 -0.1394  0.1822
 4480W        W20374   2.907   9.457  14.592  0.1130 -0.2256  0.1405
 4481W        W20375  11.776  13.433   1.716 -0.1114  0.0345  0.1192
 4482W        W20376   3.420   9.866   1.343 -0.1942  0.2227  0.1591
 4483W        W20377   0.612   9.348  13.231  0.2355 -0.0965 -0.1444
 4484W        W20378   4.229  18.493  14.321 -0.1245 -0.0303  0.1136
 4485W        W20379  11.089   3.182  14.424  0.1041 -0.0505  0.2402
 4486W        W20380  14.987   8.035  12.933 -0.0106  0.0477  0.4056
 4487W        W20381  10.083  15.089   2.355 -0.2478 -0.1166 -0.0395
 4488W        W20382   3.308   1.638  14.755  0.0141 -0.0727  0.0963
 4489W        W20383   7.672   9.499  11.495 -0.1310  0.0270 -0.1678
 4490W        W20384   9.493  11.659  11.740 -0.0894 -0.3545  0.0727
 4491W        W20385   7.793   4.490  13.783  0.1335  0.0165 -0.0432
 4492W        W20386  13.272   9.323   1.097 -0.0933 -0.1566 -0.1765
 4493W        W20387  10.229   7.379   4.985 -0.0285 -0.0575 -0.0064
 4494W        W20388  11.284  10.036   3.472 -0.1231 -0.1220  0.0695
 4495W        W20389   2.042   8.228   3.584  0.1879  0.0392  0.1520
 4496W        W20390   6.414  14.119  11.598 -0.1025 -0.1773 -0.1203
 4497W        W20391  10.259  17.939   1.423  0.0150 -0.1682 -0.1408
 4498W        W20392  16.603   6.409  14.471  0.2463 -0.0031  0.0723
 4499W        W20393   7.947   2.343   3.787 -0.1544 -0.0494  0.1251
 4500W        W20394  18.033  12.552   0.626 -0.0561 -0.0952  0.0408
 4501W        W20395  14.156  11.105  12.473  0.3527 -0.2064  0.0289
 4502W        W20396   3.616  11.917   1.493 -0.1155  0.0134 -0.0308
 4503W        W20397   6.366  13.231  14.576 -0.1114 -0.2590 -0.0525
 4504W        W20398  10.330   1.883   5.111 -0.2892  0.3996  0.0417
 4505W        W20399   0.292  12.484  14.604  0.0315 -0.3721  0.2208
 4506W        W20400   1.537  18.690   4.285 -0.0848  0.2384  0.0794
 4507W        W20401   2.629  16.628  12.665 -0.0479  0.0420  0.2180
 4508W        W20402  12.580   0.432   5.252 -0.3081 -0.1042  0.3596
 4509W        W20403  12.803  18.055  12.571 -0.0175  0.0946 -0.3682
 4510W        W20404   0.761   6.584   2.533 -0.3156 -0.2543 -0.1519
 4511W        W20405   7.104   5.714  12.107 -0.1040  0.2405 -0.2167
 4512W        W20406   5.866  16.336  12.091  0.0095  0.2684  0.0225
 4513W        W20407  17.510  13.250  14.920 -0.1751 -0.2385 -0.0054
 4514W        W20408  13.338  15.441  14.131 -0.1036  0.1091 -0.1369
 4515W        W20409  18.127  13.462   0.476  0.3238  0.1161 -0.1800
 4516W        W20410   2.256   6.145  14.726  0.0489 -0.0098  0.1278
 4517W        W20411   5.319   1.657  11.184  0.2726  0.1862 -0.0583
 4518W        W20412  11.754   1.794  14.082  0.0789 -0.1774  0.1546
 4519W        W20413   9.129  11.839   3.447  0.4603 -0.1367  0.0262
 4520W        W20414  11.471  13.433   6.153  0.3399 -0.0678 -0.1788
 4521W        W20415  13.421  11.446  14.810  0.2177 -0.1461  0.1630
 4522W        W20416   8.894   4.430  13.867  0.1463  0.5027  0.0608
 4523W        W20417  18.498   8.035   3.850  0.1042 -0.0907 -0.0916
 4524W        W20418   2.885  18.603   5.486 -0.2612  0.1862 -0.0048
 4525W        W20419  12.835  14.573   1.076 -0.0099  0.1401 -0.0553
 4526W        W20420  14.819  12.130   4.006  0.0230  0.1954 -0.3209
 4527W        W20421   8.857   4.864  14.138  0.0315 -0.1925 -0.2218
 4528W        W20422  16.620  17.140  14.280 -0.5108  0.1966 -0.0473
 4529W        W20423   9.625   6.508  14.002 -0.0573 -0.1989 -0.0253
 4530W        W20424  12.072   8.791  12.613 -0.1485  0.0182  0.0327
 4531W        W20425  13.348  13.163   2.976  0.2795  0.2199  0.2898
 4532W        W20426   1.456   8.180  12.883 -0.0328 -0.0450 -0.1373
 4533W        W20427   0.539  13.911  15.282  0.0432 -0.2312  0.0096
 4534W        W20428   8.599   2.104  11.437  0.0198 -0.1072  0.0924
 4535W        W20429  11.504  14.811  12.162 -0.0894  0.0772  0.2263
 4536W        W20430   3.703   6.174  13.475 -0.0808  0.2262 -0.4075
 4537W        W20431   4.997  15.065  10.629 -0.0366 -0.0589  0.1221
 4538W        W20432   7.102  12.287  12.085 -0.2837  0.4506 -0.1241
 4539W        W20433   6.005   0.356  13.681  0.0015 -0.3107  0.0465
 4540W        W20434  14.769   2.154   3.287  0.0260  0.1077  0.1021
 4541W        W20435  14.815  10.464   5.020 -0.0627 -0.3057  0.1625
 4542W        W20436  11.262   5.637  12.435  0.4264 -0.1235 -0.1569
 4543W        W20437   9.052   4.096   3.425 -0.0717  0.1686 -0.1119
 4544W        W20438  14.056  18.559   0.056 -0.0134  0.2892  0.2827
 4545W        W20439   4.072   9.008  12.199  0.1010  0.0066  0.1097
 4546W        W20440   9.712  11.540   4.525  0.2795  0.1000  0.2693
 4547W        W20441   6.801   8.290   2.615  0.0600  0.0030  0.0195
 4548W        W20442   7.124  10.184   5.126 -0.1545  0.0130  0.1927
 4549W        W20443  12.984  10.491   2.414  0.0783 -0.2596 -0.1326
 4550W        W20444   8.921   3.115   1.683  0.1029  0.2917 -0.0814
 4551W        W20445   4.699   4.689   0.617 -0.0152  0.2305  0.0546
 4552W        W20446  18.034  16.554  14.879  0.0641  0.2136 -0.2057
 4553W        W20447  11.845   3.997   0.180 -0.0846  0.2052  0.0323
 4554W        W20448   6.111  11.833   5.422  0.3999  0.0562 -0.1243
 4555W        W20449  14.733   1.932  14.393  0.0728  0.2087  0.3929
 4556W        W20450  14.972  10.310  10.516 -0.2208 -0.0262  0.1277
 4557W        W20451   7.107  13.574  12.491  0.0798 -0.2516  0.0425
 4558W        W20452  18.275   2.945  14.751  0.0686 -0.0532  0.1007
 4559W        W20453  11.668  13.404  11.092 -0.1557 -0.0164 -0.2052
 4560W        W20454   7.551   9.488  13.698 -0.1931  0.1233  0.0769
 4561W        W20455  11.738  13.998  14.975 -0.0572  0.2333 -0.0728
 4562W        W20456   6.404   9.646   4.170  0.0596  0.1231  0.0483
 4563W        W20457  16.243  13.181  11.285 -0.1952  0.0910 -0.2668
 4564W        W20458   6.963  17.836  13.917 -0.0890  0.0359 -0.0617
 4565W        W20459   0.786   7.346  12.612 -0.2084 -0.1033 -0.1049
 4566W        W20460  12.604   9.928   0.848 -0.1027 -0.1019  0.0150
 4567W        W20461  16.438  11.927   2.614  0.1179  0.1696 -0.2300
 4568W        W20462   1.606   9.501  11.491  0.1181 -0.2583 -0.2061
 4569W        W20463   3.969   0.840  15.164  0.1675  0.2920  0.3951
 4570W        W20464  10.914   8.116   4.099  0.0242  0.2928  0.1892
 4571W        W20465  11.575   8.458  12.564 -0.2669  0.2036  0.2034
 4572W        W20466  14.104  11.462  10.805  0.1094 -0.1716 -0.0287
 4573W        W20467   3.846  18.027  13.095  0.2795  0.3042  0.3146
 4574W        W20468  17.873  12.444   2.867  0.2173  0.0718  0.0943
 4575W        W20469  10.860  15.415   5.461  0.0294 -0.2520  0.1673
 4576W        W20470  11.932   0.391  14.305 -0.3130  0.2140  0.1600
 4577W        W20471  12.284   4.904   0.758 -0.0945 -0.1981 -0.1002
 4578W        W20472  12.217   6.020  11.141  0.1774 -0.0833  0.0579
 4579W        W20473  16.120  18.484  14.546 -0.2897 -0.0727 -0.0293
 4580W        W20474  17.307  14.216   5.750  0.3043 -0.3417  0.1024
 4581W        W20475  18.026  18.238   4.129 -0.1212  0.0342 -0.1452
 4582W        W20476   1.369   9.634  11.994 -0.1604  0.2451 -0.0123
 4583W        W20477  18.261   0.672   2.624  0.2238 -0.4398  0.0199
 4584W        W20478  11.756   1.826  11.510 -0.3062 -0.2124 -0.2499
 4585W        W20479   4.629   4.783   0.064  0.2868 -0.0010  0.1542
 4586W        W20480   5.080   9.212   1.668 -0.1443 -0.1962 -0.1445
 4587W        W20481   6.012  17.722   2.597  0.2903 -0.0548 -0.1353
 4588W        W20482   7.901  17.188  14.202 -0.1044 -0.0830 -0.0756
 4589W        W20483  12.044   7.255  13.592  0.0285 -0.2663 -0.1463
 4590W        W20484   5.708   4.052  13.886 -0.1861 -0.1941 -0.0962
 4591W        W20485   4.548  11.099  12.333  0.2514 -0.0686 -0.0093
 4592W        W20486  14.895   9.858   2.728 -0.1650  0.1610  0.1652
 4593W        W20487  16.089   7.579   1.192 -0.1002  0.2566 -0.0845
 4594W        W20488  13.724   5.436  13.359 -0.3891 -0.3148  0.1780
 4595W        W20489  10.194   6.126   1.332  0.3422 -0.1204  0.1906
 4596W        W20490   2.224  10.985   2.874 -0.1355 -0.0166 -0.0967
 4597W        W20491  15.980   5.293  12.634  0.1669 -0.1777  0.2273
 4598W        W20492  12.155  17.720  13.641  0.0468  0.1082  0.0140
 4599W        W20493   3.614   7.974  15.335  0.3188 -0.0898 -0.1330
 4600W        W20494   2.412   8.134   2.301 -0.1635 -0.1121 -0.1094
 4601W        W20495  10.472   2.476  14.247 -0.0907  0.0440 -0.2240
 4602W        W20496   1.146   7.046  14.547  0.2265  0.1766 -0.2068
 4603W        W20497  13.910  13.611  11.299 -0.2282 -0.2905 -0.3446
 4604W        W20498  17.441   9.883   0.646  0.0637 -0.2184 -0.0670
 4605W        W20499  10.169  17.524   1.857  0.5017  0.0003  0.0103
 4606W        W20500   2.062  14.109   5.552  0.0850 -0.0187  0.0069
 4607W        W20501   2.819   7.611   3.520  0.1883  0.0837 -0.2571
 4608W        W20502   4.126   2.353  15.054 -0.1217  0.1124 -0.0201
 4609W        W20503   4.054   5.480   2.537  0.5120  0.2116  0.0460
 4610W        W20504  14.388   3.565   4.164 -0.1308 -0.0861 -0.1618
 4611W        W20505  18.154   5.378  15.119  0.0926  0.3455  0.1936
 4612W        W20506  12.911   7.988   3.638  0.3302 -0.1029 -0.0314
 4613W        W20507  15.985  18.110   4.474 -0.2424  0.1186  0.0292
 4614W        W20508   1.742   8.872  14.359  0.0660  0.0083  0.3413
 4615W        W20509  13.103  14.890  12.294 -0.0281 -0.0034  0.2681
 4616W        W20510  16.513  13.796   0.878  0.0157 -0.1864  0.3018
 4617W        W20511   1.571  11.051  11.858  0.0024  0.1458  0.0015
 4618W        W20512  14.312   4.377  11.095 -0.2105 -0.1805  0.2195
 4619W        W20513   2.411   7.940  10.334  0.1161 -0.2392  0.2806
 4620W        W20514   9.876   5.290  11.337  0.0547 -0.1462 -0.2577
 4621W        W20515  11.720   2.505  14.477 -0.0829  0.0859 -0.1259
 4622W        W20516  15.699   1.041   0.564 -0.1603 -0.0405 -0.2277
 4623W        W20517   4.610   1.351   3.807 -0.0087  0.0123 -0.1274
 4624W        W20518  18.286   9.078   1.542 -0.1803  0.1395 -0.2631
 4625W        W20519  11.698   4.895  14.716 -0.0373 -0.1483 -0.1174
 4626W        W20520   0.872   4.484   1.643 -0.1041  0.0898 -0.0850
 4627W        W20521   6.259  11.667  11.581  0.0414 -0.0658 -0.0279
 4628W        W20522   2.419  13.648   0.346  0.2380 -0.2967 -0.1060
 4629W        W20523   4.701  10.621   1.132 -0.0226  0.1344  0.1332
 4630W        W20524   3.299  10.427   0.541 -0.1477 -0.0504  0.1479
 4631W        W20525  10.163  15.788  11.409  0.0450  0.0941 -0.4084
 4632W        W20526  11.022  14.497   0.530  0.0700  0.2178  0.1153
 4633W        W20527  10.273   6.554  14.934 -0.2134 -0.0767  0.1235
 4634W        W20528   3.341  12.228   1.828 -0.1969 -0.0119 -0.0812
 4635W        W20529   0.145  13.908   4.692 -0.0565  0.0923 -0.2717
 4636W        W20530  11.343   1.536  11.715  0.1101 -0.0068  0.0499
 4637W        W20531  17.390  15.848  12.336  0.3456 -0.2714  0.5939
 4638W        W20532   6.209   0.798   3.161  0.1454  0.0706  0.1266
 4639W        W20533  15.557   3.271   3.235  0.0766 -0.1535 -0.0042
 4640W        W20534  14.935  18.467  13.467 -0.1937 -0.2704  0.1961
 4641W        W20535   8.594   2.947  13.509 -0.0892  0.1521 -0.1612
 4642W        W20536   1.442  11.313   2.448 -0.0968 -0.0773 -0.2029
 4643W        W20537  10.961   2.044   0.948  0.0154 -0.4000  0.2585
 4644W        W20538  16.389  14.588   0.354 -0.0546  0.1184 -0.1245
 4645W        W20539  10.132   0.230   1.961 -0.2236 -0.0177 -0.0242
 4646W        W20540   0.807   2.870  14.471  0.2512 -0.1758 -0.0523
 4647W        W20541   7.631   5.940  12.895  0.0931 -0.2294 -0.0403
 4648W        W20542  10.823  16.337  11.537  0.0953  0.0835 -0.0764
 4649W        W20543   5.624   5.359  15.415 -0.1051  0.1588  0.2052
 4650W        W20544   9.883  15.531  12.357  0.0852  0.1710  0.0135
 4651W        W20545  10.732   8.987  15.485  0.2763  0.2114 -0.3354
 4652W        W20546   4.275  16.726   4.061  0.1639  0.3282 -0.3384
 4653W        W20547   2.290  12.951   4.955 -0.0085  0.1338 -0.1790
 4654W        W20548   5.450   4.534  13.101  0.1190  0.1381  0.4083
 4655W        W20549   0.378  10.119   4.357  0.0567 -0.2034  0.0014
 4656W        W20550   4.337   8.681   1.155  0.0888  0.2017  0.3947
 4657W        W20551   1.781   1.281  11.816 -0.2222  0.1175  0.0838
 4658W        W20552  11.970   3.159  11.062  0.1816  0.1588  0.0834
 4659W        W20553   7.572  17.283  12.572  0.0987  0.0169  0.0743
 4660W        W20554  14.495  12.643  15.176  0.2097  0.5005  0.0642
 4661W        W20555   6.421  11.253  12.481  0.4209  0.1464 -0.0077
 4662W        W20556  16.549   5.063   0.676  0.0033  0.2269 -0.3537
 4663W        W20557  13.396   3.761   1.914 -0.1961 -0.2158  0.0046
 4664W        W20558   3.546  14.932  11.423  0.0826 -0.0566  0.1383
 4665W        W20559   9.630  14.151   3.625 -0.2406 -0.3329  0.1593
 4666W        W20560  10.484  11.155  11.043  0.2792 -0.0319 -0.1229
 4667W        W20561  17.131  10.438  12.087 -0.1202  0.0702 -0.1367
 4668W        W20562  11.498  14.384  15.342  0.0133 -0.3578 -0.1302
 4669W        W20563  14.999   7.497   0.597  0.0311 -0.1742 -0.0341
 4670W        W20564   0.979   7.410  13.224  0.2296 -0.2579  0.0223
 4671W        W20565  11.405  16.517  11.646 -0.3932  0.1886 -0.2980
 4672W        W20566   7.673  13.485  11.239 -0.1721 -0.1628 -0.4648
 4673W        W20567  16.665   7.361   0.878 -0.0310  0.0200  0.1167
 4674W        W20568   8.168  11.837   1.374 -0.2789  0.1921  0.1163
 4675W        W20569   3.269  13.429  11.060 -0.5995  0.0329 -0.1402
 4676W        W20570  13.196  16.508   4.870  0.7686 -0.2232  0.3282
 4677W        W20571   9.090  10.175  15.141  0.1855  0.2272  0.1162
 4678W        W20572  13.890  14.846   0.194 -0.2240 -0.2550 -0.2629
 4679W        W20573  13.342   9.060   4.608  0.2914 -0.1020  0.3111
 4680W        W20574   8.523  18.583  14.468  0.1154  0.0199  0.2778
 4681W        W20575   4.254  16.957   1.600 -0.0480 -0.0523 -0.0157
 4682W        W20576  12.785  14.180  11.025 -0.1441  0.2525  0.0673
 4683W        W20577   3.405  10.821   3.559 -0.1965  0.1352 -0.2102
 4684W        W20578  12.122  15.052   5.724 -0.2879 -0.1052 -0.2261
 4685W        W20579   7.749  14.187  12.654  0.0612 -0.2881  0.4301
 4686W        W20580  11.451  16.567   3.285  0.1135  0.0469 -0.2929
 4687W        W20581  13.332   8.866   3.674 -0.2923  0.3364  0.2099
 4688W        W20582   2.237   7.472   1.607  0.0308  0.0454  0.1825
 4689W        W20583  17.595   9.739  13.195 -0.0053  0.0727 -0.0821
 4690W        W20584  18.701   0.177   0.870  0.2266  0.0180 -0.2080
 4691W        W20585   9.707  14.562  15.429 -0.1405 -0.0268 -0.3505
 4692W        W20586  12.252  11.213   4.903 -0.1834 -0.1095  0.2571
 4693W        W20587  17.727  18.579   4.994  0.0318  0.0793 -0.0839
 4694W        W20588   8.172   2.361   0.959 -0.2954 -0.1475 -0.0302
 4695W        W20589  11.475   3.135   2.611 -0.0920  0.1170 -0.1162
 4696W        W20590  11.481   3.076  15.481 -0.1149 -0.0421 -0.2335
 4697W        W20591   8.645  16.753  12.598  0.0491 -0.3929 -0.2181
 4698W        W20592  12.146  10.583  14.246 -0.1012 -0.0152 -0.0950
 4699W        W20593   9.342   6.774   1.137 -0.3440  0.0528  0.2390
 4700W        W20594   3.673  10.038   0.934  0.1066  0.1481  0.5525
 4701W        W20595   6.293  12.962  15.235  0.0092 -0.2074 -0.2675
 4702W        W20596   1.112  16.270   0.836  0.2041  0.0258 -0.0619
 4703W        W20597  13.153   3.420  13.267 -0.1062 -0.0215  0.3770
 4704W        W20598   0.584  13.501  12.689 -0.0690  0.0453  0.3137
 4705W        W20599   6.426  14.003   0.125  0.0373  0.2259  0.0349
 4706W        W20600  12.661   8.372  14.170  0.1422  0.1474 -0.0396
 4707W        W20601  12.919   9.436  15.358  0.2181 -0.2051  0.0728
 4708W        W20602   2.742  16.216  13.292  0.1234  0.1983 -0.0002
 4709W        W20603  12.557   5.752  15.373  0.0254 -0.0666  0.1632
 4710W        W20604  16.964  17.042   1.167 -0.0777  0.1604  0.2924
 4711W        W20605  18.586  13.195   4.407  0.1427  0.2699  0.0519
 4712W        W20606   9.370   5.108  14.188  0.0819  0.0933  0.1297
 4713W        W20607  13.569   3.008   4.396 -0.0669  0.4607 -0.0160
 4714W        W20608   4.028   5.695  11.161  0.0853  0.1579  0.2427
 4715W        W20609   5.134  14.191   3.392 -0.2086  0.0299 -0.2802
 4716W        W20610   4.157   2.107   4.346 -0.5329  0.0122 -0.0506
 4717W        W20611   4.244  18.742   4.987  0.1056 -0.1060  0.3080
 4718W        W20612  14.370  14.950  12.085 -0.2244  0.1392 -0.1129
 4719W        W20613   2.743  17.166  14.167  0.1185  0.1812 -0.1055
 4720W        W20614  11.693  16.655   2.748 -0.1953  0.2729  0.2536
 4721W        W20615  15.703  11.594   1.450  0.1882  0.0127  0.1744
 4722W        W20616   3.413  13.560   9.280  0.1670  0.0085  0.0207
 4723W        W20617   5.662   2.838   0.973 -0.1285 -0.2594 -0.2998
 4724W        W20618  10.909  10.610  12.268  0.1830  0.0917 -0.0152
 4725W        W20619   6.841  17.539   4.464 -0.1734  0.2027  0.0408
 4726W        W20620   7.534  17.134   4.795 -0.0470 -0.0559 -0.3149
 4727W        W20621  17.698  18.372  12.082 -0.0720  0.1302  0.1491
 4728W        W20622  10.881  16.443   1.876  0.2795 -0.0985  0.0027
 4729W        W20623  13.129  17.002   0.907  0.4983 -0.0423  0.0369
 4730W        W20624  14.147  15.489  13.622 -0.0099  0.0258 -0.2587
 4731W        W20625   8.761  10.934  13.052  0.1562 -0.1694  0.0969
 4732W        W20626   3.856  17.224  11.399 -0.1634  0.0247  0.2673
 4733W        W20627  14.114   1.922  12.781  0.1988  0.0857 -0.1756
 4734W        W20628  11.248  13.176   2.708  0.2420  0.2232  0.4223
 4735W        W20629   3.920  13.899  10.733 -0.3127 -0.1225 -0.0670
 4736W        W20630   3.472   3.817   2.757  0.2066  0.3780 -0.1202
 4737W        W20631   6.588   3.844  13.123 -0.0144  0.1058  0.1908
 4738W        W20632  13.366  13.612  13.093 -0.2850 -0.0928 -0.0558
 4739W        W20633  11.488   9.671   0.107  0.1659  0.0112  0.1979
 4740W        W20634   0.176  13.402  10.887  0.1844  0.3476 -0.0930
 4741W        W20635   4.729  17.595   3.795  0.2661 -0.0061  0.1741
 4742W        W20636   3.066   1.770  13.884  0.0289 -0.3149 -0.0160
 4743W        W20637   1.481   1.819   2.557  0.1940  0.0796 -0.3524
 4744W        W20638  10.254   7.657  14.085  0.0071 -0.1830 -0.1477
 4745W        W20639   2.831   8.839   4.105 -0.0801  0.1833 -0.0002
 4746W        W20640   8.864  17.751   3.644  0.1691  0.1009  0.0148
 4747W        W20641  14.536  10.461   1.803 -0.3613 -0.0620 -0.3742
 4748W        W20642  10.118   7.492  13.040 -0.0559 -0.1399 -0.1168
 4749W        W20643   5.893  16.606   0.390  0.0805  0.0744  0.1003
 4750W        W20644   1.394   9.011   1.035  0.1285 -0.2091 -0.1401
 4751W        W20645  16.549   9.078  11.735  0.0830 -0.0370  0.1300
 4752W        W20646  18.186   6.755  14.961  0.0984 -0.4173  0.2494
 4753W        W20647  15.559   6.331   1.330 -0.0693  0.2860  0.0496
 4754W        W20648  18.074   7.037  11.522 -0.0756 -0.0625 -0.1467
 4755W        W20649  17.018   2.632  11.718  0.1913  0.0196 -0.1607
 4756W        W20650   9.978  12.688   0.947  0.1227 -0.4936  0.0327
 4757W        W20651  17.368  13.444   1.098 -0.0965  0.0149 -0.0832
 4758W        W20652  13.247   7.115  12.670  0.0354  0.0424 -0.2859
 4759W        W20653  17.311   0.913  14.804 -0.0518  0.1844 -0.2990
 4760W        W20654  11.878   4.345  14.360  0.1989 -0.1400  0.1884
 4761W        W20655   6.333  16.025   5.495 -0.2344  0.2464 -0.1114
 4762W        W20656  15.285  15.842  14.694 -0.2305 -0.0518  0.0747
 4763W        W20657   5.354   0.760   0.302 -0.1508 -0.0526  0.0436
 4764W        W20658   1.955   8.497  10.574 -0.2279 -0.4425 -0.1092
 4765W        W20659  16.986  15.792   5.772  0.1555 -0.3210 -0.2376
 4766W        W20660   3.490  16.340   2.331  0.1654 -0.0771 -0.0323
 4767W        W20661  16.266   9.121   0.260 -0.0047 -0.2973  0.1099
 4768W        W20662  12.760  12.382  14.956 -0.0355  0.1957 -0.2387
 4769W        W20663   6.676   5.194  13.407  0.2041  0.1113  0.1077
 4770W        W20664  11.058  11.720  14.074  0.4621  0.2741 -0.1865
 4771W        W20665   2.094  13.136   4.517  0.1624 -0.3690  0.1477
 4772W        W20666  10.526  11.010   1.264  0.1151 -0.1375  0.0919
 4773W        W20667  14.348  13.715  12.502 -0.1672  0.2545  0.0783
 4774W        W20668  11.639  13.375   3.003  0.1071 -0.0609 -0.1691
 4775W        W20669   9.549  12.735  11.237 -0.0214 -0.1908 -0.2277
 4776W        W20670  15.088   3.421   1.831  0.1013 -0.1443  0.2298
 4777W        W20671   4.989  18.489  13.890  0.2550 -0.1342 -0.0089
 4778W        W20672  17.325  14.860   1.045 -0.3306 -0.2809  0.1280
 4779W        W20673  10.757   4.596  13.525  0.0225 -0.0519 -0.4629
 4780W        W20674   7.963  12.956  14.164  0.2392 -0.0642  0.0630
 4781W        W20675   7.014  17.219   1.100  0.1800  0.2484  0.2840
 4782W        W20676  16.990   1.314  12.618  0.2143  0.0788  0.0391
 4783W        W20677  10.249  17.916  12.693 -0.0881 -0.0785 -0.0272
 4784W        W20678  11.529  15.546  12.998 -0.2429 -0.0379 -0.1616
 4785W        W20679  10.405   2.580   3.770 -0.0156  0.0769  0.1088
 4786W        W20680   1.544   2.241   4.326 -0.0270 -0.2558  0.0764
 4787W        W20681   4.143   4.654  13.665  0.1008 -0.1303  0.1688
 4788W        W20682  13.298  10.222   0.703  0.1304  0.1782 -0.0490
 4789W        W20683   5.678  18.449   5.064  0.0080  0.4315 -0.2092
 4790W        W20684   6.916  10.718   2.225  0.0830  0.1182 -0.1231
 4791W        W20685  16.820  14.257   2.802 -0.1109  0.0427  0.3108
 4792W        W20686   7.744   0.534   4.126 -0.0969 -0.0220  0.3624
 4793W        W20687  12.073   2.831  14.663  0.0259 -0.1800  0.0226
 4794W        W20688   0.727   7.774  13.436  0.5314 -0.0864 -0.1589
 4795W        W20689  16.732   6.354   1.496 -0.0353 -0.2039 -0.0831
 4796W        W20690   5.349   7.506   0.949  0.0392 -0.1275 -0.1145
 4797W        W20691  17.226  14.595  11.895 -0.4391  0.1153  0.2924
 4798W        W20692  12.315  11.534   2.847  0.2213  0.2153 -0.3323
 4799W        W20693  12.213  13.707   5.783  0.0856 -0.0807 -0.2664
 4800W        W20694   8.897   9.223   0.360  0.2316  0.1465  0.0328
 4801W        W20695   4.790  14.358  14.255 -0.0362 -0.1980 -0.1373
 4802W        W20696  14.452  10.092  12.331  0.0857 -0.2770  0.0209
 4803W        W20697  18.644  15.697   2.840 -0.1014 -0.0156  0.1116
 4804W        W20698  18.749  12.668  14.453 -0.2003 -0.0908  0.0258
 4805W        W20699   1.844   1.398   4.979 -0.1375 -0.0982  0.0634
 4806W        W20700   0.043   5.685   3.414 -0.2922 -0.0234 -0.1186
 4807W        W20701  18.065   5.433  11.184  0.0822 -0.3733  0.0850
 4808W        W20702   8.218  12.732  13.737 -0.0850 -0.2421 -0.0163
 4809W        W20703  12.956   2.953  13.291 -0.0362 -0.0310  0.0358
 4810W        W20704  13.829   2.150  14.470 -0.1025 -0.0320 -0.1364
 4811W        W20705   2.747   8.337  10.142 -0.0624  0.0365  0.0700
 4812W        W20706   3.359   5.482  15.286  0.1680  0.2553  0.1483
 4813W        W20707  15.158  14.428   1.590 -0.1711  0.1784  0.1473
 4814W        W20708  14.507  17.778   0.086  0.1495  0.0270  0.1665
 4815W        W20709  10.398  14.404  13.297 -0.0101 -0.0219 -0.1358
 4816W        W20710   3.367  18.647   5.267  0.1644  0.0107  0.3646
 4817W        W20711   8.579  13.101   4.254 -0.1346  0.1806 -0.3088
 4818W        W20712  14.729  18.837  13.120 -0.1037  0.1476 -0.2728
 4819W        W20713  11.197  13.436  12.028 -0.2071 -0.0875  0.1589
 4820W        W20714   1.863   6.540  13.792  0.0151 -0.0799  0.1896
 4821W        W20715  13.113   9.089  14.498  0.0527 -0.1026 -0.0866
 4822W        W20716  14.404  18.162  10.921 -0.3730  0.2002 -0.3636
 4823W        W20717   9.802   7.212   0.214 -0.3431  0.0417  0.2694
 4824W        W20718  15.177  15.073   2.853  0.0005 -0.4349 -0.0016
 4825W        W20719  13.166   4.265  11.067 -0.2064 -0.0814 -0.0990
 4826W        W20720  11.447  15.751   3.719  0.2906  0.1868  0.1743
 4827W        W20721  11.096   9.090  14.894  0.0756 -0.2396  0.0453
 4828W        W20722  14.862  14.810  12.884 -0.0664 -0.5432 -0.2294
 4829W        W20723   6.793  12.969  15.436 -0.3250  0.0551  0.0642
 4830W        W20724  11.793   7.692   1.338  0.0628  0.1368  0.0153
 4831W        W20725   3.123  10.038   0.319  0.1132 -0.0776 -0.1103
 4832W        W20726   0.889   1.183   1.971 -0.0908 -0.0631 -0.0055
 4833W        W20727   6.450   7.656   3.378 -0.1842  0.1840  0.1725
 4834W        W20728  15.040   6.339  14.355 -0.1891 -0.6315 -0.0681
 4835W        W20729   5.796   5.237   1.876 -0.5355 -0.0671 -0.1852
 4836W        W20730   9.259   8.165  11.966 -0.3208  0.0272 -0.2555
 4837W        W20731  12.629  18.193   5.101 -0.0958  0.0139 -0.0581
 4838W        W20732   5.687   5.426  13.516 -0.1866 -0.0488  0.0724
 4839W        W20733  12.438  15.496  11.256 -0.0830  0.0770  0.1769
 4840W        W20734  18.202  18.645   2.060 -0.1481 -0.0593  0.1363
 4841W        W20735   4.270   1.306  11.672  0.1394 -0.3833  0.2960
 4842W        W20736   2.852  15.442   0.074  0.1921 -0.3789  0.3226
 4843W        W20737   6.381  13.610   2.144 -0.1306 -0.2887  0.2484
 4844W        W20738  14.943   8.356   2.170 -0.0226 -0.2199 -0.0191
 4845W        W20739  11.033  10.368   3.886 -0.0009 -0.1007  0.1055
 4846W        W20740   3.398  17.484  14.919  0.1083 -0.4963  0.1603
 4847W        W20741  14.553   8.758   0.435  0.0399  0.0335  0.1521
 4848W        W20742   8.839   4.170  11.647 -0.2956  0.0471  0.0447
 4849W        W20743  15.929  10.114  11.948  0.1964 -0.0494  0.2830
 4850W        W20744  11.572   3.648   4.701 -0.1988  0.2125 -0.0841
 4851W        W20745   0.991   9.114  10.551  0.1498 -0.1063  0.1398
 4852W        W20746  13.847   8.632  15.319  0.0062 -0.0681 -0.1269
 4853W        W20747  11.325  15.269  12.670 -0.6379  0.0858  0.0913
 4854W        W20748  17.491   1.820  15.365  0.0097  0.0217  0.0188
 4855W        W20749   3.440  12.561  15.148 -0.1145 -0.1642 -0.2494
 4856W        W20750  10.724   1.258  12.417  0.0030 -0.0542  0.0448
 4857W        W20751   1.917  18.257   1.462 -0.0010 -0.4349 -0.1166
 4858W        W20752   1.456   1.821   1.120  0.1804 -0.0378  0.0692
 4859W        W20753  12.006   6.365  12.356 -0.1619  0.0530  0.0564
 4860W        W20754  18.118   0.010   5.179 -0.1718  0.1508  0.0425
 4861W        W20755  17.452   7.361   0.799 -0.0561 -0.0418 -0.1621
 4862W        W20756   0.611  13.650   1.119  0.1795  0.3179 -0.2103
 4863W        W20757   8.084   5.662   4.006 -0.1748 -0.2463  0.0874
 4864W        W20758  10.552   5.768   0.899 -0.2276 -0.0686 -0.3494
 4865W        W20759  18.485   4.253  14.592  0.0834  0.0986  0.0914
 4866W        W20760   6.323  11.976   2.652  0.1495  0.0774  0.1629
 4867W        W20761   8.090   6.113  12.752  0.5040 -0.2301  0.2353
 4868W        W20762  13.172  15.920   4.300 -0.0193  0.0892  0.1438
 4869W        W20763  17.536   2.626  11.985  0.2748 -0.1250 -0.0747
 4870W        W20764   3.893   8.312   5.296  0.1536  0.1428 -0.0102
 4871W        W20765   2.945   2.365   3.564  0.1333  0.2517 -0.0337
 4872W        W20766  17.513   1.571  14.152  0.0624  0.1070 -0.1629
 4873W        W20767   4.886   3.686  12.718  0.3939 -0.1694 -0.2360
 4874W        W20768  13.004   4.190   3.801 -0.1838  0.2446 -0.1044
 4875W        W20769  18.465  16.073  12.051  0.3332 -0.1537 -0.1522
 4876W        W20770   8.732  13.614   5.066  0.0799 -0.0143  0.2759
 4877W        W20771   2.509   4.708  11.209  0.3550 -0.0074  0.0608
 4878W        W20772  16.510  16.827   4.785 -0.0499  0.1468 -0.0258
 4879W        W20773   4.692   2.971   3.176 -0.2581 -0.2803  0.0580
 4880W        W20774   1.707   9.268  14.779  0.3370 -0.2445  0.2025
 4881W        W20775   6.581   9.341   3.743 -0.2806  0.0816  0.1181
 4882W        W20776  11.407   5.709   0.743 -0.1353 -0.1378 -0.2828
 4883W        W20777  17.014  14.606   0.461 -0.1263  0.1223 -0.1115
 4884W        W20778   7.208  12.233  10.820 -0.1178 -0.0700 -0.1166
 4885W        W20779   5.633   5.511   0.807 -0.2044  0.2786 -0.3162
 4886W        W20780   9.001   6.032   3.518  0.1730  0.0417 -0.0983
 4887W        W20781   8.744   2.400   4.714 -0.0051 -0.0258  0.0656
 4888W        W20782  10.324  17.949   5.053  0.1475 -0.0705  0.3688
 4889W        W20783   4.563  13.132   1.118  0.0710 -0.0229  0.0825
 4890W        W20784   1.821   7.841  11.581  0.0317  0.0130  0.0121
 4891W        W20785   4.299   8.289   3.625 -0.0268  0.2886  0.2220
 4892W        W20786   9.739  12.573  10.806 -0.1043 -0.4015  0.1025
 4893W        W20787   9.903   8.206   2.426  0.0222 -0.1336 -0.2514
 4894W        W20788  16.285   1.700  13.044 -0.2212  0.0532  0.1849
 4895W        W20789   6.677  16.384  14.146  0.0924  0.1162  0.1781
 4896W        W20790  12.635   2.779   3.690  0.1555 -0.0017 -0.0337
 4897W        W20791  17.913   4.071  11.238  0.0143 -0.1805  0.2281
 4898W        W20792  12.357  12.520   0.345  0.0575 -0.1705 -0.1895
 4899W        W20793  15.359   1.975   0.099  0.1605 -0.0511  0.3478
 4900W        W20794   1.806   6.400   3.931 -0.0532 -0.0879 -0.2773
 4901W        W20795  12.696  16.250   0.456 -0.0031  0.1977  0.0935
 4902W        W20796  18.787  11.095  12.772  0.1403  0.0541 -0.1479
 4903W        W20797   1.888  10.318  14.690 -0.0072  0.0762  0.0655
 4904W        W20798   5.241   9.715  11.914  0.4216  0.1039  0.0631
 4905W        W20799   9.168   8.299   0.765  0.0627  0.0355 -0.0170
 4906W        W20800   2.868   2.832   3.226 -0.0194 -0.3067 -0.0603
 4907W        W20801  15.482  12.165   2.863 -0.0731 -0.3395 -0.3282
 4908W        W20802  18.463  17.598  11.316 -0.0541  0.0180 -0.2704
 4909W        W20803  12.723   2.672  12.236 -0.1265 -0.0513 -0.1367
 4910W        W20804  12.142  11.545   1.780 -0.2545 -0.1306  0.0769
 4911W        W20805   0.722   1.669   4.199  0.0281 -0.1305 -0.3543
 4912W        W20806   1.066  17.109  11.034  0.0942 -0.1573  0.0180
 4913W        W20807  18.698   2.013  12.284  0.1207 -0.1488 -0.3779
 4914W        W20808   9.811  13.362  13.846  0.0926  0.0484 -0.0784
 4915W        W20809  17.851  14.087  11.649 -0.1324 -0.2447  0.0689
 4916W        W20810  15.393   3.377   2.294  0.1556  0.0599  0.0664
 4917W        W20811   8.492   1.001  13.528 -0.3648 -0.0034  0.1299
 4918W        W20812   8.075   6.859   4.920 -0.1595 -0.2586  0.1665
 4919W        W20813   7.885  13.278   3.788 -0.2936 -0.2396  0.0835
 4920W        W20814   8.819  14.633  14.921  0.1969 -0.0688  0.0954
 4921W        W20815  16.061  16.715  13.182  0.0541 -0.1400  0.1653
 4922W        W20816  15.638   6.408  14.362  0.0492  0.3232  0.2613
 4923W        W20817   7.992   7.542  15.384  0.0759  0.1763  0.0282
 4924W        W20818   8.218   7.184  12.678  0.0706  0.2511  0.0844
 4925W        W20819   5.924   8.744  12.029  0.2260 -0.0958  0.2409
 4926W        W20820   2.991  15.807  14.816  0.1848  0.3695 -0.1278
 4927W        W20821   4.570  17.416  15.053 -0.1348 -0.2194 -0.2304
 4928W        W20822  14.563  10.471  10.722 -0.0421 -0.0829 -0.1530
 4929W        W20823   1.437   8.436   4.909 -0.3508 -0.2080 -0.1290
 4930W        W20824   4.985  12.665  10.929  0.1146 -0.0363  0.1294
 4931W        W20825   1.809   3.016   0.547 -0.0426  0.1951  0.0754
 4932W        W20826  11.950  11.913  13.827  0.0544 -0.2724 -0.1242
 4933W        W20827   4.488   1.610  10.514  0.2602 -0.2164  0.0150
 4934W        W20828   1.758  15.331  12.073  0.1170  0.1384 -0.0906
 4935W        W20829  12.549   9.023  15.303 -0.1174 -0.0046 -0.4157
 4936W        W20830   7.567  10.462   3.697  0.2229 -0.3071 -0.1925
 4937W        W20831  10.849   0.972   3.774  0.0596  0.0225  0.4450
 4938W        W20832  10.029  17.365   5.492  0.0995 -0.1774 -0.0752
 4939W        W20833   2.131   8.737  13.953 -0.2009  0.0833 -0.0888
 4940W        W20834   5.290  18.859   5.008  0.3890  0.0181  0.1055
 4941W        W20835   0.854  13.083  12.367 -0.2571  0.1033  0.4278
 4942W        W20836   6.338  17.677  14.021  0.1571 -0.2796  0.1370
 4943W        W20837   9.464  11.886   3.780  0.1364  0.1055  0.0796
 4944W        W20838  13.979   0.271   0.450 -0.2231  0.2069 -0.4661
 4945W        W20839   0.931   0.871  12.748  0.0577  0.3269 -0.0859
 4946W        W20840  16.265   9.774   3.831  0.1193 -0.1161 -0.0754
 4947W        W20841  15.118  14.161   0.845  0.0374  0.1583  0.2702
 4948W        W20842  17.386  16.018  11.845 -0.0071 -0.1742  0.4610
 4949W        W20843  12.014   3.924   5.631  0.1864 -0.1106  0.3809
 4950W        W20844   4.460   7.491  14.454 -0.0269  0.2181  0.1563
 4951W        W20845   1.891   0.545  13.363  0.0810  0.0921 -0.1320
 4952W        W20846   6.498  14.876   2.226  0.0419  0.0417 -0.1295
 4953W        W20847   8.167   8.107  12.820  0.2709  0.1207  0.0682
 4954W        W20848   5.386  15.166  14.839  0.2802  0.4095  0.0138
 4955W        W20849   2.699  16.884  12.205 -0.0054  0.0855 -0.3041
 4956W        W20850   2.511   3.701   2.199 -0.0117  0.1178 -0.0515
 4957W        W20851   6.958   7.055  12.064 -0.0501 -0.3367 -0.4056
 4958W        W20852  17.627  12.616  14.851  0.4302 -0.1666  0.2060
 4959W        W20853  14.540   6.217   2.609  0.1372 -0.0497  0.2756
 4960W        W20854   6.116   5.356   0.281 -0.1983  0.1891  0.1546
 4961W        W20855   6.394  13.427  10.885  0.0917  0.2328  0.0234
 4962W        W20856  17.566   8.230   0.399 -0.0720 -0.1698 -0.1661
 4963W        W20857   3.781  18.391  15.445 -0.0769  0.1342 -0.4533
 4964W        W20858   4.397   6.073   5.149  0.1533 -0.2692  0.2375
 4965W        W20859   0.054   6.125  10.591 -0.1474 -0.0704 -0.4418
 4966W        W20860   1.593  12.734   2.170  0.1076 -0.0247 -0.1034
 4967W        W20861   7.958   9.295  13.940 -0.2647 -0.2860  0.0217
 4968W        W20862   6.870  13.441  10.700 -0.1132  0.0889 -0.1171
 4969W        W20863  12.437   8.188   3.916  0.1057  0.2044 -0.0355
 4970W        W20864   8.383   3.635  12.824  0.0975 -0.1878 -0.1597
 4971W        W20865  10.334  13.406  11.885 -0.0295  0.5617 -0.1094
 4972W        W20866  14.480  10.166  13.692  0.0493 -0.1322 -0.1460
 4973W        W20867  14.586  17.444   1.364  0.0395  0.2391 -0.0581
 4974W        W20868   7.144  13.792   4.562  0.2062 -0.2208  0.1969
 4975W        W20869   4.315   5.137   2.258  0.0482  0.1787  0.2566
 4976W        W20870   0.679   2.435   4.531  0.0630  0.1788  0.0896
 4977W        W20871  16.738  10.740  13.572  0.1473  0.3800 -0.0470
 4978W        W20872   6.162  14.473  11.888 -0.0191 -0.1700 -0.0039
 4979W        W20873   3.799   1.031  10.217  0.1778  0.0960  0.1616
 4980W        W20874   0.722   6.336   0.578 -0.0275 -0.0885 -0.2598
 4981W        W20875  12.972   8.734  10.330  0.0159  0.0539 -0.0980
 4982W        W20876  12.959  13.938  13.451  0.0153 -0.1385 -0.0130
 4983W        W20877  10.586   4.927  10.636 -0.0926  0.0695 -0.0344
 4984W        W20878   3.049  14.094   3.888  0.0623 -0.1949 -0.1270
 4985W        W20879   4.195   7.665   2.191  0.0267  0.4224  0.3903
 4986W        W20880  18.623   7.193   2.683  0.3198  0.1273  0.0568
 4987W        W20881  16.689  15.793   3.379  0.0525  0.1438  0.1904
 4988W        W20882  10.423   5.748  14.368  0.1447 -0.3745  0.2279
 4989W        W20883  12.234   4.268   3.983  0.0168  0.3362  0.0317
 4990W        W20884   7.356  13.569  14.585  0.4351 -0.0940  0.2359
 4991W        W20885   3.726   7.388  11.823  0.0101 -0.4086  0.0985
 4992W        W20886  18.027   5.651   4.540  0.1175 -0.2696  0.0725
 4993W        W20887  18.454   7.557   3.654  0.1406  0.0199 -0.1590
 4994W        W20888   0.224   1.546   4.929  0.0435  0.0602 -0.0762
 4995W        W20889  12.395   4.609  14.925  0.1411 -0.1090 -0.0069
 4996W        W20890   7.038  10.660  13.648  0.1395 -0.3924  0.0693
 4997W        W20891  16.832   8.232   1.099  0.3513  0.1730  0.0379
 4998W        W20892  14.690   5.129  15.056 -0.0974  0.2174  0.1539
 4999W        W20893   4.110   9.969  11.406 -0.1895  0.1918 -0.0717
 5000W        W20894  18.594  18.511   1.705  0.2326 -0.0084 -0.1847
 5001W        W20895   6.566   9.737   2.583 -0.1866  0.0514  0.0632
 5002W        W20896   7.147  15.720  11.636  0.1937  0.0127 -0.0533
 5003W        W20897   2.684  18.263   4.285  0.1417 -0.0817  0.5413
 5004W        W20898   7.233  12.420   3.016  0.0115  0.2770 -0.2300
 5005W        W20899  11.950  14.142   1.083 -0.0373  0.1751 -0.0331
 5006W        W20900   6.590  14.987   0.708 -0.1608 -0.0703  0.4291
 5007W        W20901   1.637   5.913  11.090 -0.1111  0.1415  0.1227
 5008W        W20902  13.455   2.102  12.006 -0.0063 -0.0365 -0.1230
 5009W        W20903   3.940  11.255  13.003  0.3775  0.1781 -0.0391
 5010W        W20904   8.647   0.204   1.166 -0.2330 -0.3547  0.1341
 5011W        W20905  14.674  11.393   2.654  0.2707 -0.1079 -0.1928
 5012W        W20906  12.356  15.697   1.910  0.1630 -0.0215  0.0092
 5013W        W20907  15.387   3.892  15.360 -0.1209  0.1385 -0.0650
 5014W        W20908  13.617  15.825   2.507  0.1849  0.4167 -0.1847
 5015W        W20909   8.179  10.870  12.132  0.0211  0.3538 -0.1326
 5016W        W20910   4.390  11.855   5.526  0.0699 -0.2708 -0.1316
 5017W        W20911   9.062   4.641  13.474 -0.0804 -0.3283 -0.0915
 5018W        W20912  13.605  17.271   3.898  0.1917 -0.0350  0.0063
 5019W        W20913  11.714  18.150   1.375 -0.0976 -0.3286 -0.0337
 5020W        W20914  16.756   1.330  14.837  0.1763  0.0167 -0.0824
 5021W        W20915   2.667  14.967  12.088  0.0939  0.1094  0.0962
 5022W        W20916   8.677  11.824  11.854 -0.0144  0.1304 -0.0183
 5023W        W20917  16.978   6.391   2.036  0.1656  0.2500  0.0362
 5024W        W20918  17.310  14.498  10.299 -0.3906  0.6271 -0.2547
 5025W        W20919   0.764  12.149   2.383  0.0865  0.2468  0.2274
 5026W        W20920  13.820  18.301  15.047  0.0400  0.0122  0.1448
 5027W        W20921  18.108   5.783  15.398  0.1682 -0.0633 -0.0659
 5028W        W20922  13.554   2.118  15.059 -0.0024 -0.1021 -0.0199
 5029W        W20923   1.196   7.817  14.137 -0.0013  0.1779  0.2153
 5030W        W20924   2.981  12.792  12.644 -0.1007 -0.0287 -0.2505
 5031W        W20925   6.861   7.647  15.474  0.0060  0.0011 -0.2156
 5032W        W20926   0.172   5.037   2.587 -0.1339 -0.1325 -0.1215
 5033W        W20927   2.820   1.870   4.997  0.2300 -0.0458 -0.2232
 5034W        W20928   1.872   9.867  15.302 -0.0710 -0.0240  0.0615
 5035W        W20929   6.533  18.817   5.849 -0.0370  0.1494 -0.1534
 5036W        W20930   1.790  16.939  11.715 -0.0956  0.2689 -0.0441
 5037W        W20931  15.006   4.995  15.444 -0.0456  0.1825 -0.1257
 5038W        W20932   3.822  11.541   0.773  0.0948  0.2142  0.2654
 5039W        W20933  16.746   3.361  13.729  0.2729  0.3169  0.1228
 5040W        W20934  15.920  10.714   3.422 -0.0348 -0.0383  0.2153
 5041W        W20935   6.912   4.824  11.197 -0.0893  0.1325 -0.1638
 5042W        W20936  14.053  10.178  10.532 -0.1464  0.0346  0.1208
 5043W        W20937   3.638  18.179  12.142 -0.1397 -0.0061  0.2733
 5044W        W20938  16.172  15.031   2.456 -0.0000 -0.4135  0.2206
 5045W        W20939  17.903   4.604   1.834 -0.0930 -0.1167  0.0887
 5046W        W20940  11.279  18.121   3.822 -0.2185  0.2545 -0.1871
 5047W        W20941  17.743  12.800  12.262 -0.3178  0.2267 -0.3039
 5048W        W20942  12.375  13.369   1.718  0.2227 -0.0016 -0.1562
 5049W        W20943   4.946  10.154  12.095 -0.1049 -0.3047 -0.1952
 5050W        W20944   8.734  17.802   4.231  0.0916  0.0313 -0.1180
 5051W        W20945   3.050   9.058  12.967 -0.3748  0.0727 -0.1099
 5052W        W20946   5.467  17.181   2.099 -0.1772 -0.2831 -0.0699
 5053W        W20947  18.087   4.873  13.743 -0.0600  0.1057 -0.0227
 5054W        W20948   2.658  18.244   5.220  0.2094  0.1230  0.1560
 5055W        W20949   4.543  13.544  11.672  0.0027 -0.2481 -0.2354
 5056W        W20950  18.531  10.039  13.715  0.1233 -0.1257  0.0903
 5057W        W20951  12.417   7.034   2.014 -0.3053  0.1317  0.1954
 5058W        W20952   1.338   1.757  14.596 -0.2552  0.4371 -0.1676
 5059W        W20953   2.944   0.531  13.759  0.2811 -0.2099 -0.1299
 5060W        W20954   3.081   6.047   1.792 -0.0842 -0.2184  0.2074
 5061W        W20955  14.882   0.003   0.295  0.1193 -0.1707 -0.1624
 5062W        W20956  14.925  17.051   3.927 -0.1379  0.2594  0.0251
 5063W        W20957   8.260   9.110   5.266  0.2913 -0.4207 -0.4133
 5064W        W20958   5.200  12.462  12.427 -0.0484  0.0945  0.1419
 5065W        W20959   0.413  11.962   1.313  0.1450  0.0237  0.0227
 5066W        W20960  13.209   6.816  14.845 -0.2461  0.0328 -0.1926
 5067W        W20961   1.488  15.998   2.627  0.2143  0.1981  0.0589
 5068W        W20962  11.684   7.858  11.282 -0.3122 -0.0545 -0.1192
 5069W        W20963  10.585   8.172  10.576 -0.1351  0.1076 -0.1939
 5070W        W20964  16.576   2.873   1.789  0.2500  0.3038  0.0187
 5071W        W20965  16.110   3.443  11.335  0.1241 -0.0542 -0.1127
 5072W        W20966   3.805   4.302  15.117  0.0074 -0.2457 -0.2649
 5073W        W20967  14.276   5.194  14.073 -0.1424  0.0261 -0.3526
 5074W        W20968  12.411  17.805   1.021 -0.0418  0.1289  0.4926
 5075W        W20969  14.762   5.910   0.794  0.2282 -0.1129 -0.2985
 5076W        W20970  11.506  10.438  13.476  0.3469  0.0001  0.1727
 5077W        W20971   4.240   8.642   2.919 -0.0806  0.0622  0.0264
 5078W        W20972   1.587   5.285  11.945  0.0814 -0.0896  0.3312
 5079W        W20973   7.371  13.221  14.211 -0.0231  0.1199  0.1545
 5080W        W20974   4.355   4.755  10.190  0.1601  0.1895  0.0204
 5081W        W20975  18.073  12.923   2.044  0.0133  0.1251  0.0254
 5082W        W20976   7.894   9.099  13.440 -0.0556  0.0891 -0.0588
 5083W        W20977   3.012  11.706  13.929 -0.2497  0.0041 -0.0645
 5084W        W20978   9.107  14.740   5.543 -0.0954 -0.0019  0.1517
 5085W        W20979   2.752  18.378  10.804 -0.1001  0.0013  0.2828
 5086W        W20980  16.724   5.211   4.112 -0.1479  0.1176  0.1657
 5087W        W20981  16.206   8.248  14.496 -0.0329  0.0257  0.0508
 5088W        W20982  10.286   8.928  12.262 -0.1668  0.1108  0.0593
 5089W        W20983  10.047   9.186   1.116  0.0369 -0.2286 -0.1427
 5090W        W20984   5.226  12.680   3.875 -0.0453  0.1311 -0.0684
 5091W        W20985  14.770   1.959  12.138  0.1831  0.1195 -0.1503
 5092W        W20986  14.979   1.730   4.254  0.2080  0.2436 -0.0788
 5093W        W20987   6.185   9.646  11.429  0.2681  0.2430 -0.1991
 5094W        W20988   5.041  12.703   0.509  0.0794  0.2632 -0.2306
 5095W        W20989  17.191   2.191  15.455  0.1873  0.0268 -0.0741
 5096W        W20990   2.344   4.088   0.182  0.0615  0.1932  0.2661
 5097W        W20991   0.499   8.176  14.626  0.1347  0.2778 -0.1473
 5098W        W20992   0.705  18.452   5.566  0.0859  0.0318  0.0407
 5099W        W20993  13.121  11.508   3.276  0.1563  0.1748 -0.2493
 5100W        W20994   8.829   7.634   3.189 -0.1013 -0.0977  0.5310
 5101W        W20995  13.096   0.674  12.827 -0.0355  0.0673 -0.2210
 5102W        W20996   0.153  16.979  12.830 -0.0161 -0.1565 -0.2065
 5103W        W20997   7.106  18.405   0.503  0.1479 -0.0607 -0.3154
 5104W        W20998   3.686  11.934  12.492  0.1909 -0.0630  0.4012
 5105W        W20999   7.009  18.521   2.775  0.1566 -0.1833 -0.3694
 5106W        W21000   6.530  12.849   4.576  0.2416  0.1524 -0.0677
 5107W        W21001   9.847   4.306  11.068  0.0059 -0.1834  0.0334
 5108W        W21002  14.804   6.904   5.433  0.0232  0.1218 -0.1102
 5109W        W21003  18.466   3.109  14.084  0.0182  0.0099 -0.2505
 5110W        W21004  11.785  13.344  12.871 -0.1863  0.2134 -0.1572
 5111W        W21005   7.248  16.659   1.972 -0.0630  0.3976  0.2291
 5112W        W21006   0.172   4.282  12.698  0.1039  0.0029  0.0544
 5113W        W21007  11.343  14.627  13.830 -0.2727  0.0627  0.0726
 5114W        W21008   4.162   5.556  13.215 -0.0964 -0.3704 -0.0284
 5115W        W21009   1.491  10.452   4.795 -0.2017 -0.0438 -0.0182
 5116W        W21010   8.107  16.292   4.731  0.1389 -0.2010 -0.0249
 5117W        W21011   5.556  16.506   0.718  0.0292 -0.0162  0.4157
 5118W        W21012  13.222   8.470   5.402  0.0579  0.1518 -0.0581
 5119W        W21013  13.401  16.916   0.092 -0.2416  0.0446  0.2689
 5120W        W21014  13.900  17.500   2.075 -0.1572  0.2274 -0.0560
 5121W        W21015   4.782  11.209   2.600 -0.1273  0.0488  0.1132
 5122W        W21016  17.919  13.968  14.778 -0.1744 -0.4874  0.3142
 5123W        W21017   4.609   2.534  12.442 -0.1112 -0.0838 -0.1675
 5124W        W21018  13.703   9.749  13.198  0.2437 -0.5536 -0.0996
 5125W        W21019   2.707  14.685  11.311  0.2313 -0.2294 -0.3189
 5126W        W21020   7.701  11.578  15.436  0.0520  0.1679 -0.1319
 5127W        W21021  17.478  11.225   1.784  0.0965 -0.2214  0.0593
 5128W        W21022   4.063   0.399  11.593 -0.0516 -0.0895  0.0480
 5129W        W21023  15.778  14.817   5.406  0.1510  0.1306  0.2060
 5130W        W21024  11.979  16.603   3.401 -0.0878 -0.1036 -0.1549
 5131W        W21025  12.242  11.158   0.101 -0.2002 -0.2535  0.1229
 5132W        W21026  14.256  16.289   1.235 -0.0812 -0.4014  0.0645
 5133W        W21027  17.881   3.455   5.463 -0.1329 -0.1116 -0.0221
 5134W        W21028   8.951  12.874   1.404  0.1857  0.0918 -0.0507
 5135W        W21029  10.706   1.289  11.057  0.3734  0.0454 -0.1088
 5136W        W21030  11.280  12.184   5.207 -0.1601 -0.2144  0.2129
 5137W        W21031  10.873   1.976   4.364  0.1779 -0.3082 -0.1497
 5138W        W21032   3.711  12.378   4.714 -0.0428 -0.1400 -0.0849
 5139W        W21033  16.887  10.789   4.429  0.0344  0.2186  0.1210
 5140W        W21034   4.761  14.679  15.087  0.2418  0.1576 -0.0183
 5141W        W21035  12.857  15.860   4.671 -0.3319 -0.1433 -0.4317
 5142W        W21036  11.859   7.436  15.412 -0.1916  0.0647 -0.0730
 5143W        W21037  10.989  11.691   4.029  0.1489 -0.2099  0.2077
 5144W        W21038  16.486   6.732   4.008 -0.2080  0.4781 -0.0447
 5145W        W21039  18.758   1.270  14.479  0.2117  0.0973 -0.1531
 5146W        W21040   1.356  11.275  11.469  0.1475 -0.5199  0.2670
 5147W        W21041  10.172   6.215   2.758 -0.1540  0.1638 -0.3897
 5148W        W21042  17.014   8.922  12.913  0.0435 -0.0186  0.1445
 5149W        W21043   5.331   7.916  14.942  0.0506  0.0463  0.2857
 5150W        W21044   1.503  11.553  13.371 -0.1052 -0.1625 -0.1306
 5151W        W21045   1.767   5.119  13.731 -0.0973  0.1193 -0.1866
 5152W        W21046  14.943  13.985   1.571 -0.0027  0.1997  0.1674
 5153W        W21047   6.213  13.854   2.672  0.1008  0.1922  0.0165
 5154W        W21048   8.586  13.657   2.609  0.1412 -0.0633  0.3306
 5155W        W21049  18.779   1.393  10.020 -0.2170  0.1963 -0.3828
 5156W        W21050  15.633   4.281   3.421  0.0070 -0.0436 -0.4343
 5157W        W21051  16.032  17.011   2.704  0.0161  0.1032 -0.0165
 5158W        W21052  16.769  12.687   0.756  0.0670 -0.3155 -0.1556
 5159W        W21053  10.755  12.306   5.304 -0.0869  0.1232 -0.4848
 5160W        W21054   5.753  16.199  11.609  0.3770  0.2147 -0.0215
 5161W        W21055  11.515   0.688   3.560 -0.0690  0.0441  0.0035
 5162W        W21056   4.787  14.779  10.246 -0.1994  0.0041  0.0079
 5163W        W21057   0.879   3.320   2.912 -0.0637  0.2947 -0.0174
 5164W        W21058   3.044   0.936  12.557 -0.0807  0.0113 -0.1143
 5165W        W21059   2.859  15.931   2.996 -0.2329 -0.2349 -0.2482
 5166W        W21060  15.221   6.273  13.226 -0.1147  0.4653  0.2308
 5167W        W21061  10.044   7.782   0.871  0.0098  0.1362  0.0115
 5168W        W21062  14.606  14.322  13.638 -0.2361 -0.1550  0.2143
 5169W        W21063   0.930   5.805   0.970  0.1344 -0.2152  0.1461
 5170W        W21064   5.686   1.635  12.954 -0.2374  0.1388  0.1492
 5171W        W21065   5.514  17.576  11.517  0.3327  0.0358 -0.2333
 5172W        W21066   3.199  16.376   4.192 -0.2394 -0.0742 -0.1828
 5173W        W21067   4.966   1.303  10.901 -0.0287 -0.1418  0.0163
 5174W        W21068   2.134  14.142   1.471  0.0578  0.2420 -0.0986
 5175W        W21069   4.148   1.251   4.778  0.0241  0.0660  0.0510
 5176W        W21070   8.580   4.392  12.523  0.2643 -0.1679 -0.1263
 5177W        W21071   0.578  12.216  12.723  0.1395  0.0972  0.0319
 5178W        W21072   4.880   5.612   4.049  0.1784 -0.1254  0.1290
 5179W        W21073   5.334   6.571  12.819 -0.3286  0.1263 -0.2387
 5180W        W21074  18.307   7.745   1.475 -0.1617  0.0299  0.0932
 5181W        W21075   1.500   4.313  12.076 -0.2603 -0.0103 -0.3148
 5182W        W21076  14.772  11.230  14.329  0.0375 -0.1043  0.0212
 5183W        W21077  16.360  10.070   5.241 -0.2743 -0.1431 -0.2519
 5184W        W21078   3.687  10.571   3.265  0.1942 -0.0856 -0.0695
 5185W        W21079   4.867   0.947   1.367  0.1864 -0.0370  0.2765
 5186W        W21080  11.657  14.887   3.770  0.0086  0.0945 -0.1848
 5187W        W21081  16.686   9.350  10.162 -0.2377 -0.1276  0.3748
 5188W        W21082  11.688  10.747  15.112 -0.1981  0.0992 -0.0224
 5189W        W21083  16.735  15.088  11.384  0.1865 -0.2038 -0.1734
 5190W        W21084  12.392  10.958   4.009  0.0962  0.0047  0.4256
 5191W        W21085  11.082   3.280   1.748 -0.2606 -0.2131  0.1272
 5192W        W21086   8.174   3.507  14.513 -0.1386 -0.0154  0.0463
 5193W        W21087   9.306   3.434   4.203  0.0585 -0.1971 -0.0022
 5194W        W21088  17.669  11.134  13.681  0.0645  0.1718 -0.1055
 5195W        W21089  18.128   9.879   1.952  0.1371 -0.1996 -0.3393
 5196W        W21090   7.877  17.993  14.787  0.3401  0.2924  0.1299
 5197W        W21091   1.160  15.002   5.229 -0.3202  0.1138  0.1342
 5198W        W21092   5.843   8.866   0.225  0.0904 -0.0071  0.1185
 5199W        W21093   2.600  14.253   1.670 -0.2705 -0.1954  0.0551
 5200W        W21094  13.888   2.797   4.025  0.2672 -0.0695  0.0734
 5201W        W21095   4.146   9.744   3.062 -0.3172  0.2082  0.1328
 5202W        W21096   5.825  12.140   4.884 -0.1535  0.1275  0.0112
 5203W        W21097  18.044   9.614   2.487  0.0139  0.1193 -0.0363
 5204W        W21098   9.940  13.558  11.448 -0.1091  0.0099 -0.0533
 5205W        W21099   1.626   1.353   2.471 -0.2849 -0.0915 -0.0415
 5206W        W21100   5.689  10.030   4.860 -0.1434 -0.3953 -0.3093
 5207W        W21101   6.205   9.387   2.792  0.0535  0.1670  0.1813
 5208W        W21102  18.652   7.104  15.331  0.2259  0.2039 -0.1754
 5209W        W21103  17.374   2.991   4.675 -0.1560 -0.2591 -0.0475
 5210W        W21104  18.203   1.531  11.053  0.1203  0.4200  0.1333
 5211W        W21105  12.672  13.615   5.567 -0.3498 -0.0401  0.0567
 5212W        W21106   3.881  17.247   1.821 -0.1857 -0.1278 -0.2090
 5213W        W21107  15.169  16.474   0.011 -0.3234  0.2588 -0.0982
 5214W        W21108   5.858   4.424  14.192 -0.1973 -0.1478 -0.5661
 5215W        W21109   5.216   7.078   0.776 -0.1502  0.0380 -0.2658
 5216W        W21110   9.084  10.233  11.285  0.0886 -0.0664 -0.3817
 5217W        W21111   6.508   4.601   4.850 -0.0170 -0.1229 -0.3038
 5218W        W21112   9.080  14.657   0.911  0.0632  0.2123 -0.1334
 5219W        W21113  10.489  13.486   0.009 -0.3658  0.0943  0.2468
 5220W        W21114  16.687   1.985   1.928 -0.1858  0.3077  0.4535
 5221W        W21115   6.301   1.884   5.051 -0.0690  0.1442  0.0635
 5222W        W21116   0.283  18.485   9.766 -0.0306  0.1218  0.2830
 5223W        W21117  14.583   6.042   1.949 -0.1501 -0.4169  0.1274
 5224W        W21118  12.639   7.836   0.312  0.0408  0.1541 -0.2029
 5225W        W21119   6.112  12.993   1.473 -0.0045  0.2149 -0.2730
 5226W        W21120  16.420   0.997  11.909  0.0511  0.3467  0.2102
 5227W        W21121   1.765   8.915   4.743 -0.0620 -0.1301  0.1056
 5228W        W21122  11.708   6.340  13.538 -0.0881  0.0710 -0.0556
 5229W        W21123   8.426   3.646   4.350  0.0011 -0.1291  0.0619
 5230W        W21124   9.553  17.640  12.345  0.1207 -0.0959 -0.0661
 5231W        W21125   5.009  12.902   1.805 -0.2153 -0.5348  0.2388
 5232W        W21126   5.936   3.179  15.088 -0.0138  0.2387  0.2124
 5233W        W21127   8.767   5.230  11.489  0.2604  0.1088  0.1267
 5234W        W21128   1.233  12.667  11.430 -0.0640  0.0378  0.2794
 5235W        W21129   3.098  17.302  10.850 -0.1212  0.1614 -0.2577
 5236W        W21130  16.154  13.332   5.418  0.1100 -0.1361  0.3124
 5237W        W21131  10.328   2.027   2.902  0.0281  0.1802 -0.0750
 5238W        W21132  16.522   3.243   4.695  0.0059 -0.3321  0.3255
 5239W        W21133  13.677   2.740   0.779  0.0493 -0.1851 -0.0579
 5240W        W21134   8.238  11.102   5.563  0.0702  0.0465  0.2122
 5241W        W21135  12.419  14.437  11.958 -0.1321 -0.0946  0.0567
 5242W        W21136  17.546  18.720   0.759 -0.2502  0.1668  0.3588
 5243W        W21137   6.059  11.318  11.301 -0.0801  0.0011  0.0905
 5244W        W21138   2.963  15.060   2.575  0.0793  0.1003  0.1129
 5245W        W21139   7.705   4.494  12.654 -0.2649  0.4448 -0.0817
 5246W        W21140  18.365  18.321   3.205  0.3578  0.1635 -0.0722
 5247W        W21141  16.838  15.483   3.822  0.2593  0.2660  0.0613
 5248W        W21142   7.749   6.160   4.151  0.1011 -0.0789  0.1846
 5249W        W21143  16.756   5.204  11.157 -0.0814 -0.1921 -0.1896
 5250W        W21144  14.991   5.225  12.236  0.1032  0.0398  0.4909
 5251W        W21145  16.102   2.505   0.212  0.2162  0.2047 -0.4536
 5252W        W21146   2.999  10.027  12.548 -0.0770 -0.0616  0.0483
 5253W        W21147  11.098   0.681   1.264  0.2788  0.1350  0.0647
 5254W        W21148  13.677   8.290   0.110  0.1290  0.1209 -0.2911
 5255W        W21149  17.723   3.583   0.114 -0.2043  0.0639 -0.1133
 5256W        W21150  16.091  17.436  14.114  0.2274 -0.1575  0.0495
 5257W        W21151  18.847  17.675  14.661 -0.0012 -0.1336  0.1466
 5258W        W21152  16.700   1.656  13.352 -0.2015  0.1467 -0.2474
 5259W        W21153   8.378   5.089   2.317 -0.0954 -0.1988 -0.1244
 5260W        W21154   9.385   6.798  11.325  0.1615 -0.2376 -0.2686
 5261W        W21155   1.065  17.034   4.710  0.0929 -0.1486  0.0690
 5262W        W21156   7.770   6.759  14.179  0.1705 -0.1152  0.5933
 5263W        W21157  16.934  14.878  13.187  0.0254  0.1263 -0.0057
 5264W        W21158   1.650  10.927  11.255  0.0665  0.1252  0.0479
 5265W        W21159  13.323   7.519   1.941 -0.0402  0.0475 -0.2620
 5266W        W21160   3.990  18.065   2.030  0.0657 -0.1261  0.2754
 5267W        W21161   3.173   5.399   4.481 -0.0179 -0.2567  0.0903
 5268W        W21162  16.757  12.705  14.705 -0.0135 -0.2796  0.1331
 5269W        W21163  14.131  14.011  15.187 -0.2230 -0.2245 -0.0270
 5270W        W21164   0.042  11.519  13.663 -0.1118  0.2709  0.1977
 5271W        W21165  16.510   4.274  15.171  0.0694  0.2112  0.3225
 5272W        W21166  15.734   9.603  13.362  0.0370 -0.1919  0.0431
 5273W        W21167   1.393  18.755   0.304  0.0463  0.3120 -0.0195
 5274W        W21168  16.265   4.787   9.578  0.0584 -0.1581 -0.0421
 5275W        W21169   0.542   5.131   0.217 -0.0674 -0.0537  0.0305
 5276W        W21170  16.684  14.209   0.692 -0.0528 -0.1920 -0.1712
 5277W        W21171   6.186  13.466  15.045 -0.1741  0.4024  0.2520
 5278W        W21172   8.809   8.637  13.241 -0.0750 -0.1455  0.0095
 5279W        W21173   3.580   1.911  10.937  0.2629 -0.0953 -0.2595
 5280W        W21174  11.843   5.352   0.888 -0.1748 -0.2222  0.0449
 5281W        W21175  17.484   5.295   2.575 -0.2181 -0.3222 -0.0317
 5282W        W21176   2.219   0.767  14.479 -0.1860 -0.1765  0.0543
 5283W        W21177   1.480  15.026  15.269 -0.2634  0.4254 -0.0304
 5284W        W21178   6.301   5.384   5.635  0.2308 -0.0151 -0.2902
 5285W        W21179   2.613   7.393  12.967 -0.5417  0.1101  0.0887
 5286W        W21180  11.010  11.882   5.549 -0.2336 -0.3086  0.0934
 5287W        W21181   1.970   2.570   1.726 -0.1652 -0.1443 -0.1664
 5288W        W21182  14.715  13.813   3.007  0.0392 -0.1765 -0.0877
 5289W        W21183   3.689   9.462  13.610 -0.3443  0.1614  0.1182
 5290W        W21184  17.475   0.235  14.097 -0.0128  0.3221 -0.1995
 5291W        W21185  15.151   0.113  13.400 -0.3965  0.1650 -0.0660
 5292W        W21186   2.163   5.504  12.802  0.2154 -0.2219  0.4091
 5293W        W21187   8.291  18.251  13.507  0.2797 -0.0769  0.1578
 5294W        W21188  16.906   8.893  15.436 -0.0873 -0.0520 -0.2394
 5295W        W21189  17.620  14.723   5.055  0.1457  0.1656 -0.0224
 5296W        W21190   0.644   6.063  15.341  0.1786 -0.3506 -0.1963
 5297W        W21191   9.868   8.502   4.324  0.1148  0.1647 -0.0692
 5298W        W21192   9.707  14.952   2.861 -0.0639 -0.0599 -0.1694
 5299W        W21193  15.089   7.386  14.472 -0.3321 -0.2518  0.0350
 5300W        W21194   2.627   8.654  14.086  0.0389  0.2061 -0.2937
 5301W        W21195  13.215   0.444   4.088 -0.0400  0.0130  0.3443
 5302W        W21196   0.621  17.319   1.102  0.1832  0.3966 -0.1542
 5303W        W21197  11.780   3.775   3.234  0.1800 -0.4408 -0.1871
 5304W        W21198   3.223   6.398   2.573  0.0686  0.3673  0.0819
 5305W        W21199  15.845   7.669   0.226 -0.0866  0.0413 -0.0141
 5306W        W21200  10.955   2.222  15.116  0.2366  0.1820 -0.2242
 5307W        W21201  15.712  18.662  12.669  0.0620  0.0367  0.2670
 5308W        W21202   6.509   0.615   3.664 -0.1422  0.0847  0.0381
 5309W        W21203   1.320  12.657  14.654 -0.4414  0.0791 -0.0218
 5310W        W21204  13.046   0.553  15.218  0.3564 -0.0732 -0.2089
 5311W        W21205   7.235  17.974  11.067  0.1753  0.2204  0.2221
 5312W        W21206  12.370  17.490  14.205  0.1001  0.0313 -0.1495
 5313W        W21207   2.586  11.563  10.374 -0.1014 -0.3778 -0.1983
 5314W        W21208   2.650   8.025  14.417  0.0664  0.0452 -0.2406
 5315W        W21209   9.939   7.525  11.499 -0.3736  0.0657  0.0411
 5316W        W21210   2.047   0.041   5.226  0.0088 -0.0773 -0.3038
 5317W        W21211  10.447  11.613  11.861  0.2258 -0.1082 -0.1060
 5318W        W21212   3.129  12.148  15.088 -0.1386  0.1746 -0.0881
 5319W        W21213   1.404   5.320  14.100  0.3105 -0.2267  0.0228
 5320W        W21214  11.234  11.918   0.967 -0.2550 -0.0175 -0.2158
 5321W        W21215   3.987  15.449   1.435 -0.0512 -0.1148  0.1462
 5322W        W21216  12.798  10.878  12.947 -0.0245 -0.0534  0.2809
 5323W        W21217  12.946  11.958  14.216 -0.3433  0.1437  0.0954
 5324W        W21218   9.926  15.371   5.691 -0.0997 -0.0989 -0.0410
 5325W        W21219   9.986   1.929   2.267 -0.1093 -0.0820  0.0524
 5326W        W21220  17.459  16.117   3.773  0.0997 -0.1257 -0.1226
 5327W        W21221  10.131  17.366   0.303 -0.0401  0.1762  0.1786
 5328W        W21222  16.873  13.054  11.830  0.0075 -0.2378 -0.3056
 5329W        W21223  10.299  17.145  15.409 -0.0205 -0.1522  0.5893
 5330W        W21224   3.694   7.747  12.941  0.2368 -0.0256  0.1264
 5331W        W21225  13.675  16.048   1.888  0.0458 -0.0928  0.2295
 5332W        W21226   8.243   5.875  13.178  0.0491 -0.1190  0.0569
 5333W        W21227   3.343   5.222  12.273 -0.4810  0.2052 -0.0723
 5334W        W21228  13.405  17.984   1.394  0.1770 -0.3527  0.2001
 5335W        W21229  15.271   0.408  12.961 -0.4350 -0.1632 -0.2517
 5336W        W21230  15.191  14.680  10.732 -0.1704  0.2426  0.2405
 5337W        W21231  13.860   7.224   3.329  0.0029  0.1291  0.2500
 5338W        W21232  16.853   9.141  13.342  0.2454  0.1348 -0.0794
 5339W        W21233   7.913   1.860   0.160 -0.1430  0.2261  0.1309
 5340W        W21234  12.394   8.486  13.638 -0.1394  0.1085  0.0516
 5341W        W21235  11.452   1.157  10.580 -0.0690 -0.1811 -0.2977
 5342W        W21236  18.834   2.636   1.765  0.0696 -0.1601  0.2441
 5343W        W21237  17.350  15.742   4.201 -0.0111 -0.2172  0.0198
 5344W        W21238   7.295  11.817  11.886 -0.0904  0.0757 -0.1013
 5345W        W21239   0.490  10.702   4.615 -0.2182  0.0391 -0.0544
 5346W        W21240   8.211  18.818  12.095 -0.0456  0.2003  0.0997
 5347W        W21241   0.136   0.070  12.267 -0.0861  0.0523 -0.0850
 5348W        W21242  14.511   6.182  14.173  0.2363 -0.0325  0.0384
 5349W        W21243   2.904  17.126   5.800 -0.0804  0.2745  0.0732
 5350W        W21244  16.888  17.419  11.080 -0.0174  0.1317  0.1749
 5351W        W21245  17.524   8.929   5.220  0.0221  0.2065 -0.1000
 5352W        W21246   9.871  12.995   2.460  0.1406  0.0916  0.0556
 5353W        W21247   9.974   3.630  14.849 -0.3575 -0.3450  0.2477
 5354W        W21248   1.463   7.547  13.701 -0.0276  0.3219  0.3725
 5355W        W21249   4.967  11.119  13.765  0.2415 -0.4284  0.3722
 5356W        W21250   7.011   5.313   4.884 -0.0118 -0.0385 -0.2971
 5357W        W21251   2.603  10.803  10.994 -0.1070  0.1426  0.0584
 5358W        W21252   4.816  11.831  13.170  0.2521  0.2858  0.0513
 5359W        W21253  17.588   8.247   2.846  0.0115  0.1650  0.0043
 5360W        W21254  16.661   5.384  14.202 -0.0535 -0.0689  0.0673
 5361W        W21255  13.025  17.382   2.458  0.0930 -0.0668  0.0888
 5362W        W21256  14.844   1.427   3.073  0.0534  0.1567  0.1446
 5363W        W21257   8.204   6.440   3.397 -0.5110  0.1058 -0.3232
 5364W        W21258  13.701  11.469   3.050 -0.1361  0.0361  0.2749
 5365W        W21259  11.126  16.678   4.936  0.3723  0.6835  0.1607
 5366W        W21260  14.864   7.620  14.918 -0.0352  0.0387  0.2204
 5367W        W21261  18.392   5.990  14.524  0.0761  0.4041  0.2395
 5368W        W21262  17.671   1.601  11.929  0.1487  0.1734 -0.0300
 5369W        W21263   5.169   1.310  10.413 -0.0101  0.1070  0.0707
 5370W        W21264  10.720  10.176   5.226  0.0131 -0.1441  0.0586
 5371W        W21265   5.800  18.774  13.918 -0.0361  0.4031 -0.0125
 5372W        W21266  16.217   3.223  14.491  0.0175 -0.0920  0.2020
 5373W        W21267  14.448  11.592   2.090  0.2763  0.1285  0.0318
 5374W        W21268  15.895   2.775   1.860 -0.0499 -0.1415 -0.5601
 5375W        W21269  14.458   1.950   4.819  0.2100  0.0292 -0.1423
 5376W        W21270  12.322   0.600   5.730  0.0301 -0.0458  0.1079
 5377W        W21271   2.407   4.083   3.810  0.2482  0.0502  0.2204
 5378W        W21272  13.742   6.513   0.678 -0.1727  0.1396 -0.1784
 5379W        W21273  15.021   8.984  13.545  0.2557  0.1143  0.1350
 5380W        W21274  12.384  18.481   0.300 -0.0182 -0.5404 -0.1975
 5381W        W21275   4.027  15.160  11.587 -0.1005 -0.0393  0.2268
 5382W        W21276  12.651  13.420  11.478  0.1787 -0.1423 -0.0868
 5383W        W21277  15.126   7.445   2.273  0.0059 -0.2096 -0.1018
 5384W        W21278   7.162  11.946  13.329 -0.1716 -0.1910 -0.1253
 5385W        W21279  10.542   3.164  12.690 -0.1323 -0.5423  0.1790
 5386W        W21280   0.978  13.426   0.150 -0.4305  0.0050 -0.2087
 5387W        W21281   7.186   2.286  12.108  0.1100  0.3457 -0.1294
 5388W        W21282  14.007   7.185   4.257  0.1895 -0.0311 -0.0381
 5389W        W21283  17.692   2.697   4.296 -0.0651  0.1827  0.0101
 5390W        W21284  12.167   9.696   2.215  0.4097  0.1952  0.0341
 5391W        W21285   6.766  18.754   3.201 -0.4428  0.4711  0.0353
 5392W        W21286   4.378  11.199  11.052  0.0641 -0.1687  0.4204
 5393W        W21287  12.301  17.059   1.696 -0.1484  0.3503 -0.1309
 5394W        W21288  15.942  16.445   0.556 -0.1175  0.1849 -0.1699
 5395W        W21289   3.401   0.636   1.272  0.0659 -0.0334 -0.0193
 5396W        W21290  10.304   8.728   5.253 -0.1712  0.3109  0.1815
 5397W        W21291  12.004  14.784   4.109  0.3947  0.0957 -0.2221
 5398W        W21292  18.321   2.679   5.762 -0.0087 -0.2068 -0.1176
 5399W        W21293   0.024  11.717   2.227  0.2022  0.0443  0.1095
 5400W        W21294   5.049   0.736  13.029 -0.1138  0.2177 -0.2031
 5401W        W21295  15.628   0.302  14.215 -0.4223 -0.1630  0.1359
 5402W        W21296   7.870  17.847   3.483 -0.2550  0.1632 -0.0007
 5403W        W21297   7.412   4.924   2.485  0.4056 -0.0750 -0.0029
 5404W        W21298  18.406  14.173   3.085 -0.0855  0.1196  0.0124
 5405W        W21299  12.867  10.010   0.401  0.2037 -0.1553  0.1559
 5406W        W21300   5.324  16.999  12.063  0.0906 -0.3458  0.2151
 5407W        W21301   1.038   9.815   1.312 -0.1289  0.0569  0.5099
 5408W        W21302  11.290  18.537  11.842 -0.0861 -0.2046 -0.1106
 5409W        W21303   4.880  12.025  12.443  0.1862 -0.1724 -0.0841
 5410W        W21304  10.732   0.225  13.983  0.0939  0.1516 -0.1119
 5411W        W21305  14.410   4.883   3.089 -0.0940  0.1875  0.2328
 5412W        W21306  12.467  13.362   5.167  0.3168  0.0756 -0.0218
 5413W        W21307  11.035  12.352  11.391  0.0227  0.1391 -0.3192
 5414W        W21308   7.908   8.278   3.285  0.2038 -0.1361  0.2842
 5415W        W21309  11.179  17.750  13.645 -0.3004 -0.2040  0.1252
 5416W        W21310  16.642  12.347  14.381 -0.0145 -0.0750  0.2318
 5417W        W21311   0.039  10.693  12.541 -0.1659  0.0779  0.1191
 5418W        W21312  14.319   4.089   4.724 -0.0979 -0.1730 -0.1872
 5419W        W21313   6.915  17.739  15.356 -0.0829 -0.2012  0.2661
 5420W        W21314  15.466  12.546   2.419 -0.1475 -0.2134  0.0167
 5421W        W21315  14.097  10.829  14.674 -0.3601  0.1110 -0.0298
 5422W        W21316   1.319  17.058   2.678 -0.0997  0.2553 -0.0985
 5423W        W21317   8.259  11.537   5.045 -0.2121  0.0579 -0.0031
 5424W        W21318  11.166   1.396   2.489  0.3157 -0.0642  0.0054
 5425W        W21319  17.842   4.675  10.263  0.1499  0.3989  0.0968
 5426W        W21320   5.711   6.587  10.765  0.0515 -0.2700 -0.2571
 5427W        W21321   2.855   4.526   1.136  0.2388  0.2945  0.1332
 5428W        W21322  18.278  15.918   1.691  0.2788  0.1505 -0.2377
 5429W        W21323   5.385  14.571   2.455 -0.0862  0.0725 -0.0818
 5430W        W21324   9.174   6.307   2.192  0.0045 -0.1880 -0.0897
 5431W        W21325  17.274  10.036  10.688 -0.1869 -0.0354  0.1041
 5432W        W21326  15.405   2.452  11.694 -0.2911 -0.1981 -0.1363
 5433W        W21327  12.832   8.044   4.208 -0.0226  0.2388  0.0784
 5434W        W21328   7.133   8.806  14.128 -0.0869  0.0121 -0.1316
 5435W        W21329   9.711   3.773   4.185  0.0937  0.1436  0.0414
 5436W        W21330   9.250   1.479  11.627  0.1834 -0.0457  0.0629
 5437W        W21331   7.265   1.901   4.719  0.0224  0.0795 -0.2266
 5438W        W21332  17.100   9.952   4.729  0.1368 -0.3619  0.2181
 5439W        W21333  16.305  16.730   0.587 -0.0327  0.0498  0.4671
 5440W        W21334  10.303  10.932   2.255 -0.0171 -0.0197  0.0766
 5441W        W21335   7.415  15.940   1.742 -0.1134 -0.1101 -0.0703
 5442W        W21336  18.292  10.720   3.082 -0.1987  0.2499  0.0735
 5443W        W21337   2.396   9.546   3.642  0.0359  0.0733  0.2205
 5444W        W21338  10.898  11.019  14.827 -0.0322 -0.2122  0.2054
 5445W        W21339  12.392   6.402   3.941  0.1727  0.2588  0.0275
 5446W        W21340   9.898   5.405   3.278  0.2259 -0.3790 -0.0507
 5447W        W21341   9.770   6.663  13.168 -0.0286 -0.4581 -0.0528
 5448W        W21342   0.363  18.292  11.187 -0.0601  0.2293 -0.3073
 5449W        W21343   4.568   4.770  14.231  0.0406  0.0660 -0.2792
 5450W        W21344   3.454   7.728  10.954  0.0188 -0.1295 -0.1825
 5451W        W21345  13.782  16.608  14.327  0.0663  0.4084  0.1669
 5452W        W21346  10.416  12.174   1.940 -0.2230 -0.1179  0.0910
 5453W        W21347   9.764   9.497  10.827 -0.2974  0.1187 -0.0968
 5454W        W21348  10.144   3.943   1.880 -0.1352  0.1773 -0.5443
 5455W        W21349  12.004  16.181   2.618 -0.0691 -0.2987  0.1913
 5456W        W21350  17.306   5.340   3.569  0.2109  0.0495 -0.1501
 5457W        W21351  12.702   5.168  12.025  0.0809  0.1819  0.0024
 5458W        W21352  18.860   2.458  12.455  0.0946 -0.0444  0.5394
 5459W        W21353   5.708  17.885  12.329  0.1015  0.0631  0.3449
 5460W        W21354   9.893   6.671  11.102 -0.1299 -0.4636 -0.1050
 5461W        W21355  12.484  16.797  11.092 -0.0104  0.2831  0.2613
 5462W        W21356   6.828   3.913  11.585 -0.1905 -0.0552 -0.1735
 5463W        W21357   7.666  14.539   1.962 -0.1677  0.0474 -0.1332
 5464W        W21358  16.637   9.840  13.032  0.0671  0.0978 -0.1348
 5465W        W21359  13.846  11.899   2.833  0.0557  0.0583 -0.2128
 5466W        W21360  11.415   3.081  12.258 -0.1218 -0.2225  0.0585
 5467W        W21361   6.003   3.778   4.008 -0.1214 -0.3790  0.0695
 5468W        W21362  16.859  16.440  13.259 -0.1357 -0.0613  0.1284
 5469W        W21363  10.490  18.366   1.608  0.1650 -0.0184  0.5228
 5470W        W21364   8.457   3.176  13.020  0.0755 -0.0362 -0.0603
 5471W        W21365   1.036  18.041   4.770 -0.1557  0.0095 -0.0335
 5472W        W21366  13.200  14.559   3.849 -0.0600  0.1055 -0.2937
 5473W        W21367   0.592  10.107   3.870  0.3241 -0.1112  0.0664
 5474W        W21368   6.111  17.348  14.836  0.1869 -0.2902  0.2021
 5475W        W21369  10.259   4.096  10.868 -0.1355  0.1469 -0.2597
 5476W        W21370  11.741  17.868  12.511 -0.0157 -0.0720 -0.0748
 5477W        W21371   1.233  17.009  10.505 -0.0625  0.2082  0.1343
 5478W        W21372   0.353  13.942   3.656 -0.1613  0.0788 -0.0929
 5479W        W21373   7.985   7.905  14.812  0.3898 -0.1317 -0.0569
 5480W        W21374  11.261   1.241   3.549  0.0455 -0.1354  0.1497
 5481W        W21375  16.018  14.759   4.676  0.1214 -0.1536 -0.0508
 5482W        W21376  14.696  13.636   2.557  0.2307 -0.1637 -0.2026
 5483W        W21377  18.308  11.177  11.899  0.0292 -0.1079  0.1498
 5484W        W21378  11.486   4.263   1.295  0.1497 -0.2070 -0.1001
 5485W        W21379  12.539  15.419   3.792  0.0652 -0.2162  0.0149
 5486W        W21380   7.693   6.772  11.744  0.1882 -0.0800 -0.0618
 5487W        W21381   3.180   6.223   3.531 -0.1562  0.0449 -0.0800
 5488W        W21382   8.922  10.601  10.901  0.1101  0.1397  0.1734
 5489W        W21383   3.569   1.760  13.841  0.2299 -0.1456  0.0405
 5490W        W21384   0.072   2.770   3.424 -0.0331 -0.0646 -0.0800
 5491W        W21385   3.056   8.003   0.914  0.0909 -0.0433  0.1109
 5492W        W21386  18.183  15.298  14.695 -0.1383 -0.2468  0.4220
 5493W        W21387   0.099   7.131   1.900 -0.0408 -0.2094 -0.1813
 5494W        W21388   9.059   0.393  12.453 -0.1232  0.0352 -0.3350
 5495W        W21389  12.092  14.624   4.756 -0.0684  0.0047  0.3160
 5496W        W21390   4.534  15.265   6.173 -0.2007 -0.0285 -0.1781
 5497W        W21391  11.367   2.493  11.949  0.0883  0.2935  0.1177
 5498W        W21392   8.955  17.347   9.848  0.0325  0.0961  0.0251
 5499W        W21393   8.994   0.240   3.736  0.5804  0.3459 -0.1987
 5500W        W21394   9.856  14.279   1.971 -0.1643 -0.0326  0.2064
 5501W        W21395   1.806   1.561   4.511 -0.0743  0.0578  0.3882
 5502W        W21396  10.615  13.893   0.308  0.1691 -0.0820 -0.2264
 5503W        W21397   4.017  13.711  14.761 -0.3166  0.1535  0.2880
 5504W        W21398  14.992   2.517   2.307  0.0227  0.1358 -0.1172
 5505W        W21399  11.645  17.069  14.587 -0.0562 -0.1267 -0.3022
 5506W        W21400   2.810   3.341   2.636  0.1977  0.0013 -0.0554
 5507W        W21401   5.064  11.651   0.054  0.1256  0.3655 -0.0008
 5508W        W21402  16.329   3.542  13.523 -0.0685 -0.2815 -0.2238
 5509W        W21403   7.981  17.805  13.551  0.0708 -0.1524  0.2103
 5510W        W21404  15.905   5.369   2.732 -0.3815 -0.2175 -0.0036
 5511W        W21405   0.326  13.755   4.105  0.3713  0.3276 -0.1483
 5512W        W21406   8.281   2.152  13.077 -0.0046  0.2792  0.0544
 5513W        W21407  11.793   8.635   0.632  0.3222 -0.3365  0.3085
 5514W        W21408   7.525  10.532   5.116 -0.1387 -0.2678  0.3373
 5515W        W21409   3.065  16.312   4.739 -0.2181  0.1858 -0.2793
 5516W        W21410  13.320   7.285   3.247  0.0372 -0.1964 -0.2184
 5517W        W21411   6.174   6.243   1.964 -0.1415  0.2903  0.0184
 5518W        W21412  13.896   7.034  12.570 -0.3126  0.0091 -0.0874
 5519W        W21413  10.406  16.377  11.209  0.0092 -0.2590 -0.0839
 5520W        W21414  14.291  13.187  15.315  0.0746  0.1551 -0.2829
 5521W        W21415  14.981   1.536  12.418 -0.1210 -0.2403  0.0331
 5522W        W21416   4.031   2.652   2.848  0.0469  0.0335 -0.0249
 5523W        W21417   9.379  14.643  12.136 -0.1158  0.1248  0.0284
 5524W        W21418  18.031   3.984  12.491  0.0996 -0.0248  0.0391
 5525W        W21419  16.884   4.539  11.816 -0.0571 -0.1119 -0.2838
 5526W        W21420   2.323   8.241  14.017 -0.0269 -0.0197  0.3078
 5527W        W21421   2.201  15.642   2.059 -0.1043 -0.2253  0.1856
 5528W        W21422  13.441  15.548   4.119  0.1331 -0.0097 -0.1888
 5529W        W21423  10.773  11.403   0.882 -0.0576  0.0648 -0.4181
 5530W        W21424  11.056   1.761  14.332 -0.3266  0.0577 -0.0169
 5531W        W21425  17.933  12.019   3.192 -0.1462 -0.1031 -0.2546
 5532W        W21426  12.465  18.292  11.481 -0.0265  0.0377  0.0923
 5533W        W21427   2.142   9.702   2.750 -0.1122 -0.0118 -0.1389
 5534W        W21428  14.939  10.157   1.819 -0.2628  0.2086 -0.2010
 5535W        W21429  15.815  13.187   4.784  0.0486  0.1870 -0.0377
 5536W        W21430  12.015  11.047   0.581  0.0050 -0.1512  0.1378
 5537W        W21431  14.367  12.970  12.659  0.1100  0.0185 -0.1981
 5538W        W21432   2.791  17.727   2.824 -0.2815 -0.2687  0.0472
 5539W        W21433   1.375   9.186  12.152  0.2928  0.0572  0.0846
 5540W        W21434  13.004   2.917   2.488 -0.1006  0.2128 -0.0975
 5541W        W21435  13.779   4.924  14.944  0.1462 -0.0056  0.0799
 5542W        W21436  11.097  17.638   0.802 -0.0866  0.0528 -0.0805
 5543W        W21437   1.346   1.488   4.964 -0.0023 -0.2437  0.1688
 5544W        W21438   5.111  14.724   0.494  0.1343 -0.0048 -0.1575
 5545W        W21439  14.619   5.235   3.485 -0.3114  0.3382  0.1848
 5546W        W21440  14.514  16.239   6.245  0.1859  0.4626  0.0082
 5547W        W21441   4.586  17.133  12.681  0.0294  0.0950  0.4265
 5548W        W21442   5.810   3.866   0.159  0.1016  0.0615 -0.0920
 5549W        W21443   6.708   4.254   3.255 -0.2078 -0.0252  0.0444
 5550W        W21444  12.686   1.236  12.808 -0.0580 -0.1275  0.1032
 5551W        W21445   6.256   4.161  14.135  0.0004 -0.1386 -0.0286
 5552W        W21446  14.718   7.847   2.455  0.0926 -0.0954 -0.0197
 5553W        W21447   4.644  11.498   0.694  0.0646 -0.0214 -0.0262
 5554W        W21448   1.749  10.527  12.082 -0.3151 -0.1183 -0.0950
 5555W        W21449  16.251  14.764  11.472 -0.1259  0.1878  0.3690
 5556W        W21450  16.883  14.152  11.113  0.2285 -0.1972  0.2380
 5557W        W21451   6.265  10.556  12.650  0.1931  0.2004  0.0981
 5558W        W21452   0.744  17.253  14.900  0.3307 -0.0791  0.0884
 5559W        W21453   7.700   7.789  14.115 -0.0640  0.0335  0.1111
 5560W        W21454  17.150   5.922  11.796  0.0951  0.0187 -0.1194
 5561W        W21455  18.637   1.411   2.226 -0.0052 -0.3086  0.1526
 5562W        W21456  17.751  18.523   3.806  0.1508 -0.2437  0.1119
 5563W        W21457  13.723   5.525  11.560 -0.1798  0.2367  0.1145
 5564W        W21458  18.121   1.547   3.664 -0.1173  0.4034 -0.0490
 5565W        W21459  11.494  10.579  14.036 -0.0760 -0.0486  0.0913
 5566W        W21460   7.568   0.206   4.961 -0.0907 -0.0393  0.0363
 5567W        W21461   9.169  18.117   0.846  0.0327 -0.1316  0.1102
 5568W        W21462   1.990  10.686   0.618 -0.0050  0.2433  0.3815
 5569W        W21463   0.685   3.942  13.903  0.1220 -0.3001 -0.1053
 5570W        W21464   2.127  17.285  10.497 -0.0275 -0.2148 -0.1926
 5571W        W21465   8.442   3.985  14.680  0.0917 -0.0639  0.0594
 5572W        W21466   2.968   5.248   0.397 -0.2365  0.4924  0.0243
 5573W        W21467  14.158  12.643  11.456 -0.0732  0.2130 -0.1824
 5574W        W21468  10.081   0.436  11.917  0.1172  0.0168 -0.1499
 5575W        W21469  13.844   9.532   0.310 -0.3225  0.1072 -0.0705
 5576W        W21470  15.186  14.860  11.339 -0.0573  0.0317  0.0030
 5577W        W21471   2.627   5.255   1.495  0.0964 -0.0115 -0.2398
 5578W        W21472  18.234   5.495   3.929  0.0985 -0.0220  0.1706
 5579W        W21473  12.410  16.270  14.772  0.0161 -0.0042  0.1696
 5580W        W21474  11.818   5.732   0.447 -0.0694  0.0112 -0.0962
 5581W        W21475   8.604  18.655  15.008  0.0405  0.0285  0.3609
 5582W        W21476  15.901  14.343   3.983 -0.0245 -0.0941 -0.2621
 5583W        W21477  12.777   0.597   0.445 -0.0297 -0.2352 -0.1257
 5584W        W21478   4.262   2.685   3.425  0.2229  0.0403 -0.3327
 5585W        W21479  17.285   4.879  12.721 -0.0092  0.0010  0.1116
 5586W        W21480  13.130  11.285  10.767  0.0964 -0.1517  0.3858
 5587W        W21481   3.215   6.016   4.861 -0.4503 -0.0415  0.2699
 5588W        W21482  16.561   3.150   4.222 -0.3043 -0.1522 -0.5536
 5589W        W21483  12.197   5.069  14.967 -0.1073 -0.0035  0.0231
 5590W        W21484  12.702  15.299   0.548 -0.0892 -0.0156  0.3332
 5591W        W21485   8.128   1.642   3.919  0.2273 -0.1499  0.0536
 5592W        W21486   5.952  15.173   0.034  0.4396 -0.0551  0.1014
 5593W        W21487  11.132  16.170   3.204 -0.2173  0.0133 -0.0104
 5594W        W21488   0.784   5.401   1.501  0.1867  0.1023 -0.1002
 5595W        W21489   5.463  11.185   5.224 -0.1722  0.4066 -0.2418
 5596W        W21490  10.835  17.616  13.251  0.1606 -0.1434  0.0013
 5597W        W21491   5.188   5.705  14.252 -0.2706  0.0928  0.0929
 5598W        W21492   6.700  18.162  15.282  0.4160  0.0498 -0.0517
 5599W        W21493   6.991  10.723  14.881 -0.0098  0.0435 -0.0063
 5600W        W21494  16.516  10.488   4.149 -0.0379  0.0665 -0.1263
 5601W        W21495   9.680  15.255   1.150 -0.0846 -0.2056 -0.0787
 5602W        W21496  15.364  14.194   4.038  0.1572  0.0920 -0.1017
 5603W        W21497   8.846   3.507  11.093  0.0563 -0.1117  0.1843
 5604W        W21498   7.554  10.802  15.082  0.0946 -0.1485 -0.2701
 5605W        W21499   8.126   8.284  13.382  0.2398 -0.0301  0.0073
 5606W        W21500   6.079   5.578  13.928 -0.0053 -0.0651  0.0318
 5607W        W21501  17.674   3.966   0.406 -0.0781 -0.0860  0.1058
 5608W        W21502   0.048   3.851  11.088  0.0080  0.0441  0.2622
 5609W        W21503  14.642  11.925  12.368 -0.3374  0.1917  0.1458
 5610W        W21504   7.800  15.750   0.536 -0.0722 -0.1069  0.0433
 5611W        W21505  16.187   8.849   1.279 -0.1783  0.1985  0.0519
 5612W        W21506  10.679   7.615   0.097  0.0191 -0.2438 -0.1464
 5613W        W21507   9.352  10.474  11.767  0.1141  0.2002  0.1502
 5614W        W21508  14.058   3.753   4.524  0.4675 -0.0104  0.0136
 5615W        W21509   1.324   3.042  13.139 -0.3563 -0.2568  0.0675
 5616W        W21510  14.038   6.687  10.274  0.1883  0.1585 -0.0030
 5617W        W21511   8.738   2.659   0.217  0.0665 -0.1094 -0.0701
 5618W        W21512  12.544  10.525   1.286 -0.2512 -0.2175  0.0473
 5619W        W21513   0.212   8.563  11.327  0.0623  0.1331 -0.0655
 5620W        W21514   3.586  18.495  12.654 -0.2569  0.1166  0.0070
 5621W        W21515   2.469  10.715  12.884  0.1726 -0.0797 -0.0474
 5622W        W21516  11.920  16.489   2.238  0.1027  0.1735  0.0718
 5623W        W21517   3.448  15.033  15.128  0.0062  0.1117  0.4141
 5624W        W21518  16.155   8.481  12.606 -0.1843 -0.2013  0.4271
 5625W        W21519   6.376   9.157   5.609  0.0839 -0.1149 -0.0685
 5626W        W21520   1.889   9.918  11.229  0.1040  0.0162  0.0157
 5627W        W21521   2.667  11.415   4.102 -0.1943 -0.2390  0.0218
 5628W        W21522   9.799   4.242   1.630 -0.0854  0.1080 -0.2561
 5629W        W21523   9.372   0.710  10.634 -0.2099  0.1982 -0.0914
 5630W        W21524   1.927   3.135  10.784 -0.1991  0.2856 -0.1037
 5631W        W21525   1.631  16.781  13.752  0.2975  0.0930 -0.0846
 5632W        W21526  12.848  16.570  10.379  0.1726  0.0832 -0.1121
 5633W        W21527   3.292   9.639  10.807 -0.1515  0.0891 -0.0765
 5634W        W21528   3.989   7.147   1.414 -0.0175  0.0777  0.0773
 5635W        W21529  16.921   2.635  14.773  0.0106  0.4518 -0.1206
 5636W        W21530   8.592   0.453   4.695  0.0320  0.0268  0.1044
 5637W        W21531   3.848   5.785  14.533  0.2095  0.1726  0.0744
 5638W        W21532   3.622  16.445  12.132 -0.2588 -0.1373  0.0006
 5639W        W21533  12.873   2.931  11.268  0.2248  0.0135 -0.0975
 5640W        W21534  17.114  16.416   2.066  0.1064 -0.2060 -0.2042
 5641W        W21535   0.317  16.020   1.395 -0.0140 -0.0478 -0.0634
 5642W        W21536  13.111  13.272   3.410  0.1799  0.2378 -0.1213
 5643W        W21537   1.653   7.894   3.453 -0.1397 -0.1893  0.0286
 5644W        W21538  16.493   1.391  12.161 -0.0794 -0.2100 -0.4477
 5645W        W21539  18.662  18.144   2.164 -0.1904  0.1257 -0.0323
 5646W        W21540   4.109  18.440   2.361 -0.1845 -0.0657  0.0515
 5647W        W21541   9.410  12.728   1.207  0.0571  0.0278  0.0086
 5648W        W21542   7.684  10.946   3.929 -0.0046  0.0157 -0.0261
 5649W        W21543   3.922   0.092   3.666 -0.1021 -0.3428  0.0761
 5650W        W21544   1.760  17.730   2.280 -0.0249 -0.2186  0.1115
 5651W        W21545  17.111  15.474   4.588  0.0329 -0.1211  0.1179
 5652W        W21546   7.628  18.870  15.102  0.3478 -0.1076  0.3391
 5653W        W21547  11.169  13.915   0.430  0.2726  0.3603  0.3796
 5654W        W21548  12.748   7.981   9.738  0.0050  0.0069  0.2552
 5655W        W21549  18.836  16.544  12.688  0.0317  0.0298 -0.2209
 5656W        W21550   8.926  13.979   5.543  0.1916  0.4274  0.2120
 5657W        W21551   8.708  18.714  10.913 -0.0493 -0.1232  0.0439
 5658W        W21552   1.592   6.381  10.350  0.0744  0.1043 -0.0980
 5659W        W21553   5.069  12.024   9.251  0.0157  0.2182  0.2309
 5660W        W21554  13.344  11.630   0.686 -0.2872  0.2016 -0.2681
 5661W        W21555   4.896  15.114   1.438 -0.3421 -0.5699 -0.0144
 5662W        W21556  16.671  17.674   4.738  0.1131  0.0616 -0.0278
 5663W        W21557  17.418  16.564  13.503  0.2997  0.0572 -0.0668
 5664W        W21558  18.283  13.968  13.904  0.0499  0.0933 -0.0042
 5665W        W21559  10.365   6.635  11.970 -0.1054  0.0847  0.2612
 5666W        W21560  18.771   9.926  15.438 -0.1298 -0.0947 -0.1995
 5667W        W21561   0.480   5.913  12.340  0.1035 -0.0098  0.1473
 5668W        W21562  15.591   9.876  12.777  0.0243 -0.4061 -0.1427
 5669W        W21563  12.868   0.227  12.966  0.0550 -0.0254  0.1794
 5670W        W21564   9.314   5.903   2.637  0.0109  0.0808 -0.0244
 5671W        W21565  14.105   6.065   4.561  0.3167  0.0411  0.1458
 5672W        W21566  10.140   8.357  14.403 -0.1590 -0.2544 -0.2104
 5673W        W21567  17.273   4.724   5.461 -0.2548 -0.0925  0.1908
 5674W        W21568   7.230   3.810  11.882 -0.3348 -0.0026 -0.0827
 5675W        W21569   5.266   5.287  10.886 -0.0883  0.2109  0.1067
 5676W        W21570   0.311  12.957   1.476  0.1861 -0.1626  0.1668
 5677W        W21571   0.876   6.288   4.299  0.0058 -0.0169 -0.0910
 5678W        W21572  10.157   8.057  10.882 -0.0396  0.0832 -0.0582
 5679W        W21573   3.711  15.637   3.153  0.2640 -0.2726  0.3086
 5680W        W21574   7.023  18.420   5.031 -0.2360  0.1032  0.3599
 5681W        W21575   4.259   8.435  14.735 -0.1353 -0.0393  0.4571
 5682W        W21576  16.142   7.139   1.804  0.0677  0.3774 -0.0133
 5683W        W21577   3.495  17.632   3.428 -0.2396 -0.0008 -0.0944
 5684W        W21578  15.950   3.822  14.214 -0.2376  0.0753 -0.0782
 5685W        W21579  17.245   1.169   1.662  0.2593  0.1353 -0.0960
 5686W        W21580   0.831   1.057   3.579  0.2469 -0.0806 -0.1195
 5687W        W21581  12.281  10.017   2.687 -0.4517  0.2463  0.0026
 5688W        W21582   0.272   5.275  12.179 -0.1426  0.2238  0.1579
 5689W        W21583   1.749  12.579  14.873  0.1455 -0.0566 -0.4770
 5690W        W21584  15.233   0.697  15.433  0.3564  0.0628  0.3638
 5691W        W21585   3.259   4.919   0.062  0.0934 -0.0334  0.1185
 5692W        W21586   4.863   0.728   4.627 -0.0456 -0.0451 -0.1362
 5693W        W21587  15.076   5.293  12.855  0.0396  0.0469  0.0127
 5694W        W21588   3.947   1.767   3.344 -0.5147 -0.3744  0.2234
 5695W        W21589   0.258  11.002  12.187  0.4195 -0.2626 -0.0925
 5696W        W21590   7.234  14.229   2.882  0.0139  0.1764  0.3175
 5697W        W21591   1.259   2.920   3.211 -0.3709 -0.0326  0.0662
 5698W        W21592   5.147   2.657  15.391 -0.0677 -0.0518 -0.1110
 5699W        W21593  15.668   9.828   2.989 -0.0997  0.0296 -0.1878
 5700W        W21594   7.983  11.015  11.369  0.5803 -0.0245 -0.0116
 5701W        W21595  17.428   0.344   1.976 -0.3120  0.3053 -0.1545
 5702W        W21596   3.580   1.892   5.245 -0.1013  0.5009  0.0145
 5703W        W21597  10.117   9.353  15.457  0.1301 -0.2484 -0.1494
 5704W        W21598   0.416  14.655   3.710 -0.0818  0.0051  0.0743
 5705W        W21599  14.445   6.884  14.987  0.1903  0.1182  0.0332
 5706W        W21600  14.202  12.251   2.806 -0.0167 -0.3874 -0.2128
 5707W        W21601   1.342   2.595   1.683  0.0347  0.3199  0.2006
 5708W        W21602   9.237  12.709   0.361 -0.1105 -0.1392 -0.1775
 5709W        W21603   7.002   9.960  10.263 -0.1000  0.1500  0.3072
 5710W        W21604   9.695  16.665   3.114  0.1051 -0.0278  0.1617
 5711W        W21605  17.994  17.792   2.286 -0.0405 -0.0261  0.1794
 5712W        W21606   4.342  18.597  12.606  0.0567  0.0841 -0.1755
 5713W        W21607   0.259   0.697   2.722  0.2173  0.1720  0.2786
 5714W        W21608   5.711   1.718   9.874 -0.0418  0.0900  0.2787
 5715W        W21609  17.031   3.867   2.419 -0.1691 -0.0874  0.0540
 5716W        W21610  18.342  16.679   0.366 -0.1299 -0.1128  0.0045
 5717W        W21611   6.546  18.105  13.917  0.2198 -0.1813 -0.2706
 5718W        W21612   2.122  10.380  12.679  0.1563  0.1284 -0.0803
 5719W        W21613  16.319  17.579  14.522  0.0778 -0.3805  0.1573
 5720W        W21614   6.788   0.685  15.233 -0.1841  0.0767  0.5520
 5721W        W21615   8.111  14.170   3.051 -0.1544  0.0885  0.0743
 5722W        W21616   4.874  16.042  11.445  0.1362 -0.0211  0.0357
 5723W        W21617   7.562   5.507  10.952  0.3391  0.0833  0.0095
 5724W        W21618   5.972  11.906  12.589 -0.0709 -0.0511  0.2975
 5725W        W21619   2.994  10.719   2.577  0.1613 -0.1595  0.2680
 5726W        W21620   0.533   6.820   0.378  0.1698 -0.2423 -0.1810
 5727W        W21621   7.715  17.215  10.010  0.0574 -0.3442  0.3232
 5728W        W21622  14.304  17.487   3.049 -0.0285  0.2516  0.0483
 5729W        W21623  11.034   3.704  12.932 -0.3671 -0.0360 -0.1137
 5730W        W21624  18.389  13.551  14.401 -0.0364 -0.0878 -0.1361
 5731W        W21625   1.774   4.851  13.309 -0.1991 -0.2011  0.0806
 5732W        W21626   6.682   9.054  15.243  0.2427 -0.3532 -0.0477
 5733W        W21627   1.173  11.990  15.279  0.1454  0.2184  0.2360
 5734W        W21628   9.127   5.116   1.669 -0.1073 -0.2204 -0.2166
 5735W        W21629  11.644   4.015  15.193  0.1297  0.5558  0.0177
 5736W        W21630   2.248   6.560  11.787  0.1130  0.0953  0.0423
 5737W        W21631   3.408  13.168  12.559 -0.3295 -0.0474 -0.0592
 5738W        W21632  11.356   9.796  12.002 -0.4238 -0.0650 -0.0682
 5739W        W21633  10.779   1.322  13.430  0.2566 -0.0974 -0.2174
 5740W        W21634   9.969  11.589  11.909 -0.0845  0.3582  0.2597
 5741W        W21635  12.622   0.577   3.600  0.1164 -0.2955 -0.0875
 5742W        W21636   3.812  13.161  14.144 -0.2838  0.2400 -0.0417
 5743W        W21637  18.180  14.395   5.709 -0.1087  0.0590  0.0165
 5744W        W21638  18.681  18.856  13.754  0.0406 -0.0561  0.0047
 5745W        W21639  15.698   6.285   5.426 -0.3961  0.0004  0.2166
 5746W        W21640  17.381   1.904  14.520  0.2816  0.1529  0.2037
 5747W        W21641   3.840   5.537  14.004 -0.0584 -0.0090 -0.0803
 5748W        W21642   8.937  18.482   1.782 -0.1106 -0.1067 -0.1200
 5749W        W21643   8.666   8.245  12.159 -0.0115  0.2908 -0.0376
 5750W        W21644  14.811  12.693  13.214  0.0168 -0.0820  0.2049
 5751W        W21645   2.370  13.547   5.858 -0.0236  0.1537  0.4334
 5752W        W21646  10.810  16.530  13.829 -0.0862 -0.1377  0.0268
 5753W        W21647  10.384  16.496  14.559  0.3902 -0.1333  0.2435
 5754W        W21648   1.822  12.402  12.197 -0.2270  0.1545  0.2038
 5755W        W21649  12.487   1.769   4.164 -0.0472 -0.2940  0.1418
 5756W        W21650  15.451   5.758  11.937  0.0701  0.4700 -0.4002
 5757W        W21651  10.842  12.934  14.426 -0.0854 -0.1557 -0.2759
 5758W        W21652   9.259  11.273   3.390 -0.2048 -0.2146  0.1395
 5759W        W21653  13.677  11.980  14.084 -0.0058 -0.1559 -0.3058
 5760W        W21654   6.765  13.110  14.223  0.1648  0.0923 -0.1856
 5761W        W21655  15.688  13.269   3.136 -0.0115  0.1058 -0.1443
 5762W        W21656  15.561  16.557  11.785 -0.1184 -0.0450  0.0363
 5763W        W21657  14.866   1.052  15.407  0.3549 -0.2509 -0.2063
 5764W        W21658   8.967   4.071   0.788 -0.3214 -0.0027 -0.1691
 5765W        W21659  18.463   3.503   3.797 -0.1993 -0.1100  0.1054
 5766W        W21660   5.625   2.905  15.438  0.0780  0.0624  0.0889
 5767W        W21661   2.498   7.532  14.292  0.0481  0.2650  0.1299
 5768W        W21662  15.120  11.722   0.570 -0.1229 -0.1973  0.1506
 5769W        W21663  18.565  16.033   3.575 -0.1549 -0.3346 -0.1993
 5770W        W21664   5.357  18.684  15.474 -0.0010 -0.1581  0.0631
 5771W        W21665  13.377   8.958   2.748 -0.0954  0.0471  0.2045
 5772W        W21666  11.063   0.257  13.648  0.0073 -0.1624 -0.0390
 5773W        W21667  13.398   3.715   1.187 -0.1426 -0.3019  0.2737
 5774W        W21668  12.856   8.020  11.029  0.0616  0.2318  0.2159
 5775W        W21669  12.543  15.814   0.015 -0.1387 -0.0771  0.0765
 5776W        W21670   2.091  10.773  11.767  0.1804  0.2600  0.0647
 5777W        W21671  10.999   5.648   1.025 -0.1278 -0.3553  0.0108
 5778W        W21672  11.653  13.373  12.392 -0.1431  0.4392 -0.1138
 5779W        W21673  11.639   1.257  12.035  0.0038 -0.1491  0.0719
 5780W        W21674   0.752  17.685   2.234 -0.0963  0.0049 -0.1541
 5781W        W21675  14.912  17.522  12.627  0.1429  0.1163  0.1494
 5782W        W21676  12.625  10.741  11.830 -0.0138 -0.1899  0.2971
 5783W        W21677  11.539  16.687  15.345  0.0535  0.2177 -0.0631
 5784W        W21678   7.753  15.799  11.633 -0.1143 -0.0621  0.0773
 5785W        W21679  11.280   7.430  12.669  0.2563 -0.0336  0.0684
 5786W        W21680   1.114  13.653   3.963 -0.0307 -0.0245 -0.0097
 5787W        W21681  11.912  10.191   3.806 -0.0314  0.2323 -0.1160
 5788W        W21682   0.439   5.333   4.147  0.1274 -0.1286 -0.0990
 5789W        W21683   5.057   7.514   3.852  0.0572 -0.1076  0.2895
 5790W        W21684   5.679   5.609  11.561 -0.1661 -0.2097 -0.2633
 5791W        W21685   3.720   7.869  13.532 -0.2663  0.2765  0.0976
 5792W        W21686  12.132   3.796  14.166 -0.2066  0.2235 -0.0248
 5793W        W21687  14.980   8.563  13.938  0.1373 -0.0610  0.1134
 5794W        W21688   4.290   7.654  10.653  0.2490 -0.0400 -0.1785
 5795W        W21689   2.572   3.562  14.976  0.0705  0.3638  0.1505
 5796W        W21690   6.046  16.370   5.207 -0.0573 -0.0250  0.0547
 5797W        W21691   2.302  13.434  10.841  0.0606 -0.0221  0.0443
 5798W        W21692  12.143   3.350  14.879 -0.0269 -0.0531  0.0666
 5799W        W21693   9.238   6.887  13.288  0.1125 -0.4318 -0.0435
 5800W        W21694  17.358   2.974  10.913 -0.4361 -0.0954 -0.2184
 5801W        W21695   8.911  12.532  15.443 -0.2316 -0.0070  0.3403
 5802W        W21696  11.182  16.983  13.975  0.0851  0.1232 -0.1560
 5803W        W21697  16.985   7.134  11.132  0.0850 -0.3045 -0.2518
 5804W        W21698  15.707  13.929   4.373 -0.0072  0.2501 -0.1054
 5805W        W21699   0.427   6.598  14.791  0.0255  0.1495 -0.1783
 5806W        W21700   5.913  12.346  13.593  0.0065  0.0937  0.0583
 5807W        W21701  10.018   4.589   4.486 -0.1757 -0.2857 -0.2177
 5808W        W21702   7.665  10.550  13.750 -0.3165  0.3256  0.3936
 5809W        W21703  16.116  17.171   0.445  0.1170  0.1024 -0.2839
 5810W        W21704  18.581  17.547  15.308 -0.0238  0.0160  0.2570
 5811W        W21705   9.039  13.790   4.645 -0.0353  0.1972 -0.1838
 5812W        W21706   5.376   6.612   0.345 -0.1845 -0.1641 -0.3515
 5813W        W21707  14.803  12.825  14.178  0.1988  0.0707 -0.0624
 5814W        W21708  17.717   1.831   5.394 -0.0209  0.3395  0.0764
 5815W        W21709   1.594  12.140   2.161  0.2584  0.1315 -0.1508
 5816W        W21710   2.106   2.821   3.919  0.0908 -0.7499 -0.0183
 5817W        W21711   8.112   5.037  15.442 -0.0559 -0.2061 -0.1562
 5818W        W21712   5.313  16.459  15.167  0.1632 -0.0920  0.0879
 5819W        W21713  10.864  15.739   3.809  0.1089  0.1654 -0.1235
 5820W        W21714  10.255   2.961  11.121  0.2614 -0.0401  0.1127
 5821W        W21715   1.931  15.091   5.451 -0.1753 -0.1581  0.1292
 5822W        W21716  13.495   0.518   3.583 -0.1329 -0.0920 -0.4243
 5823W        W21717  17.674  10.818  10.761 -0.0773  0.0164 -0.3597
 5824W        W21718   0.338   0.396   0.730 -0.1186 -0.4920  0.1947
 5825W        W21719   3.816   4.776  11.154 -0.2254  0.1062  0.3342
 5826W        W21720   9.240  18.877  12.787 -0.0395  0.0558 -0.3568
 5827W        W21721   3.577  14.543   1.719  0.0524  0.0558 -0.1057
 5828W        W21722   0.208   0.493  15.365 -0.1105  0.1581  0.0236
 5829W        W21723   7.304  10.469   1.317 -0.1621 -0.0242 -0.2509
 5830W        W21724   3.869  18.496  10.632 -0.2492  0.0986  0.1784
 5831W        W21725  17.951   5.398  13.911  0.0444  0.0154 -0.1071
 5832W        W21726   7.157   0.795  14.508 -0.1803 -0.2062  0.1145
 5833W        W21727   5.546  10.971   1.746 -0.2445 -0.0557  0.2508
 5834W        W21728  12.683   3.363   0.733  0.0248 -0.2526  0.2074
 5835W        W21729   6.211   0.710  12.895 -0.1244 -0.4236 -0.0853
 5836W        W21730   0.891  10.758   1.134  0.0498  0.1547 -0.2187
 5837W        W21731   3.895  14.837  14.250  0.0971 -0.1545 -0.0931
 5838W        W21732   3.065   7.695   4.516  0.4220  0.1742  0.0809
 5839W        W21733  15.769   1.934   2.017 -0.0484  0.2182 -0.2193
 5840W        W21734   8.301   6.245   1.822 -0.0845  0.0073 -0.2335
 5841W        W21735  11.528  10.464   3.814  0.0524 -0.0307 -0.0550
 5842W        W21736  18.130   8.705   1.188 -0.1509 -0.0324 -0.1803
 5843W        W21737  17.609  10.774   0.830 -0.0317  0.0339  0.0631
 5844W        W21738  10.974  15.015   4.716 -0.2291 -0.0347  0.0519
 5845W        W21739   6.033   1.380  10.742 -0.1295  0.0262 -0.1330
 5846W        W21740  15.282  16.321   4.376  0.1239  0.0320 -0.2240
 5847W        W21741  17.894   6.066  12.174  0.0425 -0.2085 -0.0207
 5848W        W21742   0.561   5.593  11.838 -0.0915  0.0064 -0.0627
 5849W        W21743   2.115  17.873  13.282  0.0395 -0.2230  0.1558
 5850W        W21744   6.992  12.415  14.149  0.0425 -0.1785  0.1070
 5851W        W21745   7.620  14.225   3.217 -0.1086  0.3161 -0.0022
 5852W        W21746   4.541   4.551   5.475 -0.0208  0.0662  0.0063
 5853W        W21747  16.892  10.297   0.725  0.3713  0.2114  0.1252
 5854W        W21748  17.145   6.667  13.803  0.0389  0.4053  0.0565
 5855W        W21749  16.866  14.551  14.518 -0.1582 -0.1863 -0.0548
 5856W        W21750   1.045  10.273  14.712  0.1498 -0.1773  0.1959
 5857W        W21751   8.489  18.292  11.047  0.0491 -0.0857 -0.1021
 5858W        W21752   9.125   8.211  13.456  0.0679  0.1079  0.0348
 5859W        W21753   2.712   5.468   5.182  0.3766  0.1156 -0.0021
 5860W        W21754  13.076   2.521   2.211  0.2239 -0.1699  0.2792
 5861W        W21755   1.346  17.774   4.361  0.0637  0.1966 -0.0187
 5862W        W21756  15.072  18.458   1.897 -0.1365  0.0764  0.3723
 5863W        W21757   2.967   9.815  13.018 -0.0614  0.0347  0.1391
 5864W        W21758   8.072   6.667  12.714  0.0212  0.2070 -0.1525
 5865W        W21759  12.113  16.688   0.250 -0.0555 -0.0614  0.0085
 5866W        W21760   4.312   1.182   5.814 -0.0089  0.0049 -0.2048
 5867W        W21761  12.496  18.707   0.796 -0.1013 -0.2237  0.1232
 5868W        W21762   3.621  13.124   9.422  0.1409  0.1777 -0.0310
 5869W        W21763   2.262   7.348   4.273  0.3583 -0.4240  0.0638
 5870W        W21764  14.257  16.631   2.362  0.0399 -0.0571 -0.1032
 5871W        W21765   1.834   0.518  11.379  0.2876  0.1641  0.1259
 5872W        W21766   7.217   1.386   1.688  0.3091 -0.3553 -0.0344
 5873W        W21767  17.146  10.233  15.454 -0.2224 -0.0388 -0.1485
 5874W        W21768   4.087   4.095  13.281  0.0142 -0.1118 -0.0936
 5875W        W21769  16.403  17.242  10.988 -0.2603 -0.0576  0.2039
 5876W        W21770   3.275   4.328   2.448 -0.0598 -0.2703 -0.2757
 5877W        W21771  13.269   0.919   0.008 -0.2025  0.1573 -0.2855
 5878W        W21772  12.467   1.132  11.981  0.0883  0.0726  0.0578
 5879W        W21773  15.015   7.435   4.096 -0.0955  0.0966 -0.0955
 5880W        W21774  14.007   8.008  14.712  0.1302 -0.1430 -0.0117
 5881W        W21775  12.479   0.964   1.862  0.2161 -0.1564  0.0900
 5882W        W21776  12.872  15.227   6.377  0.0376  0.0925  0.1223
 5883W        W21777  14.512  11.623  14.547  0.0930 -0.0213 -0.0556
 5884W        W21778   6.186   7.232  11.975  0.2461  0.0124  0.0434
 5885W        W21779   6.307   4.694  14.173 -0.1673 -0.1130 -0.2153
 5886W        W21780   6.339  10.261  13.503 -0.0099  0.1770 -0.2752
 5887W        W21781  11.555   9.277  12.278 -0.0412 -0.3873  0.0781
 5888W        W21782  13.766   2.551   4.464 -0.0220  0.0346  0.4354
 5889W        W21783   8.611   5.860   1.820 -0.1046  0.1770 -0.2192
 5890W        W21784   3.512   1.664  11.827 -0.0188 -0.1747  0.0306
 5891W        W21785   6.454   0.394   3.189 -0.1409 -0.0669  0.2190
 5892W        W21786  13.391   3.503   3.570 -0.3301 -0.2727  0.0026
 5893W        W21787   4.060  16.622   9.796 -0.0235  0.0410  0.0636
 5894W        W21788  12.236  12.730  11.117  0.3022  0.0682  0.1849
 5895W        W21789   2.303  18.371   0.779  0.0114 -0.1740 -0.1548
 5896W        W21790  15.356  11.252   5.206 -0.2151 -0.1402 -0.1117
 5897W        W21791  17.811  16.871   0.299 -0.1074 -0.2695 -0.0583
 5898W        W21792   4.873   7.542  14.121 -0.1215 -0.0571  0.0014
 5899W        W21793   9.242  11.650  14.295 -0.1008  0.1652 -0.2847
 5900W        W21794   0.589  16.699   1.939 -0.1233 -0.1425  0.1001
 5901W        W21795   5.042  11.340   4.127  0.1475  0.1409 -0.0709
 5902W        W21796   6.395   3.725  14.419  0.3920 -0.0667  0.0773
 5903W        W21797  14.197   3.379  11.356 -0.1508 -0.1719 -0.1038
 5904W        W21798   9.622  13.619  14.859 -0.1410  0.2203 -0.3340
 5905W        W21799   8.471  12.548  12.308  0.0173 -0.0734  0.1124
 5906W        W21800   2.506   5.239   4.726  0.1179  0.1901  0.1520
 5907W        W21801  14.046   2.925   3.215  0.2993  0.3369 -0.2365
 5908W        W21802   7.432  11.630  12.965  0.0717  0.3012 -0.1019
 5909W        W21803   4.974   9.436  10.309  0.0162 -0.1082  0.1677
 5910W        W21804   6.610  11.336   4.599  0.0105  0.1314 -0.4086
 5911W        W21805  18.803  10.154  13.002 -0.0320  0.0301 -0.1157
 5912W        W21806  12.986   6.041   2.728  0.2995  0.3843  0.0187
 5913W        W21807   3.349  16.867  15.288  0.3427  0.2763  0.1027
 5914W        W21808   3.419   3.595  13.073 -0.3472 -0.3837 -0.0609
 5915W        W21809   5.916   4.769   2.755 -0.1723 -0.3594  0.0594
 5916W        W21810  16.918  14.067   5.455 -0.2348 -0.1111 -0.4050
 5917W        W21811   6.629   7.455  12.110 -0.0986 -0.0889 -0.0025
 5918W        W21812   3.754  13.521  10.966 -0.2369  0.0126  0.1782
 5919W        W21813   7.682  11.325  11.135 -0.0819  0.0193  0.1028
 5920W        W21814   7.791   9.616   0.027  0.1033  0.0715 -0.0750
 5921W        W21815   1.496  10.012   1.289  0.1545  0.0147 -0.0810
 5922W        W21816   0.546   0.474   5.864 -0.0760  0.2546 -0.2406
 5923W        W21817   5.743   1.535  14.905 -0.0474  0.0082 -0.0799
 5924W        W21818   1.748   9.649   3.147 -0.2885  0.0151 -0.0984
 5925W        W21819  13.788  14.109   1.647  0.3342 -0.1939 -0.0372
 5926W        W21820   3.828  18.265   2.862  0.0112  0.0013  0.0995
 5927W        W21821  15.606   7.979  15.397 -0.2287  0.0769 -0.2854
 5928W        W21822   4.565   4.194  11.434 -0.0567  0.0371  0.2086
 5929W        W21823   5.052   3.099   3.825 -0.0724 -0.1636 -0.2693
 5930W        W21824   0.757  10.437   4.285 -0.0084  0.0015  0.2428
 5931W        W21825  17.767   4.507   5.440 -0.3207  0.2243 -0.1226
 5932W        W21826  18.753   2.828   4.439  0.3032 -0.1178 -0.4237
 5933W        W21827   4.282  10.741   1.348  0.0282  0.3979 -0.0139
 5934W        W21828   7.320   6.965   5.330  0.0881 -0.1113 -0.0387
 5935W        W21829   7.022   8.175   1.330 -0.0650  0.1816 -0.0329
 5936W        W21830   9.663   2.552  15.277  0.1791 -0.3012  0.0424
 5937W        W21831   0.867   5.385  11.421 -0.0827  0.0964  0.1457
 5938W        W21832   9.621   8.268  11.196 -0.1401 -0.0256  0.0657
 5939W        W21833  15.355   9.489   1.629  0.0467  0.1442 -0.0680
 5940W        W21834  12.968  15.275   2.860 -0.1075  0.0874  0.2387
 5941W        W21835  13.600   4.885   1.846  0.4132 -0.0975 -0.1536
 5942W        W21836  13.451   5.270   2.764  0.2849 -0.0943 -0.3276
 5943W        W21837   0.248  16.903  11.179 -0.0532 -0.0637  0.2049
 5944W        W21838   2.023  13.722   1.848  0.2400 -0.3662 -0.1519
 5945W        W21839   7.662   9.418  14.587  0.0402  0.2641  0.0956
 5946W        W21840  16.125   5.300  11.669  0.0621  0.1561 -0.0167
 5947W        W21841   1.498  18.146   2.184  0.4278 -0.1606 -0.1305
 5948W        W21842   2.726   9.639   2.022 -0.1833 -0.0061 -0.4519
 5949W        W21843  12.953   9.850  13.551 -0.1011 -0.1616 -0.0001
 5950W        W21844  16.108  18.778  11.304  0.0052 -0.1741  0.1383
 5951W        W21845   5.017   0.676  14.381 -0.2390 -0.1205 -0.2420
 5952W        W21846  14.372   6.757  11.720  0.1538  0.1364 -0.3183
 5953W        W21847   0.628  11.891  15.429 -0.0605 -0.3195  0.3423
 5954W        W21848  18.581   9.996  14.207 -0.2182  0.1184 -0.1286
 5955W        W21849   5.710   3.044  11.959 -0.0497  0.0334 -0.0706
 5956W        W21850   6.996   5.810   4.027 -0.0858 -0.0197 -0.3442
 5957W        W21851   1.724   8.578  11.452 -0.0491  0.0272 -0.0504
 5958W        W21852  14.267  15.564   3.603 -0.2894  0.1142  0.1340
 5959W        W21853  16.018   7.085   2.403 -0.1678 -0.0583  0.1078
 5960W        W21854  16.707   8.566  12.725  0.1019 -0.1641 -0.5457
 5961W        W21855  12.530  18.773  14.651  0.0459 -0.0753  0.0274
 5962W        W21856   1.044  16.170  12.787  0.1443  0.1750 -0.1631
 5963W        W21857  17.021  13.667   1.557 -0.1512 -0.1169 -0.0052
 5964W        W21858  15.357   3.166  12.915 -0.2447  0.0621 -0.0536
 5965W        W21859  14.528   7.202  12.628  0.0048 -0.0652  0.0852
 5966W        W21860  15.440   4.065   0.957 -0.0133 -0.0464 -0.0663
 5967W        W21861   4.146   2.715  13.388  0.0086  0.0637  0.1503
 5968W        W21862  14.746   9.603  15.304 -0.2611 -0.0746  0.1373
 5969W        W21863  11.105  15.054  13.581 -0.2490 -0.1075 -0.0735
 5970W        W21864   4.298  14.567  15.164  0.0232 -0.1835 -0.0014
 5971W        W21865  12.114  15.536  11.923 -0.0501  0.0078  0.3699
 5972W        W21866   5.560  16.276  13.874  0.0852  0.0555  0.1598
 5973W        W21867  13.398   3.144   5.502  0.0786 -0.2881 -0.1000
 5974W        W21868  18.218  10.578   2.449 -0.0571 -0.2007  0.1844
 5975W        W21869   2.952   8.569  12.027 -0.2695 -0.0754 -0.2558
 5976W        W21870   4.435   2.124  12.201 -0.4213 -0.0776 -0.0475
 5977W        W21871   6.008  13.570  14.034 -0.0617 -0.2497 -0.0296
 5978W        W21872   9.323   8.125   1.226  0.1696  0.2700  0.3595
 5979W        W21873   2.907   6.511  12.983  0.1973 -0.4020 -0.0655
 5980W        W21874   7.564   0.741  12.367  0.1554  0.0039  0.1272
 5981W        W21875   2.335   9.095   1.346 -0.2208 -0.0588 -0.0184
 5982W        W21876  14.742  17.480   0.805  0.1706  0.1864 -0.3443
 5983W        W21877  13.719   2.576  12.294 -0.5415 -0.0211 -0.0832
 5984W        W21878  14.895   9.854   5.422 -0.0819 -0.2192  0.2710
 5985W        W21879  10.497  12.311  11.307 -0.0535 -0.0959  0.1784
 5986W        W21880   1.515   0.450  14.116  0.1213 -0.0428 -0.1214
 5987W        W21881   7.162   4.345  11.892  0.0951  0.3471  0.2158
 5988W        W21882  14.349   1.669   1.492  0.3776 -0.1429  0.0280
 5989W        W21883   1.633   8.886  12.417  0.2480 -0.0013  0.1655
 5990W        W21884   6.554  11.174   2.772 -0.1288 -0.2417  0.1574
 5991W        W21885   7.351  17.495  15.438 -0.1652  0.1997 -0.0184
 5992W        W21886   8.723   4.854  12.280  0.2530  0.0660 -0.0469
 5993W        W21887   3.819   3.129  14.313 -0.0004 -0.2166 -0.2057
 5994W        W21888   0.276   3.627   5.253 -0.0928 -0.3207 -0.2248
 5995W        W21889   1.731  11.103   2.773 -0.1046  0.2276  0.1555
 5996W        W21890  15.048   5.520  11.779 -0.0077  0.1798  0.4320
 5997W        W21891   7.279   9.472   0.859  0.1621  0.3081 -0.3247
 5998W        W21892   3.779   6.271  10.877  0.0257  0.2019  0.1563
 5999W        W21893   1.362  16.589   2.428 -0.0829  0.0223  0.0175
 6000W        W21894  15.432  13.282   1.529  0.1210 -0.0634  0.0970
 6001W        W21895   9.398  16.449  14.077  0.0530 -0.3658 -0.2463
 6002W        W21896   9.934   5.575   1.709  0.1662  0.0940  0.6636
 6003W        W21897   6.565  11.795   4.473 -0.4080 -0.0774 -0.0182
 6004W        W21898   2.942   9.401   2.402 -0.0579  0.5291 -0.0379
 6005W        W21899  13.093   3.411  10.868 -0.0375  0.0745  0.5027
 6006W        W21900   7.883  17.559  15.085  0.3988 -0.2246 -0.1060
 6007W        W21901   6.263   3.437   3.306 -0.0605  0.0609 -0.2428
 6008W        W21902  15.905  12.910   1.063 -0.0481  0.0509 -0.1099
 6009W        W21903  14.463  15.996   5.349  0.1250  0.0217  0.0774
 6010W        W21904   8.645  14.308   4.338  0.2012  0.0512 -0.0991
 6011W        W21905  15.873  17.626   4.154  0.1515 -0.0256  0.3110
 6012W        W21906  16.595  11.011   4.050  0.0255 -0.4551  0.0269
 6013W        W21907  10.479   2.342  13.277  0.1333 -0.0231 -0.1368
 6014W        W21908   3.859   5.323  12.095 -0.0463  0.2344  0.1273
 6015W        W21909  11.138   8.164   3.686  0.0080 -0.1061  0.0870
 6016W        W21910   6.613  10.564  11.519 -0.0952  0.0308 -0.0535
 6017W        W21911   6.772   2.298   0.299  0.2420 -0.0403 -0.1652
 6018W        W21912   4.357  15.873   0.408  0.1998  0.2530 -0.0409
 6019W        W21913   4.535  13.603   4.634  0.1030 -0.0844  0.1812
 6020W        W21914  14.480   4.974  11.981 -0.0294  0.0982 -0.0199
 6021W        W21915   8.114  18.599   9.701  0.1354  0.1284  0.1098
 6022W        W21916  11.831  14.271  12.626  0.3280  0.1775 -0.1380
 6023W        W21917   3.583   4.493   2.134  0.2433  0.0481  0.1628
 6024W        W21918  17.857   0.169   3.389 -0.2680 -0.1846  0.1410
 6025W        W21919  14.088   6.585   3.802  0.0017  0.1288 -0.1829
 6026W        W21920  16.847  11.268   0.957 -0.0599  0.1080  0.1930
 6027W        W21921   1.268   3.012  11.133 -0.1709 -0.0060 -0.2830
 6028W        W21922   8.643  11.956   3.324 -0.0516 -0.0931  0.3458
 6029W        W21923   9.102  12.923   2.258  0.0511 -0.0610  0.0851
 6030W        W21924  16.954  15.577   2.991  0.0033  0.1703 -0.0987
 6031W        W21925   7.339   4.684  14.531  0.2130  0.0651 -0.4333
 6032W        W21926   4.414  18.828   3.523  0.0940  0.1080  0.0973
 6033W        W21927  16.319   4.856   0.259  0.3130 -0.3276  0.1223
 6034W        W21928   1.971  12.007  11.228  0.1493  0.0794 -0.0116
 6035W        W21929  17.115  15.025  12.201 -0.0763 -0.0183  0.0295
 6036W        W21930  16.724  17.876   9.866  0.2503  0.0668 -0.0994
 6037W        W21931  11.795   1.466   1.031  0.3112  0.4984 -0.0697
 6038W        W21932  17.855   2.986  11.408  0.1480  0.0790 -0.1222
 6039W        W21933   6.705  13.735   5.083 -0.1279  0.2309 -0.1734
 6040W        W21934   0.237   3.383  11.108 -0.0382  0.3503  0.1020
 6041W        W21935  17.783  14.187   5.919 -0.1603  0.1499  0.1488
 6042W        W21936   8.456   6.008  12.432 -0.3852  0.1711  0.1104
 6043W        W21937  15.715   7.190   4.922  0.2626 -0.2781  0.0839
 6044W        W21938  16.840   5.339   2.403 -0.3804 -0.0067 -0.1343
 6045W        W21939  13.768  14.636  13.814 -0.2220  0.3627 -0.1394
 6046W        W21940   2.547   6.155  13.140  0.2313  0.2270  0.2369
 6047W        W21941  18.101  11.797   1.782 -0.1513 -0.1033  0.1481
 6048W        W21942   8.203  11.427  11.324  0.1369  0.0389  0.0765
 6049W        W21943   2.015  11.516  13.740 -0.0498  0.0824  0.0684
 6050W        W21944  12.143   6.983  13.105  0.0291  0.2081  0.4232
 6051W        W21945  12.766   1.494   0.715 -0.0552  0.0887  0.1269
 6052W        W21946   3.469   7.252   3.223  0.1992  0.4284  0.1963
 6053W        W21947  18.616   9.605  14.778  0.0393 -0.0522  0.2780
 6054W        W21948  18.143  12.265  12.932 -0.1953 -0.0617 -0.1030
 6055W        W21949   7.758  11.757  11.479  0.1464 -0.0179  0.0861
 6056W        W21950   9.439  18.549  12.388 -0.1188  0.0109 -0.2976
 6057W        W21951   3.188  13.715  13.694 -0.1889 -0.2476  0.2922
 6058W        W21952   7.183  11.943   3.249  0.3369 -0.0595  0.2736
 6059W        W21953  16.344   8.069   4.993  0.3507  0.3425 -0.1573
 6060W        W21954   2.225   3.857  14.742  0.2487 -0.2100 -0.0407
 6061W        W21955   5.019  18.251   4.242 -0.0712  0.0437 -0.2379
 6062W        W21956   0.857   7.364  10.922  0.1643 -0.0438  0.0735
 6063W        W21957   4.482  11.735   4.526  0.0413  0.1464  0.1558
 6064W        W21958   2.230   0.741   3.031 -0.0996 -0.1969 -0.2354
 6065W        W21959  14.280   6.006   0.014 -0.0505  0.1743 -0.0235
 6066W        W21960   5.704  15.797   0.754  0.1583  0.0340 -0.0652
 6067W        W21961  14.932  12.664  12.019 -0.0580 -0.1712 -0.0383
 6068W        W21962   9.400  18.112  11.127 -0.2662 -0.2626 -0.0144
 6069W        W21963  16.940   9.610  10.846 -0.0747  0.0884  0.0989
 6070W        W21964   6.833   8.791  14.512  0.0317 -0.2476 -0.1360
 6071W        W21965  12.777  13.258   1.348 -0.1451  0.0914 -0.4499
 6072W        W21966  14.930   7.006  14.820  0.1063  0.3515 -0.1369
 6073W        W21967  12.951  12.166  10.769  0.2475 -0.0585 -0.0416
 6074W        W21968   8.252   3.364  15.007  0.0405 -0.3249 -0.2352
 6075W        W21969   1.032  14.231   2.793 -0.2436  0.3957 -0.1866
 6076W        W21970  17.706  10.038   1.330  0.1481 -0.1821  0.1688
 6077W        W21971  14.275   6.941  13.171  0.0886 -0.3503  0.1308
 6078W        W21972  14.364  14.779   2.017  0.0098  0.0523 -0.0290
 6079W        W21973  15.935   1.235   1.417 -0.1323  0.0193 -0.1635
 6080W        W21974   3.807  12.240   4.206 -0.2228  0.0762 -0.3037
 6081W        W21975   4.755  16.083   5.461  0.2399 -0.0100  0.1905
 6082W        W21976   7.831   5.543  14.752 -0.2444 -0.0862 -0.1335
 6083W        W21977   1.626   7.215  14.693 -0.1154 -0.1989  0.2688
 6084W        W21978  14.098   7.261  15.271 -0.1981  0.2038 -0.0209
 6085W        W21979  13.301  13.161   1.541 -0.2752  0.2536  0.0082
 6086W        W21980  12.379  11.743  12.599  0.1973 -0.1448 -0.2494
 6087W        W21981   2.294  14.335   4.502  0.0070 -0.1777  0.0065
 6088W        W21982  17.447  17.053   2.479 -0.0510 -0.1861  0.0113
 6089W        W21983  13.712   5.157   0.939  0.0813  0.0487 -0.0237
 6090W        W21984  16.356   5.542  12.394 -0.4082  0.0014  0.0710
 6091W        W21985  16.509   8.157  12.651 -0.0684  0.0281  0.1575
 6092W        W21986   5.069   3.001  11.369  0.1926  0.0069 -0.1001
 6093W        W21987  13.195   0.346   0.243 -0.0254 -0.2685 -0.1793
 6094W        W21988   3.753   6.229   0.547 -0.1468 -0.0031 -0.0403
 6095W        W21989   8.034   0.309  15.378 -0.0708 -0.1365 -0.0603
 6096W        W21990  10.314   2.052   4.102  0.0861  0.0814 -0.4452
 6097W        W21991   9.040   7.633  11.760  0.0475  0.0333 -0.1272
 6098W        W21992   9.660  10.867   0.485  0.0637 -0.2564 -0.2319
 6099W        W21993   6.099  12.645  12.312 -0.2835 -0.0373 -0.1881
 6100W        W21994  17.670  16.881  13.217  0.2381 -0.1784 -0.0860
 6101W        W21995   8.860  17.339   2.301  0.1072 -0.0418 -0.2345
 6102W        W21996   4.862  15.669  11.820 -0.0712  0.2156  0.0091
 6103W        W21997  14.979   4.504   0.685  0.1215  0.0054 -0.1555
 6104W        W21998   5.691   9.353   5.160  0.0925 -0.1658 -0.1925
 6105W        W21999  14.653   0.341  11.742 -0.2182 -0.1066 -0.5208
 6106W        W22000   4.877   4.958  13.331 -0.0861  0.0035  0.2739
 6107W        W22001  18.366   1.144  13.220  0.1343 -0.0263  0.1924
 6108W        W22002   2.343  18.160  12.270 -0.3120 -0.1068  0.2675
 6109W        W22003  14.039   6.564  12.785  0.0599 -0.0682 -0.1331
 6110W        W22004  10.196  10.343   4.320 -0.0344 -0.0504 -0.1715
 6111W        W22005   3.789   6.632  11.261  0.2076 -0.1510 -0.0973
 6112W        W22006   5.823  13.059  12.097 -0.1673  0.0225  0.3357
 6113W        W22007   7.929   2.221   4.951  0.1790  0.2809 -0.0143
 6114W        W22008  10.079  12.625   1.476  0.3903 -0.0659 -0.0501
 6115W        W22009   5.443  16.807  10.826 -0.3475  0.2328 -0.3695
 6116W        W22010   0.730   7.515   2.531 -0.4987 -0.0610  0.0412
 6117W        W22011  15.610  18.265  14.650  0.2643 -0.1070  0.1319
 6118W        W22012  16.679   1.211  15.283 -0.0517 -0.3410 -0.0907
 6119W        W22013  14.635  12.200   5.025  0.0207 -0.0533  0.1590
 6120W        W22014   4.174   2.925   4.424 -0.1199 -0.2628 -0.2127
 6121W        W22015   4.392  13.699   3.850  0.0237  0.0122 -0.0200
 6122W        W22016   5.020  11.706   3.837  0.1199  0.0146 -0.1674
 6123W        W22017  17.662   2.125   2.264  0.1068 -0.0261 -0.2283
 6124W        W22018  15.871   9.407  13.800 -0.1066 -0.1776  0.1474
 6125W        W22019  10.506   1.297   1.140 -0.0549 -0.1964  0.1674
 6126W        W22020   3.270   2.450   0.637 -0.1986  0.1268  0.1870
 6127W        W22021  18.604  17.917   4.425 -0.0031  0.2110  0.0218
 6128W        W22022  10.027   2.582  11.485  0.1643  0.1120  0.0456
 6129W        W22023  11.064  17.149   5.092  0.0268  0.3815  0.1599
 6130W        W22024  17.557  17.462   2.057 -0.1947  0.0813 -0.1284
 6131W        W22025  18.775   1.405   5.486 -0.4320 -0.2599 -0.0656
 6132W        W22026  18.120  11.424  11.348 -0.2209  0.1069 -0.2320
 6133W        W22027  12.089   3.437   3.128 -0.1327 -0.0320  0.0081
 6134W        W22028   3.683   5.381  13.048  0.4339  0.2080 -0.1395
 6135W        W22029  13.140  15.825   2.753  0.1482 -0.1688  0.2042
 6136W        W22030   9.466  13.512   1.593 -0.2382  0.0914 -0.0950
 6137W        W22031  17.846   5.959   1.736 -0.0329 -0.0250 -0.1002
 6138W        W22032   5.739   3.347   0.121  0.1254 -0.5844  0.0875
 6139W        W22033   4.078   7.369  12.809  0.0453 -0.1186  0.0468
 6140W        W22034   8.452  14.068   5.255  0.2065  0.1052 -0.3537
 6141W        W22035  10.774  16.263   1.352  0.1689  0.3037  0.3143
 6142W        W22036  15.408  17.949   3.450  0.0645  0.2179  0.2597
 6143W        W22037   9.124  16.889  13.320  0.1457  0.3795 -0.1197
 6144W        W22038   3.274   2.713  13.092  0.0710 -0.2049 -0.0727
 6145W        W22039  18.006  17.068  12.434  0.1360 -0.3252 -0.0090
 6146W        W22040  10.289   7.027   3.059  0.0834 -0.4033  0.1216
 6147W        W22041   0.542   0.830   4.498  0.2300 -0.0689  0.0064
 6148W        W22042  12.593  15.140  12.264  0.3452 -0.0262  0.2552
 6149W        W22043  17.550  12.635  14.045 -0.3410 -0.1984  0.0808
 6150W        W22044   1.295   9.949  10.276 -0.1448 -0.2319  0.1774
 6151W        W22045   2.156   5.139   0.248  0.0577 -0.2254 -0.0504
 6152W        W22046  10.284  11.524  12.373  0.0235 -0.2282  0.2657
 6153W        W22047   3.835   1.354   2.451  0.0193 -0.0512 -0.0372
 6154W        W22048   8.536   6.825  12.845  0.0942 -0.0260  0.0680
 6155W        W22049   5.934   3.831   4.559 -0.0218  0.1094 -0.2132
 6156W        W22050  18.831   7.637   1.953 -0.1996  0.2399 -0.1146
 6157W        W22051   9.789   1.424  14.205  0.1202 -0.0926 -0.2163
 6158W        W22052   1.674  11.163   2.038 -0.4834  0.1456 -0.1129
 6159W        W22053   5.353   1.953   2.495 -0.1474  0.0718  0.0117
 6160W        W22054   7.625   5.654   3.342  0.2654 -0.2807  0.3511
 6161W        W22055   0.573   5.662   4.798  0.1486  0.0710  0.3384
 6162W        W22056  16.512  15.819   6.017  0.3830 -0.2682  0.3069
 6163W        W22057  10.009  16.233  11.434  0.2347 -0.2290 -0.1883
 6164W        W22058   0.585  11.305  13.820  0.0849  0.1781  0.1091
 6165W        W22059  11.218  17.082   3.917 -0.0357 -0.5534  0.1436
 6166W        W22060   4.091   7.126  11.633  0.1799  0.2578  0.1179
 6167W        W22061   4.288   4.915   0.725 -0.2440  0.4165 -0.1240
 6168W        W22062   3.563  12.760  10.845 -0.1116 -0.3685 -0.0878
 6169W        W22063  16.561   8.567  14.657  0.0759 -0.1911  0.2746
 6170W        W22064  17.352  11.264  14.131  0.4952  0.0352 -0.0859
 6171W        W22065   1.335  14.706   9.613 -0.0530  0.1494 -0.0128
 6172W        W22066  15.361  10.697  11.411  0.2159 -0.3231  0.2833
 6173W        W22067   4.481   7.218  10.822 -0.0471 -0.2861 -0.2956
 6174W        W22068  17.068   1.487  13.088  0.4396 -0.1054 -0.0965
 6175W        W22069  14.754  16.350   4.036  0.3223  0.3088  0.3664
 6176W        W22070  17.284   0.935  12.499 -0.1535  0.1607 -0.1673
 6177W        W22071   1.636   5.313  14.543 -0.0375 -0.1981 -0.1867
 6178W        W22072  16.810   4.046   0.006 -0.0480  0.2411 -0.1951
 6179W        W22073   3.967   0.936  11.428  0.1199 -0.0114  0.2374
 6180W        W22074  13.893  12.494   0.849  0.3958 -0.2063 -0.1349
 6181W        W22075   4.914  14.539   0.060  0.1622 -0.1232  0.0523
 6182W        W22076   9.832   9.949  10.969 -0.3211 -0.0183  0.2741
 6183W        W22077   9.120  14.654   6.263 -0.1569  0.1752 -0.1147
 6184W        W22078   6.245   2.886   5.093  0.1455 -0.0181  0.2706
 6185W        W22079  10.316   4.907   9.774 -0.0240  0.5520 -0.2072
 6186W        W22080  13.631  18.862   0.337 -0.0144 -0.0390 -0.1093
 6187W        W22081   1.144  10.720   3.169 -0.1283  0.0136 -0.1925
 6188W        W22082  16.336   1.578   9.544 -0.0283  0.0561  0.3580
 6189W        W22083  15.734  12.068  15.118 -0.0481  0.2461 -0.3045
 6190W        W22084   8.727  11.581   4.713  0.1167  0.2599  0.3294
 6191W        W22085   9.075   3.712   1.190 -0.3422 -0.0190 -0.1993
 6192W        W22086  12.037  18.017   0.403 -0.0652 -0.2218  0.0235
 6193W        W22087   0.363   8.866  14.879 -0.3177  0.4171 -0.0478
 6194W        W22088  18.715   5.246   4.707  0.1693  0.4418  0.1615
 6195W        W22089   9.049   9.477  15.349 -0.0250  0.0998 -0.2734
 6196W        W22090   5.534  10.125   3.295 -0.1864  0.1098 -0.3736
 6197W        W22091   6.438   5.046  11.175 -0.0460  0.0721  0.0222
 6198W        W22092  17.877  18.320   2.842  0.2886  0.1403  0.0942
 6199W        W22093  16.083   0.001  14.291 -0.1240  0.0127 -0.0765
 6200W        W22094  17.113  12.227   3.902 -0.1147 -0.0298  0.0172
 6201W        W22095  14.530  11.379   1.230  0.0476 -0.3142 -0.1381
 6202W        W22096  13.929   7.618   0.213 -0.2461  0.1311 -0.2607
 6203W        W22097  16.355  16.001   2.429 -0.1776 -0.0101  0.0572
 6204W        W22098  16.650   3.585   2.603 -0.3664 -0.2516 -0.0907
 6205W        W22099  17.347   6.077   1.996  0.1238  0.5859  0.1665
 6206W        W22100  12.405   7.582   0.753 -0.1515 -0.0224 -0.0580
 6207W        W22101  15.374   7.307   0.195 -0.0719  0.2801 -0.4975
 6208W        W22102  14.728  13.326  13.939 -0.0929  0.2443  0.3302
 6209W        W22103   0.898  11.797  14.533 -0.1888  0.2457 -0.0506
 6210W        W22104   6.798  12.314  14.628 -0.1909 -0.0445  0.1683
 6211W        W22105   8.470  16.560   5.005  0.1539  0.1685  0.1126
 6212W        W22106   4.271   9.498  13.206  0.0410  0.0135  0.0772
 6213W        W22107  11.488   4.426  15.022  0.2812 -0.1272 -0.2444
 6214W        W22108  17.489   5.152  11.440 -0.1454 -0.0087 -0.0721
 6215W        W22109  14.910  15.573  14.499 -0.0868 -0.0408 -0.0230
 6216W        W22110  13.127   2.089   1.953 -0.0624  0.4604 -0.0442
 6217W        W22111   8.141  14.909  13.370  0.1015 -0.3118  0.1151
 6218W        W22112  17.543  18.476  12.552 -0.4176  0.2550  0.1603
 6219W        W22113   5.125   6.428   0.815  0.0465  0.0234  0.0658
 6220W        W22114   5.671   9.028  13.215  0.1172 -0.2103  0.3130
 6221W        W22115   3.072   5.511   5.510  0.0216 -0.1156 -0.0151
 6222W        W22116  18.810  15.192   3.118 -0.0960 -0.2791  0.2128
 6223W        W22117   0.599   4.078  15.352  0.0456  0.1915  0.1404
 6224W        W22118   6.372   2.984  14.674  0.2350  0.2094  0.1188
 6225W        W22119   0.497   1.859   3.173 -0.0117  0.3011  0.0267
 6226W        W22120  15.985   8.220  11.445 -0.2171  0.1144  0.4842
 6227W        W22121   1.731  14.894   3.073  0.0596 -0.0881  0.3744
 6228W        W22122   0.705   8.707  12.781  0.1659  0.0038 -0.1342
 6229W        W22123   2.716  14.065   0.500  0.2045 -0.3126 -0.1829
 6230W        W22124   1.712  14.304   4.964 -0.0406  0.0996  0.1119
 6231W        W22125   2.623   8.023   3.838 -0.0801  0.0951 -0.0632
 6232W        W22126   9.971   6.904  10.663 -0.2573 -0.0741  0.0950
 6233W        W22127  13.797  17.004   5.340 -0.1362 -0.0706 -0.2927
 6234W        W22128  10.719  12.840  11.290  0.0205 -0.0319  0.0272
 6235W        W22129  11.359   1.763   0.968  0.2074  0.3696  0.0671
 6236W        W22130   1.890   1.005  12.320  0.2469 -0.2082  0.0711
 6237W        W22131   7.844  12.507  13.428  0.0370 -0.0160 -0.3214
 6238W        W22132   2.980   1.265   3.260 -0.0912 -0.0264  0.0286
 6239W        W22133   2.008   5.357   4.822 -0.3029 -0.3205  0.1186
 6240W        W22134   2.285   1.458   0.093 -0.3385  0.4008 -0.1582
 6241W        W22135   4.209  10.529  14.195  0.3570 -0.0025 -0.2666
 6242W        W22136   1.240  16.543  14.085 -0.2463  0.1548  0.1856
 6243W        W22137   4.157  11.572  11.339  0.2324 -0.2251  0.0072
 6244W        W22138  13.798   8.589  13.823  0.1116 -0.0195  0.1043
 6245W        W22139  17.915   7.246   0.421  0.0154 -0.4730 -0.2133
 6246W        W22140   0.361   1.374   4.487  0.2265 -0.1325 -0.0585
 6247W        W22141   2.393   6.264  12.245  0.2301  0.0948 -0.0721
 6248W        W22142  10.738  14.480  15.167  0.0189  0.0803  0.1446
 6249W        W22143  17.198  17.095   4.114  0.1497 -0.0823  0.1345
 6250W        W22144  13.495  12.431   4.359  0.3854 -0.1857 -0.1389
 6251W        W22145   6.332   9.517   1.278 -0.2408 -0.0063 -0.0541
 6252W        W22146  15.974  17.197   1.763  0.2572 -0.1148 -0.2054
 6253W        W22147  18.603   9.284  12.636 -0.0399  0.1167  0.0671
 6254W        W22148  12.132   1.998   4.947 -0.1010  0.1323  0.2440
 6255W        W22149  12.917   2.460   0.874  0.0524  0.0668 -0.0021
 6256W        W22150   2.377   2.636  10.584 -0.2735  0.1277 -0.0464
 6257W        W22151  16.654  12.639  12.888  0.2250 -0.0921  0.3041
 6258W        W22152   8.352  16.415   0.831  0.1055  0.1469 -0.0872
 6259W        W22153   5.546  18.019  14.566  0.0176 -0.1062  0.0662
 6260W        W22154  10.861   6.672   5.532  0.2625 -0.1192  0.0328
 6261W        W22155   0.512   1.137  13.669 -0.0411  0.3817  0.2917
 6262W        W22156   0.827  10.809   1.698  0.0332 -0.2129 -0.1368
 6263W        W22157   1.209  14.016  13.787 -0.0810  0.0331 -0.2162
 6264W        W22158  15.176   3.996   1.793 -0.1982 -0.1388  0.1415
 6265W        W22159  15.429   6.778   4.738 -0.0628 -0.2254  0.3096
 6266W        W22160   6.123  14.096   2.250 -0.0906 -0.2074  0.0022
 6267W        W22161   7.361   3.859  14.804 -0.1454 -0.1960 -0.2065
 6268W        W22162   6.789  14.540  12.530  0.2109  0.1897 -0.2287
 6269W        W22163   9.435   5.042  11.085  0.0146 -0.1164  0.2447
 6270W        W22164   5.405  12.378  11.061  0.0496  0.0338  0.0578
 6271W        W22165   2.330  12.655  14.673 -0.0414  0.0611  0.1240
 6272W        W22166   0.442   3.219  11.702 -0.0378 -0.3414 -0.1846
 6273W        W22167  13.061   3.973   0.302  0.0672 -0.0382  0.0613
 6274W        W22168   6.543   8.303   1.262  0.3550  0.0254 -0.1219
 6275W        W22169  18.146  12.077  11.294 -0.0494  0.0472  0.0492
 6276W        W22170   0.515   0.637  13.516  0.0076 -0.0138 -0.2120
 6277W        W22171  18.508  17.900   3.474  0.1375 -0.1083  0.0183
 6278W        W22172   1.305   9.359  12.792 -0.1229 -0.0960 -0.2005
 6279W        W22173   8.304  15.833  11.232 -0.3336  0.1458 -0.2587
 6280W        W22174   8.532  10.835  14.992 -0.0901  0.0436 -0.1143
 6281W        W22175   4.202   3.314   2.540  0.3865  0.1918 -0.0728
 6282W        W22176   5.561   6.180   0.508  0.0277  0.4435  0.0140
 6283W        W22177   0.319   1.072   5.338  0.0726  0.0160  0.1875
 6284W        W22178  15.490   1.982   3.447 -0.0342 -0.7402  0.0507
 6285W        W22179  12.869  18.785   4.397 -0.1960 -0.1900  0.0655
 6286W        W22180   0.997  12.850  11.914 -0.0450 -0.0071  0.0406
 6287W        W22181   7.701  11.943   2.964  0.2609  0.0773  0.1479
 6288W        W22182  10.680  12.044   0.744 -0.1384  0.1901  0.1145
 6289W        W22183   9.991   5.666   0.778  0.1606  0.3380  0.0478
 6290W        W22184   2.408   8.456   3.765 -0.0922 -0.1297  0.0709
 6291W        W22185  16.256   5.143  15.323  0.4737 -0.2463  0.0615
 6292W        W22186   7.278  12.628   0.541  0.3315 -0.2798 -0.2310
 6293W        W22187   1.067  17.555   4.719 -0.0617  0.1866  0.0385
 6294W        W22188   6.305   9.283   3.321  0.2656  0.1731 -0.1638
 6295W        W22189   6.432  13.692   3.126 -0.2002 -0.0164 -0.1108
 6296W        W22190  13.254  13.405  15.272 -0.1182  0.0688  0.0835
 6297W        W22191   1.695   1.837   5.191 -0.1089  0.0852 -0.0718
 6298W        W22192  14.346   4.930   1.293 -0.0441 -0.2699 -0.1682
 6299W        W22193  18.811  17.823   5.332  0.2355 -0.0870 -0.1157
 6300W        W22194   2.406   9.303   2.215  0.0051  0.0083 -0.0544
 6301W        W22195   7.438  15.835   3.613 -0.0912 -0.2962  0.3500
 6302W        W22196   2.264  13.654  12.471 -0.1884  0.3172  0.0576
 6303W        W22197  10.282  16.669  14.088 -0.0595 -0.0721 -0.0077
 6304W        W22198  14.089   0.474   3.786 -0.1979  0.2114 -0.0121
 6305W        W22199  16.964   8.888   3.386  0.1963  0.0366  0.0509
 6306W        W22200   6.369  15.977  14.049  0.1542 -0.2261  0.3288
 6307W        W22201  10.862   5.462   3.550  0.0205 -0.0234 -0.0609
 6308W        W22202   3.765   6.788   3.157  0.2656 -0.0859  0.1076
 6309W        W22203   9.028  18.785  12.342 -0.2900 -0.1744  0.2096
 6310W        W22204   3.437  17.526  14.212  0.3426  0.1451 -0.0285
 6311W        W22205  13.402   4.731   0.793 -0.2424 -0.0187 -0.3421
 6312W        W22206   4.114  17.539  13.147  0.1388  0.0028  0.0044
 6313W        W22207   9.456  17.958   2.539  0.2417  0.1339 -0.1687
 6314W        W22208  18.566  14.243  12.941  0.0210 -0.0313  0.1131
 6315W        W22209   9.185  13.242   0.579  0.0927  0.2624  0.0571
 6316W        W22210   8.735   6.999   4.177  0.2411  0.3422  0.0550
 6317W        W22211   7.459   2.833   2.812  0.3457  0.3489 -0.0467
 6318W        W22212   4.469  14.570   5.146  0.0637 -0.0670  0.2063
 6319W        W22213  17.631   7.184   3.299  0.0946  0.3286 -0.0664
 6320W        W22214  16.328   1.436   5.230 -0.0085 -0.0736  0.1470
 6321W        W22215   6.384   1.294  12.557  0.3099 -0.0668 -0.2562
 6322W        W22216  14.829  11.005   5.398  0.3819 -0.1158  0.2299
 6323W        W22217  14.185   7.970   0.989  0.1406 -0.0528 -0.0123
 6324W        W22218   7.237   9.490  12.900 -0.0121 -0.0375  0.0391
 6325W        W22219   4.733  16.294  10.542 -0.1375 -0.0836 -0.0458
 6326W        W22220   7.693   2.298  13.114 -0.2637 -0.1469 -0.0924
 6327W        W22221   0.370  11.081   1.555  0.0593  0.0533  0.1247
 6328W        W22222   4.195  12.069  13.519 -0.0177 -0.0564  0.1635
 6329W        W22223   1.061  15.402   1.994  0.0520 -0.0105 -0.0675
 6330W        W22224  10.375   1.294   4.928  0.1876 -0.1052  0.0604
 6331W        W22225   7.989   2.297   1.983  0.3273 -0.0715 -0.4882
 6332W        W22226   6.733   6.771   3.023 -0.0253 -0.3944  0.1527
 6333W        W22227  12.689  14.326  10.391 -0.1932 -0.0985 -0.2059
 6334W        W22228  13.176   8.346  14.083 -0.0893 -0.2850 -0.0019
 6335W        W22229   2.750   4.010  10.009  0.0656 -0.2017  0.1477
 6336W        W22230  16.137   2.843  12.083 -0.0371 -0.1978  0.0895
 6337W        W22231  16.344   2.941  11.370  0.1455 -0.3897  0.0502
 6338W        W22232  12.247   9.609   4.320 -0.1298 -0.1852 -0.0521
 6339W        W22233  11.516   3.716   3.693  0.0565  0.1150  0.1189
 6340W        W22234   5.574   2.249   3.834 -0.3934 -0.0154  0.0661
 6341W        W22235  16.457   9.887  12.541  0.0369  0.1089 -0.1638
 6342W        W22236   9.344  17.060   0.394  0.0242  0.0436  0.0040
 6343W        W22237   2.180   4.863   4.713 -0.0000 -0.1405 -0.0121
 6344W        W22238  12.523  17.665  13.232  0.4295 -0.0175  0.1796
 6345W        W22239  17.788  13.691   4.354  0.1970 -0.1126 -0.0298
 6346W        W22240   7.854   7.400   2.041  0.3677 -0.0876  0.0172
 6347W        W22241  10.487   4.978   3.826 -0.1245 -0.3257 -0.2513
 6348W        W22242  18.747   5.718   0.786 -0.1411 -0.3281 -0.2178
 6349W        W22243   8.617  12.310  14.993 -0.1054 -0.2148  0.5986
 6350W        W22244   8.978  13.558   3.943 -0.2173  0.0507 -0.0439
 6351W        W22245   0.245  17.210  10.761  0.0797 -0.1370 -0.0982
 6352W        W22246   7.089  13.910   0.249  0.2899 -0.0372  0.1354
 6353W        W22247   6.612   7.138  13.481 -0.1108 -0.1088 -0.3053
 6354W        W22248   9.930   8.725  12.021 -0.0122 -0.2445  0.5103
 6355W        W22249   6.430   7.805   1.038  0.1898  0.1202  0.1660
 6356W        W22250  17.518   3.663   9.742 -0.1025 -0.2021  0.1710
 6357W        W22251   2.374  11.727  10.800 -0.0718 -0.0290 -0.0493
 6358W        W22252  14.218   0.944  11.224  0.0223  0.0942  0.0853
 6359W        W22253  14.066   4.962   1.937 -0.1390  0.1802 -0.1738
 6360W        W22254   3.839  10.941   1.515 -0.2980  0.3066 -0.1777
 6361W        W22255  10.762   8.323  14.770  0.1781 -0.1937  0.3100
 6362W        W22256  15.767  13.454   4.178 -0.1425  0.1256  0.2444
 6363W        W22257   5.362   2.647   1.306 -0.0015  0.2046  0.0086
 6364W        W22258  12.840  16.353   4.381  0.3338 -0.1830 -0.1075
 6365W        W22259  14.723   3.420   3.794  0.4132  0.2448 -0.2830
 6366W        W22260   9.682  16.200  13.067 -0.2834 -0.2395 -0.0189
 6367W        W22261   4.965   5.180  12.846  0.0783  0.1531 -0.2205
 6368W        W22262  14.304   1.351  14.740  0.0414  0.0244 -0.0884
 6369W        W22263   7.971   9.334  12.654 -0.1193 -0.2982  0.0561
 6370W        W22264   6.483   6.672  11.312 -0.3680 -0.0646 -0.1852
 6371W        W22265  16.453  17.142  10.045 -0.2580  0.0094  0.1111
 6372W        W22266   7.606   5.408  13.676 -0.4321  0.1536 -0.0089
 6373W        W22267   3.749  13.403   4.897 -0.0797 -0.2270 -0.3071
 6374W        W22268  12.540  18.875   1.913  0.0096 -0.4340  0.2133
 6375W        W22269   4.829  14.281   0.559  0.1143  0.1007 -0.1730
 6376W        W22270   9.782  17.234   2.217  0.3224 -0.1060 -0.1643
 6377W        W22271   3.107  15.776   4.807  0.1082  0.1911  0.1347
 6378W        W22272   0.656  14.181   1.105  0.0352  0.1566  0.0325
 6379W        W22273   1.508   3.028  12.180 -0.0567  0.0887 -0.3130
 6380W        W22274  13.559  18.530  11.267  0.0084  0.0750 -0.2487
 6381W        W22275   2.210   6.203   2.263 -0.0275  0.3600 -0.0761
 6382W        W22276   3.152  11.633  10.505 -0.1143 -0.2905 -0.1103
 6383W        W22277   9.760  10.182   5.375 -0.3590  0.3250 -0.0967
 6384W        W22278  14.585   7.283  13.550 -0.0593 -0.0348  0.0345
 6385W        W22279   4.284  11.789   1.064 -0.1676 -0.1634 -0.0011
 6386W        W22280   5.570   4.351  14.690 -0.0668 -0.2183 -0.4056
 6387W        W22281  14.494  18.763   3.455 -0.1317  0.0804 -0.0029
 6388W        W22282   0.565  11.215   5.289 -0.1990  0.2589 -0.0193
 6389W        W22283  17.859  18.319  14.279  0.1756 -0.3997  0.0137
 6390W        W22284   4.462   4.355   3.461  0.0087 -0.1937  0.0577
 6391W        W22285  10.634   2.725  11.613  0.0838  0.1178  0.1040
 6392W        W22286  10.555   0.797  10.993 -0.0120 -0.0597  0.2186
 6393W        W22287  15.078   0.449  11.251  0.1157 -0.0182 -0.1266
 6394W        W22288  12.357   8.411   4.932 -0.0463  0.0554  0.0507
 6395W        W22289   5.886   0.256  12.938  0.3757  0.2556 -0.0020
 6396W        W22290   5.753  13.912   2.916  0.0910  0.1159  0.1000
 6397W        W22291   7.982   2.411  11.727 -0.1118  0.0860  0.0006
 6398W        W22292   8.099  13.857   4.458 -0.1839  0.1679  0.1259
 6399W        W22293  15.587   1.315   5.195 -0.1572 -0.0456  0.3959
 6400W        W22294  14.520   3.110  13.845  0.1665 -0.3506 -0.1873
 6401W        W22295   9.204   2.474   0.022  0.1596  0.2582  0.0426
 6402W        W22296  16.490   9.113   3.006 -0.2880 -0.4376  0.1640
 6403W        W22297   8.139   7.772   4.207  0.1567  0.0177 -0.1465
 6404W        W22298  16.242  15.066  15.448  0.0205  0.1834  0.2726
 6405W        W22299  16.288  14.593  13.046  0.3084  0.3031 -0.2844
 6406W        W22300   1.991  12.707  10.782 -0.0332  0.2831  0.0027
 6407W        W22301  14.190   3.413  14.124  0.1654  0.2163  0.0384
 6408W        W22302   0.111   7.756   3.762 -0.2630 -0.1419  0.3098
 6409W        W22303  12.406   3.699   3.589  0.2758 -0.1350 -0.1187
 6410W        W22304  12.725  11.164   3.582 -0.1373 -0.0988 -0.0213
 6411W        W22305   8.762  10.324   2.488  0.1479  0.1756  0.0415
 6412W        W22306   0.910   6.823  11.355 -0.1411 -0.0285  0.4069
 6413W        W22307  14.304  13.009  13.184 -0.2221  0.1382 -0.1317
 6414W        W22308   1.971   0.561  10.925 -0.0126  0.3878 -0.1980
 6415W        W22309   0.587   6.220   3.135  0.1894 -0.2278 -0.2962
 6416W        W22310  16.324  15.197  10.115 -0.0446 -0.1886  0.0963
 6417W        W22311  18.527   0.298   4.792  0.0241  0.1331  0.1425
 6418W        W22312  16.185  13.420   1.037 -0.0096 -0.0211  0.5360
 6419W        W22313  17.989   9.597   4.251 -0.0451 -0.1640  0.4354
 6420W        W22314   0.992   9.618   2.209  0.0317  0.0403 -0.0027
 6421W        W22315  14.164  16.983   4.626 -0.0157  0.2887 -0.0891
 6422W        W22316  13.457   4.151  12.737  0.1275  0.3062 -0.0037
 6423W        W22317   3.990   7.735   4.345 -0.1046 -0.4737 -0.4231
 6424W        W22318  12.103   5.164   5.384 -0.2015 -0.2472 -0.1186
 6425W        W22319  17.860   2.106  11.081  0.2691 -0.1096  0.2251
 6426W        W22320   9.977   1.639   2.939 -0.1706  0.1226  0.2819
 6427W        W22321   0.462  12.017  14.649 -0.0773 -0.0708 -0.0087
 6428W        W22322   8.710  11.581  14.677 -0.2333  0.3133  0.0443
 6429W        W22323  14.690  13.929  12.836  0.0908 -0.2824 -0.0592
 6430W        W22324  11.421   9.571   3.794 -0.4237 -0.0332  0.0649
 6431W        W22325  17.905   6.203   0.703  0.1764  0.1179  0.0220
 6432W        W22326   9.580   8.522   1.504 -0.0858 -0.0749 -0.0474
 6433W        W22327  17.048   3.493  10.492  0.0968  0.3295 -0.1737
 6434W        W22328  14.199  11.619   5.077 -0.0481  0.2332 -0.2313
 6435W        W22329  17.910   8.048  12.645  0.1740 -0.1512  0.3750
 6436W        W22330  14.962   3.750  13.306  0.3739 -0.0532  0.0845
 6437W        W22331  17.839   6.391  10.918 -0.0740  0.1722 -0.0459
 6438W        W22332   2.775  13.375  12.616 -0.1681 -0.3557 -0.0727
 6439W        W22333   9.698   3.714   0.480 -0.0098 -0.0102  0.0445
 6440W        W22334   8.591   5.075   1.788  0.0649 -0.0714  0.0671
 6441W        W22335   3.923   5.756   0.852  0.2947  0.0789 -0.1043
 6442W        W22336   4.678   0.023  13.607 -0.1389  0.1001  0.3850
 6443W        W22337  17.340   6.429  10.658 -0.0187  0.0929 -0.0314
 6444W        W22338  11.954  13.734   4.897 -0.1298 -0.0756  0.0739
 6445W        W22339   2.524   8.974   5.059 -0.1125  0.1118  0.2140
 6446W        W22340   0.331  12.856  13.620  0.0767 -0.0767  0.0221
 6447W        W22341  17.825   7.459   2.932 -0.0686 -0.1987  0.0403
 6448W        W22342   2.058   9.579   1.891  0.1495 -0.2203 -0.0445
 6449W        W22343   8.912   9.809   1.419  0.4167 -0.0443 -0.1220
 6450W        W22344  13.773  14.655   1.631 -0.1265  0.1297 -0.2176
 6451W        W22345   9.748  11.204   3.699 -0.1775  0.1982  0.0838
 6452W        W22346   8.653  17.926   1.620  0.1674 -0.1431 -0.3141
 6453W        W22347  14.454  10.853   4.485 -0.1069  0.1852 -0.3066
 6454W        W22348   3.228   0.422  15.198 -0.2195 -0.1630 -0.2376
 6455W        W22349   2.709  11.900   2.519  0.0271 -0.1959  0.4193
 6456W        W22350  13.655  13.761  15.470  0.0366  0.0337  0.0210
 6457W        W22351  10.594  13.075  12.188 -0.0228  0.2267  0.1013
 6458W        W22352   4.199   6.405   4.158  0.2857  0.1955  0.2423
 6459W        W22353  11.506   0.881  14.102  0.0028  0.1041  0.1542
 6460W        W22354  17.760  12.419   6.030  0.3527  0.0312  0.1004
 6461W        W22355  13.753   8.438  10.063  0.0343  0.1285  0.0415
 6462W        W22356   7.963   0.012   3.762 -0.0132 -0.2595 -0.2664
 6463W        W22357  13.956  17.486  14.032 -0.0664  0.0666 -0.2457
 6464W        W22358  15.518   6.404   4.404 -0.0798 -0.1422  0.1749
 6465W        W22359   6.033  11.448   0.320 -0.0354  0.0290  0.1410
 6466W        W22360   1.906   7.943  10.638  0.4452  0.1373  0.2390
 6467W        W22361  14.035   5.714  14.880 -0.0029 -0.2165 -0.1299
 6468W        W22362  14.348  14.161   6.029 -0.1096  0.0494  0.0345
 6469W        W22363  11.149  17.579   1.917 -0.2000 -0.1279  0.0117
 6470W        W22364   9.891   5.337  14.252  0.1305 -0.0063 -0.0356
 6471W        W22365  10.744  11.917   4.375  0.0837  0.1368  0.1168
 6472W        W22366  11.897   1.468  14.514  0.0450  0.0343 -0.1035
 6473W        W22367  13.332   1.025   2.105  0.1200 -0.1604  0.2502
 6474W        W22368   8.206  18.148  12.973 -0.0455  0.0489  0.0103
 6475W        W22369   1.681   8.433  11.938  0.1764  0.1653 -0.1638
 6476W        W22370   9.386  14.217   4.905  0.1303  0.2741 -0.0468
 6477W        W22371   2.651   7.339   4.535 -0.0767  0.1883  0.2506
 6478W        W22372   0.055  12.362  12.767 -0.2037 -0.0527  0.3212
 6479W        W22373   5.723  15.750   1.940 -0.0192 -0.0186  0.0228
 6480W        W22374   0.391   9.215  14.023  0.1197  0.1660 -0.1998
 6481W        W22375   1.169   3.195  12.565  0.0052 -0.2252  0.0671
 6482W        W22376   1.905  18.545  10.907 -0.1604 -0.2294 -0.2536
 6483W        W22377   4.242   1.760   2.920  0.2494  0.0555 -0.1796
 6484W        W22378   3.110   2.704  14.749  0.2107 -0.0773 -0.0766
 6485W        W22379   7.147   2.272   0.845 -0.2951  0.3440  0.3762
 6486W        W22380  11.061   0.354   4.322  0.0869  0.0751 -0.1701
 6487W        W22381  15.362  13.486  11.620  0.0942 -0.0077  0.1820
 6488W        W22382  18.554  16.465   4.589  0.0936  0.2216 -0.0210
 6489W        W22383  18.181   0.064   1.643 -0.0805 -0.0469  0.1367
 6490W        W22384   4.765  10.785   3.812  0.1091  0.2869  0.1405
 6491W        W22385  15.127   1.430  11.409 -0.0366 -0.1386  0.0325
 6492W        W22386  17.065  14.131   1.770 -0.2189 -0.0660  0.3605
 6493W        W22387   1.386   3.399  11.866 -0.0497 -0.1647  0.1740
 6494W        W22388   7.496   0.175   3.563  0.1462 -0.4498  0.3101
 6495W        W22389  18.749  18.421  15.119  0.1981 -0.2991  0.4082
 6496W        W22390   4.641  13.005  10.821  0.1728  0.0066  0.2387
 6497W        W22391  14.630  10.134  13.051  0.1041  0.2131 -0.0621
 6498W        W22392   7.083   5.693   0.427 -0.0188  0.0232 -0.0957
 6499W        W22393   5.929   4.714   3.612 -0.3146  0.2167  0.0362
 6500W        W22394   7.916  11.862  12.532 -0.1543  0.0158 -0.1532
 6501W        W22395   1.517  16.412  14.555  0.0494  0.5577  0.0228
 6502W        W22396   3.411   0.352  13.767  0.3151  0.2870  0.0611
 6503W        W22397  17.394  10.160   5.917  0.3054 -0.3078 -0.1490
 6504W        W22398  14.668   0.030  13.651  0.1579  0.3122 -0.1213
 6505W        W22399   3.974   2.611   1.431 -0.0137  0.0864  0.4423
 6506W        W22400   5.127   4.611   2.192  0.3753 -0.2596 -0.0233
 6507W        W22401  17.875   8.418  13.051  0.0047  0.2435  0.4717
 6508W        W22402   0.469   5.379  15.260  0.0146 -0.3520  0.3103
 6509W        W22403   8.184   6.402  14.992  0.2325 -0.0107  0.2066
 6510W        W22404  17.744   2.313   3.667 -0.1267 -0.1746 -0.1792
 6511W        W22405  12.864  18.060  11.380  0.0936 -0.2639 -0.1313
 6512W        W22406   6.063  17.671   3.884  0.0729  0.0550  0.0872
 6513W        W22407  13.873  18.165   2.238  0.1366 -0.1040  0.2560
 6514W        W22408   2.939   5.981   2.243 -0.2544  0.0733 -0.1053
 6515W        W22409  12.270   3.739   0.312  0.0174  0.0779  0.2151
 6516W        W22410   1.664  11.389   4.389  0.1488  0.0973  0.1335
 6517W        W22411   3.006   1.910   0.760 -0.1348 -0.2221 -0.2346
 6518W        W22412  17.727   0.245  13.603 -0.1963 -0.0305  0.0149
 6519W        W22413  12.837  15.374   3.393 -0.4017  0.1380  0.2321
 6520W        W22414  13.744  10.151  14.737  0.0962  0.4442  0.0019
 6521W        W22415  10.323  16.336  15.031 -0.1142 -0.0885  0.1801
 6522W        W22416   0.747   0.926  10.561  0.0303  0.0842 -0.0221
 6523W        W22417  15.948   3.219   0.591 -0.3197  0.5236 -0.1801
 6524W        W22418   5.868  11.467  11.785 -0.3002  0.0779 -0.2592
 6525W        W22419  14.416   0.033  14.615  0.1899  0.1086  0.1582
 6526W        W22420  11.533  11.767   0.593 -0.2204 -0.1507  0.2240
 6527W        W22421   4.842  13.536  15.366  0.0484  0.2561 -0.2073
 6528W        W22422  12.543  11.919  14.958  0.2068  0.3054 -0.1288
 6529W        W22423   8.069   6.412   0.609 -0.1144  0.2253  0.0157
 6530W        W22424   5.821  11.044  13.948  0.1409  0.0249 -0.1628
 6531W        W22425   6.318   8.901  11.787  0.2133  0.0387  0.0401
 6532W        W22426  18.823   1.853  12.829  0.0817 -0.3031  0.2326
 6533W        W22427  15.031   0.825  12.934 -0.1692 -0.1258 -0.0003
 6534W        W22428   7.123  15.586  13.825 -0.1976 -0.1907  0.1209
 6535W        W22429  10.407   8.104   1.434  0.1231 -0.0693  0.0212
 6536W        W22430  16.955   6.653  14.696 -0.0141 -0.0603  0.1593
 6537W        W22431  15.941  14.497  15.009  0.3992  0.0385  0.2151
 6538W        W22432   7.824  15.027  12.982  0.0608  0.2097  0.2306
 6539W        W22433  14.677  12.205  14.898  0.1542  0.0863  0.0411
 6540W        W22434   8.941  15.619   1.997 -0.1703  0.1630  0.1530
 6541W        W22435   9.272   0.514   1.882  0.1766  0.0976  0.0475
 6542W        W22436   6.711   9.749   1.685  0.0960  0.1973 -0.2319
 6543W        W22437  16.158   4.315   0.042 -0.5057  0.2109 -0.1339
 6544W        W22438  13.145  15.354  15.229 -0.1958  0.0351 -0.0373
 6545W        W22439   1.082  11.570   0.078 -0.1305  0.1361 -0.3059
 6546W        W22440  16.045  12.404  15.388 -0.0676  0.1455  0.0091
 6547W        W22441   6.250  18.800   3.213  0.3556  0.0396  0.0814
 6548W        W22442   4.091  15.652   2.657  0.1652 -0.1645 -0.1075
 6549W        W22443   6.757   3.299  12.014  0.3002 -0.2684 -0.1646
 6550W        W22444  14.806  13.075  15.209  0.3587  0.0717 -0.1311
 6551W        W22445  14.013  15.780   5.461 -0.1230 -0.0736 -0.1902
 6552W        W22446  10.766   4.475  11.242 -0.1660  0.0765  0.1667
 6553W        W22447  15.722  18.140  13.945  0.1059  0.0922  0.0967
 6554W        W22448  15.485   6.092  11.535  0.0317 -0.0366 -0.1199
 6555W        W22449  16.605  10.366   3.663  0.1097 -0.0144 -0.0432
 6556W        W22450  12.985   2.962   1.446 -0.0120 -0.1297  0.0877
 6557W        W22451   7.486  16.960  12.208  0.1047 -0.1917  0.1048
 6558W        W22452   2.410   7.061  11.865  0.0556 -0.0287  0.2104
 6559W        W22453  12.989   0.755   3.287 -0.1657 -0.1706 -0.3279
 6560W        W22454   2.766   6.869   4.703 -0.0156 -0.1747 -0.3586
 6561W        W22455   2.251  15.471  12.232 -0.1406  0.0711 -0.1631
 6562W        W22456   1.100   0.987  13.569 -0.0588  0.1201 -0.0183
 6563W        W22457   7.381   8.521   1.811  0.1039  0.0720 -0.1525
 6564W        W22458   7.981   4.145   5.030  0.2147  0.0029  0.1161
 6565W        W22459  12.029  10.094  14.566 -0.4782 -0.2106  0.0439
 6566W        W22460  18.457  10.756  12.902 -0.2079  0.0403  0.1492
 6567W        W22461   8.170   7.501   5.345  0.2311 -0.0344 -0.2489
 6568W        W22462   5.192   1.571  12.681  0.2541  0.0373  0.0329
 6569W        W22463  12.526  11.060  10.827  0.1733 -0.2748 -0.0310
 6570W        W22464  11.413   6.287   1.872  0.1161  0.2029  0.0908
 6571W        W22465   9.673   2.965   2.118  0.1314  0.1260 -0.1685
 6572W        W22466  11.924   7.495   0.734  0.3631  0.0316 -0.0137
 6573W        W22467   3.769  17.192   3.359 -0.3730  0.2050 -0.1445
 6574W        W22468  10.229  17.091   0.805 -0.2800  0.1299 -0.0871
 6575W        W22469  18.658   4.328  13.635  0.2053 -0.1750  0.0332
 6576W        W22470   7.856  10.507   4.054 -0.2355  0.0522 -0.1543
 6577W        W22471  14.381  14.650  12.833 -0.0869 -0.2451  0.2812
 6578W        W22472   6.979  13.749  13.491  0.1107 -0.2923  0.0909
 6579W        W22473   1.939   7.521   2.484  0.0883 -0.3547 -0.2688
 6580W        W22474  14.277  10.044  14.735  0.2810  0.1168  0.0094
 6581W        W22475   0.274   7.568   4.767 -0.2631  0.2051  0.1175
 6582W        W22476   4.442   8.153  13.404  0.0286  0.1179  0.2014
 6583W        W22477  17.021   7.492   2.585  0.0511  0.0054 -0.0607
 6584W        W22478  15.047  15.512   1.805  0.2804 -0.0648  0.0221
 6585W        W22479   5.507   9.291  14.109 -0.3760  0.0879 -0.0000
 6586W        W22480  14.401  12.110  11.560  0.1693 -0.1052 -0.2003
 6587W        W22481  17.356  13.789   5.461  0.2486 -0.2567 -0.1210
 6588W        W22482  11.833  18.494   0.522 -0.0625  0.1695  0.2215
 6589W        W22483  18.633  16.934  13.133  0.1811  0.0156  0.0839
 6590W        W22484  13.380   3.175  14.377 -0.1106  0.0916  0.0040
 6591W        W22485  12.178  11.684  10.956 -0.0364 -0.5388  0.0355
 6592W        W22486  12.973  11.574  15.108  0.0672 -0.1961 -0.2605
 6593W        W22487   3.350  11.364   2.136 -0.0005  0.0925  0.0323
 6594W        W22488  15.472  17.342   2.700 -0.0229  0.1440 -0.3455
 6595W        W22489   8.948   7.724  12.890  0.2704 -0.0858 -0.1431
 6596W        W22490   9.042  18.872   2.780 -0.0773  0.5126 -0.2148
 6597W        W22491  17.256  13.008   0.749  0.1058  0.0236 -0.2507
 6598W        W22492  12.776  17.490   5.655  0.1275  0.0379  0.0440
 6599W        W22493   2.419   1.155  11.442 -0.1113  0.2545  0.0355
 6600W        W22494  15.831  13.335  13.988 -0.0464  0.0493  0.1136
 6601W        W22495  16.881   7.385  11.568 -0.0754  0.0217 -0.0909
 6602W        W22496   7.905   7.700   5.002 -0.0529  0.0315  0.1111
 6603W        W22497   0.238  17.934   2.341  0.1494  0.5030 -0.1180
 6604W        W22498  14.604  13.667  12.090 -0.0771 -0.1535 -0.0398
 6605W        W22499   2.209   8.321  14.524  0.1362 -0.1027 -0.2613
 6606W        W22500   4.652   9.045  14.130 -0.0988 -0.6979  0.0300
 6607W        W22501   4.050   1.086  12.534  0.0313  0.2806  0.0646
 6608W        W22502  18.404   6.781  14.495  0.1218 -0.1488  0.2180
 6609W        W22503  16.466   8.282  13.155  0.2113  0.2485 -0.4064
 6610W        W22504  14.481  12.032  13.272  0.1174  0.1460  0.0709
 6611W        W22505  10.954  18.216  13.378 -0.2943  0.1635  0.0465
 6612W        W22506   8.608   0.681  13.120  0.1514 -0.0304  0.4777
 6613W        W22507  10.290  11.677   5.875 -0.0872  0.0304  0.1683
 6614W        W22508   1.826   9.979  12.087 -0.1592 -0.1359 -0.0578
 6615W        W22509   3.780   0.691   0.950 -0.2260 -0.0592 -0.1759
 6616W        W22510  18.130   2.937   0.778 -0.0103  0.0299 -0.3436
 6617W        W22511  18.001   4.792   0.492 -0.1372 -0.1473  0.1240
 6618W        W22512  11.092  10.779  12.677  0.0801 -0.1175 -0.0276
 6619W        W22513  13.986  11.061   3.045  0.2200  0.0789 -0.3938
 6620W        W22514  14.902   7.122   4.424  0.0592 -0.2207 -0.1502
 6621W        W22515   6.102  10.436  10.970 -0.0891  0.0944  0.0931
 6622W        W22516   0.676  14.964   2.814  0.1665  0.1358  0.0832
 6623W        W22517   3.384   1.899  12.404 -0.0857 -0.0922 -0.1599
 6624W        W22518  10.539  12.568   0.628 -0.0181 -0.1997 -0.1594
 6625W        W22519  14.852  11.237   2.219 -0.1072 -0.3316 -0.0598
 6626W        W22520  12.514  15.230  14.256  0.0973 -0.2981  0.2068
 6627W        W22521  11.494  16.380   5.498  0.2656  0.0682  0.0294
 6628W        W22522  13.103   3.806  12.936 -0.1352 -0.1868 -0.1746
 6629W        W22523  13.228   5.476   0.637 -0.1712 -0.0706  0.2486
 6630W        W22524  16.141  17.614   1.455 -0.0552  0.0922  0.0804
 6631W        W22525   7.015   3.659   2.455  0.1849 -0.1549 -0.2539
 6632W        W22526  16.158   9.790  11.358 -0.4197 -0.0080  0.3313
 6633W        W22527   9.107  15.357   2.626 -0.1209 -0.1443  0.1031
 6634W        W22528  11.043   1.855   2.363 -0.4677 -0.0677  0.0920
 6635W        W22529   4.217  17.042  14.990  0.1901  0.0092  0.0124
 6636W        W22530   5.887   2.451  12.278 -0.0590  0.2775 -0.0137
 6637W        W22531  11.964  16.499  12.401  0.0262  0.1502 -0.3757
 6638W        W22532   1.847  13.210  10.750 -0.4590  0.0706 -0.1309
 6639W        W22533  16.157   2.298  12.146 -0.1682  0.1551  0.3023
 6640W        W22534  13.173   9.450   5.134 -0.1343  0.2155  0.3943
 6641W        W22535  10.229  16.457  12.981 -0.0290 -0.5256 -0.4204
 6642W        W22536   1.893   9.561   3.639  0.1342  0.0342  0.2248
 6643W        W22537   3.561   8.189  14.466 -0.1071 -0.3123 -0.1710
 6644W        W22538  16.153   2.688  13.037 -0.4011 -0.4678 -0.0529
 6645W        W22539   9.298  11.909   1.541 -0.0329 -0.2303 -0.0850
 6646W        W22540   8.065   6.903   0.778 -0.0226 -0.0816 -0.1375
 6647W        W22541  16.276   4.540   5.222 -0.1042 -0.0834 -0.1765
 6648W        W22542  15.160  14.062   3.089 -0.2117  0.1825  0.1620
 6649W        W22543   8.800  10.273  13.487 -0.1191 -0.1042  0.5540
 6650W        W22544   5.833   9.941   0.545  0.1101  0.1346  0.0613
 6651W        W22545   3.601   4.101  11.513  0.1865  0.1328  0.0214
 6652W        W22546   7.041  18.865   3.710 -0.1499 -0.1747  0.1710
 6653W        W22547   9.155   2.093  13.550 -0.0417 -0.0817  0.3401
 6654W        W22548   0.901   9.674   5.609  0.2879  0.1815  0.1184
 6655W        W22549   1.612   3.499  12.990  0.3230  0.2008  0.1211
 6656W        W22550   1.918   1.695   0.911  0.0550  0.1213  0.2967
 6657W        W22551   0.016   6.684   0.163  0.1676 -0.0897 -0.2463
 6658W        W22552   0.414  13.773  13.268 -0.1567  0.0138 -0.1607
 6659W        W22553  18.094   5.601  13.475 -0.0097  0.1368 -0.0261
 6660W        W22554   3.200  13.879  11.788  0.1942 -0.2570  0.2476
 6661W        W22555   1.025   6.067  14.274  0.0873  0.3691  0.4299
 6662W        W22556   8.945  17.109  12.890  0.1129 -0.2807  0.1447
 6663W        W22557  17.334  15.572   1.386 -0.2770 -0.2576 -0.1181
 6664W        W22558   0.682  14.811   2.192 -0.2383 -0.1481  0.0816
 6665W        W22559   0.732   3.839   4.542  0.1305 -0.0752  0.2659
 6666W        W22560   0.207   1.044  15.398 -0.2579 -0.0585 -0.1842
 6667W        W22561  12.226  15.487  15.106 -0.0141  0.0570 -0.3655
 6668W        W22562   9.158   9.870   2.547  0.2510  0.0454 -0.1497
 6669W        W22563  15.875  10.670   2.558  0.1502 -0.1065  0.1272
 6670W        W22564   8.339  15.342   0.218  0.2418  0.2573 -0.2686
 6671W        W22565  14.096   8.332   1.328  0.2108 -0.4266 -0.0866
 6672W        W22566   2.099   3.519  13.556 -0.0665 -0.0621 -0.0415
 6673W        W22567  11.086  10.615  13.160  0.0463  0.0175  0.2295
 6674W        W22568  15.313   1.833  11.114 -0.2299  0.1311 -0.2153
 6675W        W22569  17.967  12.713  14.395 -0.1125 -0.1181 -0.1865
 6676W        W22570  10.259  14.013  15.134  0.3343 -0.0786  0.2009
 6677W        W22571   0.013   0.873  14.946 -0.1327 -0.0212 -0.1053
 6678W        W22572  13.884   6.790   2.263 -0.1228 -0.0303 -0.0758
 6679W        W22573   5.120  12.544  11.870 -0.0668  0.3582  0.0362
 6680W        W22574   8.961   2.366  11.717 -0.1910 -0.0483  0.3096
 6681W        W22575  17.633   3.529   2.439  0.0118 -0.1773  0.1435
 6682W        W22576  17.968  14.809   5.453  0.0887  0.4648 -0.2197
 6683W        W22577   8.233  14.946   2.374 -0.1118 -0.1889 -0.1492
 6684W        W22578  18.569   6.176   2.742  0.0170 -0.2064  0.2508
 6685W        W22579  12.793  12.980  11.407 -0.3091  0.1896  0.1135
 6686W        W22580  16.188   3.406   2.553 -0.1691 -0.3035  0.0817
 6687W        W22581   4.727   7.477  12.651 -0.0959  0.2970  0.0498
 6688W        W22582  13.185  13.653   5.331  0.2728  0.1205 -0.1754
 6689W        W22583   0.061   3.214  12.489 -0.3856  0.1947 -0.1906
 6690W        W22584   4.489   6.690  14.706  0.0886  0.1303 -0.0780
 6691W        W22585   6.348   8.364   4.987 -0.0023 -0.0696 -0.0624
 6692W        W22586  17.715   3.163   3.489 -0.1787 -0.0430  0.0200
 6693W        W22587  11.137  17.759   5.935  0.0088  0.0231  0.1195
 6694W        W22588  17.534  11.803   3.474 -0.2854  0.0542 -0.1382
 6695W        W22589  18.049  12.466   3.508  0.2297 -0.0477 -0.0380
 6696W        W22590   7.343   8.526  13.218 -0.1277  0.1732  0.2439
 6697W        W22591  13.551   9.885  10.535 -0.4002  0.2962  0.0345
 6698W        W22592  14.465  15.930   3.323 -0.0562 -0.1132 -0.2756
 6699W        W22593  11.815   5.688   4.271  0.1467  0.3166  0.5442
 6700W        W22594   9.794   5.138   2.692  0.2539 -0.3051 -0.1075
 6701W        W22595  12.286  13.234   3.788  0.3306 -0.0743  0.0782
 6702W        W22596  17.918   6.045  11.287  0.4236 -0.0753  0.3358
 6703W        W22597   9.184  13.959  15.424 -0.0434  0.1089 -0.2139
 6704W        W22598   6.828  15.667  13.114 -0.2983 -0.0362  0.1040
 6705W        W22599   3.778   3.171   3.528  0.1806  0.1210  0.2685
 6706W        W22600  10.230  13.718  12.273 -0.1292 -0.3179 -0.1312
 6707W        W22601  14.936  14.252   2.621  0.5023  0.1500  0.1764
 6708W        W22602  12.106   2.371  13.175  0.0429 -0.1294 -0.0293
 6709W        W22603   8.422  17.358  11.495 -0.0838  0.1478  0.1389
 6710W        W22604   4.249   8.845  13.888 -0.4405  0.3812 -0.0871
 6711W        W22605  18.639   7.984  11.407  0.1176  0.1714 -0.2411
 6712W        W22606   5.907   3.258   5.230  0.1911 -0.1642 -0.4236
 6713W        W22607  11.759   8.089   0.643  0.2587  0.0890  0.1768
 6714W        W22608  11.772  15.703  14.358  0.3554  0.0046 -0.1687
 6715W        W22609   0.252   0.628   3.595  0.2934  0.4186  0.3115
 6716W        W22610  16.083   2.909   1.026  0.1806  0.1849  0.1997
 6717W        W22611   1.388  12.180   1.698  0.0199  0.0388  0.2841
 6718W        W22612  17.967   1.010  11.740  0.0915  0.1821  0.2137
 6719W        W22613  11.845   5.448   4.744  0.2748 -0.1589 -0.1543
 6720W        W22614   1.689  14.831  11.533 -0.1849 -0.0786 -0.0933
 6721W        W22615   1.560   4.009   1.380 -0.0293 -0.0586  0.0767
 6722W        W22616   7.844   4.727   3.692 -0.2304  0.3347 -0.2517
 6723W        W22617   2.913  10.949  12.486  0.2001 -0.1881 -0.1934
 6724W        W22618  10.554   5.287   4.854  0.1582 -0.0781  0.0528
 6725W        W22619   4.424   2.756   1.552  0.3687  0.3302 -0.0784
 6726W        W22620  17.396  18.240   1.719  0.0127 -0.4277  0.3314
 6727W        W22621   7.762  13.432   0.046 -0.0183 -0.5965  0.1765
 6728W        W22622   9.141  17.911  15.236  0.0148  0.0805 -0.0202
 6729W        W22623   5.308  15.655   0.302  0.0129 -0.3125 -0.3240
 6730W        W22624   2.682  18.863  11.605 -0.0433 -0.1277  0.0775
 6731W        W22625   2.055  15.259   2.339 -0.1688 -0.1241 -0.3706
 6732W        W22626  15.257  12.445   3.606  0.0510  0.2551 -0.0108
 6733W        W22627   9.725   7.610  13.369 -0.1380 -0.2855 -0.2534
 6734W        W22628   0.491  14.810  13.913 -0.1198  0.0193 -0.0554
 6735W        W22629   4.527   5.277   4.053  0.0732  0.2768 -0.0797
 6736W        W22630   1.115  14.245  11.019  0.3025 -0.4143  0.0586
 6737W        W22631  17.103   6.824   5.538 -0.4547 -0.0816 -0.0710
 6738W        W22632   8.173  10.600   3.166  0.0480 -0.1440  0.3190
 6739W        W22633  13.474  10.566  13.616  0.0574 -0.2879 -0.1648
 6740W        W22634   0.198   8.304   2.716  0.0039  0.0786 -0.0095
 6741W        W22635   4.736   4.414  10.061 -0.3946  0.2892 -0.0992
 6742W        W22636   4.685   3.372  10.037 -0.2979 -0.1829 -0.0395
 6743W        W22637   9.153   3.182   4.648  0.0848 -0.1383  0.2168
 6744W        W22638   4.890  11.089  12.780 -0.0265 -0.2086  0.0856
 6745W        W22639   9.646  12.221   5.838 -0.1587 -0.0751  0.0076
 6746W        W22640   0.103  14.812  13.560  0.0698 -0.0609 -0.4002
 6747W        W22641  12.395  14.665   3.865  0.0690  0.0769 -0.1614
 6748W        W22642   2.370   8.404   0.420  0.0724  0.0227  0.0498
 6749W        W22643  11.975   7.058   2.487  0.3726  0.0914 -0.0816
 6750W        W22644   8.612   4.109   3.149  0.0204  0.0285 -0.2262
 6751W        W22645  17.791   4.066   1.886 -0.1572  0.0005 -0.1460
 6752W        W22646   9.341   1.514   1.568 -0.0682 -0.0364 -0.1999
 6753W        W22647   5.565   4.160   1.339  0.2254 -0.1885  0.3327
 6754W        W22648  13.970  10.230   0.933  0.0393 -0.2435 -0.0265
 6755W        W22649  17.455  18.559   1.239 -0.2166 -0.3352 -0.3878
 6756W        W22650  18.414   8.607  15.227 -0.0231 -0.2502 -0.0593
 6757W        W22651  12.750   7.143  12.235 -0.0453  0.1074 -0.1217
 6758W        W22652   5.012   8.830   3.211 -0.2322 -0.0503 -0.0903
 6759W        W22653   2.881  12.308   9.468  0.2126  0.0945 -0.1772
 6760W        W22654  16.674   4.389  13.249 -0.0514 -0.0271  0.1082
 6761W        W22655   3.340  11.669   0.150 -0.0852 -0.1764  0.0763
 6762W        W22656   7.717   4.136   1.192  0.0308 -0.2700 -0.1472
 6763W        W22657   4.073  14.121   1.948  0.2272 -0.0250  0.0787
 6764W        W22658   5.956  11.418   1.536 -0.2669  0.0356 -0.2473
 6765W        W22659   3.641   6.695  14.025 -0.0178 -0.1348 -0.0245
 6766W        W22660  12.704   9.437  11.028  0.0103  0.2095 -0.2544
 6767W        W22661   3.185  11.783   1.369 -0.0106 -0.3611  0.1733
 6768W        W22662   3.962  16.039   0.065  0.0296  0.2043 -0.4526
 6769W        W22663  15.656  18.542   5.593 -0.1609 -0.0459 -0.1633
 6770W        W22664   2.318  12.024  10.342 -0.1105 -0.0220  0.1575
 6771W        W22665   6.047  18.343  13.789 -0.1191 -0.1290 -0.0249
 6772W        W22666   6.657   7.287   3.015  0.0672  0.1209 -0.0013
 6773W        W22667   7.472  12.022   3.999 -0.0679  0.1122  0.0283
 6774W        W22668  16.788  14.543  11.501 -0.0475  0.2047  0.0993
 6775W        W22669   6.399  17.019  12.351  0.2535  0.4535 -0.0005
 6776W        W22670  15.921  10.373   1.840 -0.2109  0.0247 -0.3755
 6777W        W22671   5.656  17.686   2.209 -0.0711 -0.1118  0.0331
 6778W        W22672  12.940  13.436   1.785 -0.1134 -0.0755 -0.2252
 6779W        W22673   1.837  17.971   4.698  0.0485  0.0840  0.1448
 6780W        W22674   3.975  18.461   3.470 -0.0040 -0.1130  0.1848
 6781W        W22675   9.234   2.754   3.092  0.3457  0.0146  0.0956
 6782W        W22676  13.908  18.652   2.505  0.0711 -0.1066 -0.3670
 6783W        W22677   6.830   0.012  12.473 -0.0425  0.0548 -0.1163
 6784W        W22678   0.749   1.866   5.800 -0.0405 -0.0963  0.0016
 6785W        W22679  11.430   3.565   1.690 -0.1260 -0.2254 -0.0655
 6786W        W22680  17.555   9.703  12.549  0.1051  0.4331 -0.4133
 6787W        W22681   3.308  14.117   4.791  0.5763 -0.2538  0.2715
 6788W        W22682   8.962   7.207  13.606  0.1066 -0.0542 -0.2030
 6789W        W22683  10.719  16.958   0.229  0.4423 -0.0565  0.1037
 6790W        W22684   2.461   2.196  11.742  0.0385  0.0754 -0.0503
 6791W        W22685   2.818   4.942  14.707 -0.0662  0.2691  0.1766
 6792W        W22686  12.930   9.035  11.068  0.0984  0.0962  0.3189
 6793W        W22687   0.483   7.300   1.655  0.1803  0.0547  0.1633
 6794W        W22688   7.629   4.210   2.234  0.0051 -0.1363  0.0910
 6795W        W22689  11.954   3.445   3.709 -0.1784 -0.2417  0.0600
 6796W        W22690  13.816  13.741  10.851  0.3720  0.0585  0.0876
 6797W        W22691   8.918  11.932  12.341  0.2110  0.4114 -0.1826
 6798W        W22692  10.959   7.765   0.720 -0.1943 -0.0952  0.1047
 6799W        W22693  11.271   0.852  14.970 -0.2215 -0.0969  0.0315
 6800W        W22694  18.876   2.342   2.184  0.0872  0.1108 -0.1494
 6801W        W22695  15.468  11.199   3.857 -0.0571 -0.2534  0.0275
 6802W        W22696   1.107  15.590  13.685  0.2244 -0.1477 -0.0361
 6803W        W22697   6.950   4.924   3.703 -0.0816 -0.3713  0.0390
 6804W        W22698   9.209  15.179  10.661 -0.1410  0.0354 -0.2277
 6805W        W22699  18.277   0.552   2.018 -0.1094  0.3555 -0.0568
 6806W        W22700  10.248   5.638  11.283  0.1076  0.0882  0.2878
 6807W        W22701   0.853   4.577   0.789 -0.3202 -0.1859 -0.1679
 6808W        W22702   1.502  12.806   5.393  0.1530 -0.1840 -0.1306
 6809W        W22703  17.781   0.561  11.991  0.3720  0.0654 -0.0822
 6810W        W22704   0.080  12.386   3.121  0.0686  0.0708 -0.1433
 6811W        W22705  16.335  12.136   2.150 -0.0767 -0.1206 -0.0286
 6812W        W22706   7.257   1.912   3.603 -0.4094 -0.2605 -0.0409
 6813W        W22707  10.762  10.029   1.122  0.1877 -0.4029 -0.0692
 6814W        W22708  12.239   7.226   4.539 -0.2351  0.2162  0.1731
 6815W        W22709   2.700  11.506   2.199  0.4254 -0.0920  0.3592
 6816W        W22710  11.973  12.061   2.060  0.0532 -0.0017  0.2000
 6817W        W22711  18.363   7.063  12.382  0.0698 -0.1413 -0.2344
 6818W        W22712   9.539   8.443   0.420  0.0191  0.0365  0.1607
 6819W        W22713   8.526  12.043   4.824  0.1448  0.3387 -0.1876
 6820W        W22714   5.316  17.319   0.222  0.1173  0.1365  0.3015
 6821W        W22715  14.951  11.377   3.896  0.0440  0.1500  0.0131
 6822W        W22716  18.471   4.201  14.076  0.3009 -0.2018  0.0544
 6823W        W22717  14.491   1.868  14.892  0.1113  0.3390 -0.3921
 6824W        W22718   7.215   2.536  14.042 -0.0920 -0.3195 -0.2865
 6825W        W22719   9.972   2.387   3.601 -0.0780  0.0710 -0.1484
 6826W        W22720   8.080  18.268   0.195  0.1884  0.1492  0.1523
 6827W        W22721  18.058   6.607  12.279  0.1157  0.0639 -0.0235
 6828W        W22722  14.933   8.967  10.919  0.0592  0.1145 -0.1383
 6829W        W22723  11.456   2.212  14.870  0.3052 -0.2144 -0.0001
 6830W        W22724  17.600  14.437   0.867 -0.2798 -0.0327  0.2591
 6831W        W22725   6.503  10.695   0.664  0.4182  0.2798 -0.2156
 6832W        W22726   9.023  11.575   3.059 -0.0194  0.0828  0.2736
 6833W        W22727  13.278   7.570   0.999 -0.0069 -0.1201  0.0477
 6834W        W22728   2.472   4.873  10.650 -0.1524  0.1978 -0.1594
 6835W        W22729  12.192   4.047  11.132  0.0201  0.3390  0.1527
 6836W        W22730  12.116   0.198   2.107 -0.2058  0.0516  0.0873
 6837W        W22731   1.117   1.368   2.432 -0.0381  0.0581  0.3472
 6838W        W22732  12.299  10.456   0.459 -0.0176 -0.2526 -0.2321
 6839W        W22733  13.699   4.329  12.179  0.0228  0.0763 -0.1253
 6840W        W22734   7.893   2.975  12.671  0.2039 -0.1910  0.3008
 6841W        W22735   0.039   5.280  10.245 -0.3072  0.1598  0.0943
 6842W        W22736  11.501  10.976  12.056 -0.1644 -0.0813  0.1629
 6843W        W22737  12.570   1.002   4.619  0.3048  0.1317 -0.1334
 6844W        W22738  17.449   6.266  14.533 -0.1108  0.2430  0.2885
 6845W        W22739   5.751   5.262  10.728  0.1736 -0.2109  0.0359
 6846W        W22740  12.971  16.439  12.674  0.3639  0.1565  0.1298
 6847W        W22741  18.314  10.208  14.648 -0.1472  0.0352 -0.1857
 6848W        W22742   6.338   6.900  14.475  0.0518 -0.0942  0.0466
 6849W        W22743  16.416   0.692   1.963 -0.2171  0.1650  0.0611
 6850W        W22744  18.218  18.607   9.613  0.1700 -0.0965 -0.1818
 6851W        W22745   4.232   6.198   1.651  0.1098 -0.2495  0.1843
 6852W        W22746   9.722  17.614  13.234  0.0767 -0.0077  0.0895
 6853W        W22747   7.414  11.080  12.989 -0.0975 -0.0814 -0.2879
 6854W        W22748  16.035  17.774   0.993  0.1087 -0.2045 -0.1743
 6855W        W22749   9.563   5.932  14.973  0.0055  0.0449 -0.1971
 6856W        W22750   2.410   0.006   0.989  0.0144 -0.1526 -0.0861
 6857W        W22751  10.334   1.070  13.619 -0.2564  0.2224 -0.2035
 6858W        W22752  15.754  14.877   2.881  0.2665  0.0593 -0.0856
 6859W        W22753   4.035  14.975   4.544 -0.1483  0.1289  0.2747
 6860W        W22754  13.431  12.391   4.937 -0.0780  0.1160  0.3175
 6861W        W22755   1.548   3.109  15.020  0.2474 -0.1743 -0.0645
 6862W        W22756  14.019   0.611  15.173 -0.1856  0.0676  0.0866
 6863W        W22757   1.132  14.130   4.222 -0.1058 -0.0424 -0.1276
 6864W        W22758   5.779   7.441  11.361  0.2822 -0.0318  0.2097
 6865W        W22759   3.772  15.883  14.111  0.1884  0.3622 -0.0299
 6866W        W22760   6.659   8.536  13.813  0.0113  0.2521 -0.0087
 6867W        W22761   2.649   3.834  12.725  0.0518 -0.0025 -0.1838
 6868W        W22762   6.686   7.255  15.270  0.3828 -0.1891 -0.0435
 6869W        W22763   4.848  10.620  14.564 -0.3746 -0.2910 -0.2257
 6870W        W22764   1.346   8.591   3.910  0.0083  0.5009  0.0769
 6871W        W22765   2.063  13.719   1.270 -0.2713  0.0860  0.1649
 6872W        W22766  18.695   2.821  12.858 -0.2319  0.3780 -0.1058
 6873W        W22767  13.622   3.390   4.102  0.2012  0.0797  0.0468
 6874W        W22768  15.363  11.067  10.690  0.1883 -0.2662  0.0519
 6875W        W22769   9.413   0.632   0.604  0.1557  0.0436 -0.0155
 6876W        W22770   8.647  14.929   5.547  0.0949 -0.4301  0.0042
 6877W        W22771   3.303  14.532   3.942  0.0838  0.1592  0.2096
 6878W        W22772   4.043   1.984   0.403  0.0224 -0.2074 -0.2261
 6879W        W22773   5.069  11.539  14.105  0.0140  0.1573  0.0316
 6880W        W22774  18.303   2.918   2.658  0.1204  0.0521 -0.1113
 6881W        W22775  13.097   6.756  11.440  0.1087  0.0735  0.1622
 6882W        W22776   1.681  17.680   1.795  0.2166  0.2332  0.0733
 6883W        W22777  18.620   4.581   1.214 -0.1720  0.0966  0.3988
 6884W        W22778  17.017   7.066   3.264  0.2459  0.0259 -0.0534
 6885W        W22779   4.321  14.176   9.683 -0.0215  0.0414 -0.0077
 6886W        W22780   7.872   6.313  13.171 -0.0238  0.0846 -0.1887
 6887W        W22781  16.974  14.024  14.582 -0.1185  0.0565  0.3663
 6888W        W22782   4.532  15.456  13.594  0.3877  0.2276  0.1382
 6889W        W22783  18.725  16.486  13.228  0.0997  0.0575  0.0669
 6890W        W22784   8.868   2.539   1.339 -0.1424  0.0191 -0.0999
 6891W        W22785   2.210   8.320  15.487  0.0062  0.1960 -0.0692
 6892W        W22786  17.435   0.669  13.353  0.0456  0.3030  0.0881
 6893W        W22787  14.896  17.616   5.124 -0.3159  0.3893  0.3042
 6894W        W22788  15.713   0.180   5.817  0.0640  0.2926  0.2907
 6895W        W22789  16.453  10.147   2.680 -0.1019  0.1127  0.3995
 6896W        W22790   6.234  14.560   3.518 -0.0265 -0.2811 -0.3161
 6897W        W22791   0.639  12.240   0.712 -0.0400 -0.1830 -0.1672
 6898W        W22792  18.427   7.040  13.382 -0.0113 -0.0406 -0.1804
 6899W        W22793   3.869   3.318  14.869 -0.1861  0.1124 -0.0851
 6900W        W22794  16.532   4.985  14.900  0.3467 -0.2263  0.1462
 6901W        W22795   9.900  18.031  12.131 -0.0027  0.0449  0.1612
 6902W        W22796  14.274  14.157  12.693 -0.0062  0.3441  0.2579
 6903W        W22797   3.449  15.944   2.734  0.2067  0.0753 -0.0503
 6904W        W22798   1.558   0.070  12.387  0.2640  0.0548 -0.3337
 6905W        W22799  11.300   7.299   3.938 -0.0213 -0.2054  0.1802
 6906W        W22800  14.880   3.572   2.237  0.0599 -0.1596 -0.1709
 6907W        W22801   5.149  17.600  13.399 -0.4104  0.1144 -0.0854
 6908W        W22802   0.015  10.583  13.761 -0.5116  0.1398 -0.1283
 6909W        W22803  10.779   7.864  11.959 -0.1756  0.0626 -0.0717
 6910W        W22804  18.648  15.054  13.147  0.0137 -0.1012 -0.2734
 6911W        W22805  18.840   4.474  14.224 -0.2234  0.2983  0.1766
 6912W        W22806   3.414   3.126  12.814 -0.3439 -0.1668 -0.1843
 6913W        W22807  16.650   1.286   3.916 -0.0281  0.0897 -0.2554
 6914W        W22808  14.274  17.198   6.115 -0.2797  0.1678  0.3728
 6915W        W22809   7.900  14.971  14.524  0.1113 -0.0201  0.3113
 6916W        W22810  13.012  18.405  12.333  0.1173  0.1417  0.0526
 6917W        W22811   4.902   5.568   9.548  0.1099  0.1191  0.1505
 6918W        W22812  15.619  18.655  14.099 -0.1686  0.0273  0.1999
 6919W        W22813   0.926   4.809  13.505 -0.0410  0.1030  0.0007
 6920W        W22814   5.191   0.245   0.299  0.3920  0.1660 -0.1816
 6921W        W22815  10.967   5.102   3.863 -0.0027 -0.0946  0.0736
 6922W        W22816  10.168   4.518  12.777 -0.0959 -0.0085  0.2294
 6923W        W22817   8.137   5.681   3.392 -0.1460 -0.0904  0.4498
 6924W        W22818   7.734  13.081   2.772 -0.3787 -0.2295 -0.1711
 6925W        W22819   6.478   6.845  10.848 -0.2382 -0.0870  0.0179
 6926W        W22820  16.148   9.868   1.880 -0.1571  0.0274 -0.0027
 6927W        W22821   9.494   3.567  11.693  0.1578  0.0829  0.1851
 6928W        W22822   4.855   3.699   2.663 -0.0056  0.0023 -0.2429
 6929W        W22823   3.714  15.757  13.329  0.3221 -0.4839 -0.1307
 6930W        W22824  16.162   1.343   0.560  0.6092 -0.1215 -0.1410
 6931W        W22825   1.303  12.959   4.980  0.1110 -0.1345 -0.3205
 6932W        W22826  10.074   5.405   3.736 -0.3547 -0.4330  0.3080
 6933W        W22827  16.379   9.212  13.653 -0.3414  0.0316  0.2675
 6934W        W22828  17.673  10.067   4.819 -0.0472  0.0174  0.1208
 6935W        W22829   5.187  17.690   1.711  0.1278 -0.1262  0.1329
 6936W        W22830  11.287   6.794   4.166 -0.1017  0.0937  0.0030
 6937W        W22831  16.400  11.876   4.578  0.3005  0.5731  0.2285
 6938W        W22832  18.511   5.263  12.646 -0.3741  0.1736 -0.1046
 6939W        W22833   8.960   8.578   4.907 -0.1325  0.1754 -0.1418
 6940W        W22834  15.769   1.342   2.279  0.0720  0.0115  0.2889
 6941W        W22835  10.675  17.683  14.600 -0.0267 -0.0436 -0.2514
 6942W        W22836  17.182   4.898  11.115  0.0939 -0.1032  0.3388
 6943W        W22837  10.067   6.090  11.455  0.4789 -0.2458 -0.0281
 6944W        W22838  16.797  11.493  14.364  0.1700 -0.0616  0.2714
 6945W        W22839   0.089   5.477  14.953  0.1226  0.0667  0.5654
 6946W        W22840   9.197   9.794  11.441  0.2475 -0.2145 -0.2075
 6947W        W22841   4.615   6.286  12.008 -0.0816 -0.2301  0.0870
 6948W        W22842  17.692   8.890  11.415  0.1432  0.4017 -0.0692
 6949W        W22843   0.990  18.409   3.953 -0.2011 -0.1218 -0.1315
 6950W        W22844  13.634   0.502   1.217 -0.1756 -0.2182 -0.1297
 6951W        W22845   6.220   5.702   2.733  0.1484 -0.1552  0.0462
 6952W        W22846   3.245   7.672   3.092  0.2578  0.0243 -0.0061
 6953W        W22847   1.527   0.896  10.936 -0.3618 -0.1628  0.1447
 6954W        W22848   8.499   5.237   3.289  0.0220  0.0380 -0.1878
 6955W        W22849   8.241  11.350  14.795  0.4255 -0.3308  0.3800
 6956W        W22850  11.230   1.412  12.304  0.0234  0.1753  0.2358
 6957W        W22851   3.552  10.521   2.793  0.0417  0.2722  0.1931
 6958W        W22852   2.589  16.642   0.673  0.2042 -0.0318 -0.2570
 6959W        W22853   1.423  17.409  11.133 -0.1838  0.0409 -0.1022
 6960W        W22854   9.450  12.431   2.847  0.5109 -0.0949  0.2977
 6961W        W22855   5.364   5.078  10.304 -0.2011  0.4026 -0.2243
 6962W        W22856  16.826   1.292   5.334 -0.0749 -0.0876 -0.1578
 6963W        W22857   5.829   1.966   1.412 -0.0515 -0.0908  0.0574
 6964W        W22858   1.519   4.367  15.411 -0.0906  0.2005 -0.2763
 6965W        W22859   7.829  16.886   2.527  0.1375 -0.1224 -0.0311
 6966W        W22860   6.263  10.827  14.433 -0.3018 -0.0443 -0.0145
 6967W        W22861  15.957  15.404  11.024 -0.5245 -0.2617 -0.0240
 6968W        W22862  15.693   3.175   4.273  0.0362  0.0504  0.3097
 6969W        W22863   1.134  12.242  14.322  0.1206  0.1494  0.0074
 6970W        W22864  17.499   5.087  11.938  0.2255  0.2820  0.3981
 6971W        W22865   7.364   7.381  11.250  0.2991 -0.1335  0.1439
 6972W        W22866   1.325  13.116  10.744  0.0267  0.1852 -0.5031
 6973W        W22867  13.681   5.335  14.111 -0.0914 -0.1233  0.0871
 6974W        W22868  13.168  17.697  12.140 -0.2702  0.1088 -0.1409
 6975W        W22869   4.686   8.408  11.682  0.0156 -0.2223  0.1837
 6976W        W22870   6.741   5.141  11.961 -0.2101  0.0907 -0.1815
 6977W        W22871   5.542  12.753  13.412 -0.2384 -0.3233 -0.1101
 6978W        W22872   6.278  15.057   3.719  0.0075 -0.1149 -0.1581
 6979W        W22873   6.708   9.795   1.096 -0.0943  0.1036 -0.0538
 6980W        W22874   9.885  17.591  12.766 -0.2803 -0.1088 -0.2515
 6981W        W22875   9.509   9.354   3.684 -0.1248  0.0016 -0.0367
 6982W        W22876  14.082   4.283  13.910 -0.1061  0.0559  0.2599
 6983W        W22877  15.426   2.141   3.921 -0.0106 -0.1534 -0.0555
 6984W        W22878  18.652   3.630  15.191 -0.0405 -0.2595  0.1937
 6985W        W22879  12.906  11.964  11.250  0.1387  0.1426 -0.0667
 6986W        W22880  14.406   5.842   1.396  0.0840 -0.2402  0.1306
 6987W        W22881  11.126  17.504  12.768  0.2103 -0.1069  0.0965
 6988W        W22882   4.708   7.956  14.373 -0.1779  0.1406 -0.0859
 6989W        W22883  14.357   0.381   4.870  0.0898  0.2919 -0.0062
 6990W        W22884  16.151  12.035   1.690 -0.2072  0.1335 -0.1197
 6991W        W22885  15.657   0.309   2.510 -0.1818  0.0799  0.2588
 6992W        W22886  16.283  10.787  10.618  0.2715 -0.0777  0.0579
 6993W        W22887   7.312   1.421  15.251  0.1001 -0.1682  0.1690
 6994W        W22888   5.998   6.726   3.685 -0.2051  0.0635  0.0187
 6995W        W22889   7.475  12.972   3.614 -0.2472  0.0082 -0.1893
 6996W        W22890  16.639  10.995   1.432  0.0446 -0.2794 -0.1890
 6997W        W22891   8.242  14.098   2.600  0.0867  0.0543 -0.0034
 6998W        W22892  14.345   3.862   0.148 -0.0880  0.0850 -0.2816
 6999W        W22893  16.772  12.171  13.857 -0.0018  0.0947  0.1979
 7000W        W22894  18.831  17.713   1.644  0.1453 -0.0117 -0.1544
 7001W        W22895   4.746  16.803  14.159  0.1425  0.1717  0.2090
 7002W        W22896   1.742   7.924  14.052  0.2608  0.2133  0.2127
 7003W        W22897   4.074  17.248  12.370  0.0312  0.1519 -0.3313
 7004W        W22898   1.798  12.130   1.365 -0.1769 -0.0713 -0.1638
 7005W        W22899   6.603  14.883  14.319 -0.0332 -0.1791  0.2525
 7006W        W22900   1.075   7.779  11.125  0.0608 -0.1416  0.2618
 7007W        W22901   2.144   5.642   2.983  0.2114  0.1543  0.1726
 7008W        W22902  13.206  12.622  13.278  0.1830  0.0643 -0.1337
 7009W        W22903  14.086  16.061   2.925 -0.1199  0.0844  0.0099
 7010W        W22904   0.132   7.958  14.364 -0.0055  0.2283  0.0998
 7011W        W22905   2.888  18.155   3.113  0.1168 -0.1716  0.2134
 7012W        W22906   2.956   1.871  11.019 -0.2352 -0.2608  0.2493
 7013W        W22907  16.677   0.588   0.487  0.0925  0.2190 -0.0104
 7014W        W22908   1.278  13.202   2.896  0.1584  0.4181 -0.0656
 7015W        W22909   0.586  10.602  13.157 -0.1491  0.2303  0.0613
 7016W        W22910   5.817  12.088  10.964 -0.0363  0.4326  0.1243
 7017W        W22911  15.666  10.497   3.069  0.1380 -0.2943  0.2657
 7018W        W22912   6.777  12.921  11.441  0.1799  0.1036  0.1145
 7019W        W22913  13.755  17.828  12.418 -0.2419 -0.2081 -0.5334
 7020W        W22914   9.763   0.083  11.831 -0.1028  0.1324  0.0610
 7021W        W22915   3.483  17.049  10.543 -0.0862 -0.0385  0.0074
 7022W        W22916  17.533   7.663  11.265 -0.0853 -0.1881 -0.2575
 7023W        W22917   5.358   0.635   2.973  0.3211  0.1110  0.0958
 7024W        W22918  14.767  12.295  12.866  0.0411  0.2416 -0.0473
 7025W        W22919   9.652   4.734   2.221 -0.0314 -0.1343 -0.1735
 7026W        W22920   9.842   7.642  14.469  0.1351 -0.0819  0.0516
 7027W        W22921   8.559   3.801  11.863  0.0433  0.0392 -0.3008
 7028W        W22922   6.976  16.461   2.377  0.3123 -0.2354  0.3011
 7029W        W22923  16.928  17.327  13.291  0.1904  0.0768  0.0270
 7030W        W22924  17.343  11.655   3.022 -0.0915  0.1231  0.0137
 7031W        W22925   1.822  17.753  12.871  0.3045  0.2952 -0.1713
 7032W        W22926   1.179   7.438  12.260  0.3629 -0.1865  0.2824
 7033W        W22927   0.231  10.403  14.189  0.1615 -0.2314  0.0859
 7034W        W22928   7.362  16.558   0.315  0.2339  0.0409 -0.0495
 7035W        W22929  18.790  17.328   5.074 -0.0341  0.0547  0.1301
 7036W        W22930   9.761   3.353   5.883  0.1435 -0.2992  0.1750
 7037W        W22931   8.675  16.924   4.123  0.1349 -0.4464  0.3212
 7038W        W22932   2.594  10.685   1.863 -0.1679  0.3894  0.0548
 7039W        W22933  11.311  12.653  13.647  0.0846 -0.2310 -0.1781
 7040W        W22934  15.550  17.194   2.108 -0.1133  0.0179 -0.0275
 7041W        W22935   5.283   2.272  11.492 -0.0268  0.0385  0.0321
 7042W        W22936   7.597   4.099  11.695  0.1812  0.0839 -0.2723
 7043W        W22937  16.455  16.210  11.112 -0.0609  0.3153  0.0170
 7044W        W22938  10.088   3.632   4.558 -0.0239  0.1679  0.1699
 7045W        W22939   2.822   3.514   0.939 -0.0396  0.2034  0.3984
 7046W        W22940   7.656   1.069   4.379  0.3343  0.1106 -0.1086
 7047W        W22941  12.280  11.062   1.035 -0.0774 -0.0635  0.1809
 7048W        W22942   0.958  16.060   4.893 -0.1611 -0.0872 -0.4598
 7049W        W22943  16.743  15.384   5.761  0.2207  0.2245 -0.1556
 7050W        W22944  17.797  14.228   4.919 -0.0055 -0.3072 -0.2400
 7051W        W22945  15.558  16.196   0.457  0.2599  0.2777  0.0290
 7052W        W22946   4.209  11.145   3.111  0.0037  0.4879 -0.0920
 7053W        W22947  11.888  12.528   3.552  0.0519 -0.1647  0.1678
 7054W        W22948   1.067   2.181  13.142  0.0814 -0.0923  0.0709
 7055W        W22949   0.664   8.205   2.559 -0.0047 -0.4406  0.3168
 7056W        W22950  12.693  18.347  15.381 -0.5330 -0.0940  0.1105
 7057W        W22951  15.302  12.109  14.253  0.0227  0.1113  0.0556
 7058W        W22952   1.324  10.705   0.191  0.0290 -0.1016 -0.0124
 7059W        W22953  11.061   9.747   0.297 -0.1409  0.2374 -0.1586
 7060W        W22954  18.815  11.523  12.043 -0.2297 -0.1699  0.0766
 7061W        W22955   3.269   8.510  12.516 -0.2023 -0.2618  0.3854
 7062W        W22956  15.699   6.033  13.939 -0.3036  0.1912 -0.0139
 7063W        W22957   4.360   7.917  14.752  0.0251  0.0675 -0.1566
 7064W        W22958   3.303  12.566   2.614  0.1453 -0.0107  0.1793
 7065W        W22959   6.834  12.233  13.034  0.0389  0.0444 -0.2906
 7066W        W22960   1.544   3.514  14.080 -0.0087  0.3529  0.0534
 7067W        W22961   7.332   1.325   1.157 -0.0035  0.0390  0.1971
 7068W        W22962  18.183   7.270   4.927  0.2371 -0.2110  0.2686
 7069W        W22963   5.632   5.939  14.373 -0.0423  0.1994  0.1315
 7070W        W22964  14.129  17.085   2.462 -0.2317  0.1938  0.2502
 7071W        W22965  17.975   2.241  10.272 -0.0337  0.2052 -0.3804
 7072W        W22966  13.933  16.195   3.557  0.2679  0.2647  0.1580
 7073W        W22967   1.759  11.384  11.082  0.2212  0.1059  0.2224
 7074W        W22968  15.798  17.971   0.624 -0.1254  0.1005  0.1843
 7075W        W22969   8.253  17.390  13.699 -0.2397 -0.0689 -0.0304
 7076W        W22970  12.329  12.137  11.903  0.4754 -0.0327  0.2388
 7077W        W22971  11.193   4.106   3.769  0.2209 -0.0830 -0.0084
 7078W        W22972   5.875   1.775   4.011  0.2652 -0.0457  0.1313
 7079W        W22973  16.504  13.959   0.303  0.1408  0.0630  0.1163
 7080W        W22974   5.811  11.098  10.909  0.0996  0.2704 -0.2704
 7081W        W22975  13.702  18.581   5.943  0.1757  0.0795  0.3544
 7082W        W22976  15.985  11.931   0.202  0.4673 -0.0712 -0.0140
 7083W        W22977   7.160   2.745  11.933 -0.0234  0.0631  0.0427
 7084W        W22978   2.721   4.485  10.677  0.0756 -0.1140 -0.0928
 7085W        W22979  13.066   2.164  13.068  0.1255  0.2326  0.2083
 7086W        W22980   5.048   9.135  14.421 -0.1947  0.1155 -0.2916
 7087W        W22981  16.544  12.785  14.214  0.2015 -0.2518  0.0809
 7088W        W22982  11.475   3.306   4.062  0.3494  0.0246  0.1259
 7089W        W22983   5.016   5.255   3.740 -0.0661  0.0450 -0.0655
 7090W        W22984   1.852   9.534  12.970 -0.1417  0.1534 -0.0392
 7091W        W22985  13.391   7.586  11.907  0.0627  0.0152  0.1550
 7092W        W22986   6.627   7.267  14.355  0.1710 -0.0940  0.3661
 7093W        W22987  12.197  13.717   0.884 -0.2844 -0.2848  0.1752
 7094W        W22988  17.420   3.755   5.154  0.1420 -0.3907  0.0548
 7095W        W22989  10.895  12.386   1.960 -0.0503 -0.0551  0.0867
 7096W        W22990   6.604  16.990   0.147 -0.4037  0.0961  0.0232
 7097W        W22991   2.162  16.097   2.384 -0.2404 -0.1606  0.2806
 7098W        W22992   0.736  15.218   4.973 -0.4343 -0.0619  0.1755
 7099W        W22993  15.250   1.967  11.586  0.0701  0.1046  0.0299
 7100W        W22994  18.383   1.039  10.802 -0.0853  0.0241  0.0596
 7101W        W22995  14.845   3.280   4.952 -0.2535 -0.3065  0.2193
 7102W        W22996  11.652   9.090   3.972 -0.0546  0.0368 -0.1753
 7103W        W22997  12.449  11.710   4.842 -0.1226 -0.2662  0.0188
 7104W        W22998  15.867  18.528  13.654  0.1643  0.1157 -0.0035
 7105W        W22999  16.129   6.469   2.215  0.3469  0.0496 -0.1536
 7106W        W23000  14.314   6.407  14.657  0.0075  0.2231  0.2318
 7107W        W23001   4.464  16.794  12.192  0.1815 -0.0400  0.1743
 7108W        W23002   2.592  17.404   2.301  0.1685  0.0896  0.0828
 7109W        W23003   0.048   3.360   4.507  0.1892  0.1452  0.2226
 7110W        W23004   3.338   4.875   1.754  0.2883 -0.0182 -0.0560
 7111W        W23005  10.525   8.070  12.317 -0.2675 -0.0679  0.0571
 7112W        W23006  12.386   0.420  14.071  0.2007  0.0900 -0.5177
 7113W        W23007  15.084   9.379   3.414 -0.0574 -0.0196  0.0640
 7114W        W23008  17.693  12.884  10.671 -0.1442  0.2887 -0.5181
 7115W        W23009  11.767   3.290   2.066  0.1197 -0.0214  0.2020
 7116W        W23010  10.512  14.485   3.537  0.0321 -0.2841 -0.5714
 7117W        W23011   3.403   9.563   0.319 -0.0467  0.1751  0.0907
 7118W        W23012   8.141  15.570   9.826  0.0936  0.0779  0.1217
 7119W        W23013   6.464   7.416   1.785  0.1457 -0.1381  0.1893
 7120W        W23014   0.694  13.876   3.196 -0.0815 -0.1419  0.2061
 7121W        W23015  17.451   5.627   5.084  0.0936 -0.0521 -0.2133
 7122W        W23016  12.347  14.431   0.175  0.6158 -0.1811 -0.1828
 7123W        W23017  12.395  15.196  13.116  0.1219 -0.0927  0.2411
 7124W        W23018  13.471  16.397   1.508 -0.2530  0.2462  0.1999
 7125W        W23019   0.836   7.553  15.304  0.3660  0.0597 -0.1001
 7126W        W23020  14.588   3.148  13.367  0.0925  0.1503 -0.3141
 7127W        W23021  17.759   2.042  13.370  0.4549  0.1000  0.0333
 7128W        W23022   0.874   9.688  11.984 -0.0947  0.1245 -0.1217
 7129W        W23023   4.222   8.932   4.294 -0.2742 -0.3241 -0.2491
 7130W        W23024   9.808   6.473  11.822 -0.0281 -0.0853  0.1936
 7131W        W23025  18.798  17.625  10.952  0.1504 -0.0920  0.2587
 7132W        W23026  17.048   8.749   2.277 -0.0281  0.1654 -0.1250
 7133W        W23027  10.156   2.580  15.203  0.0560 -0.0111 -0.0790
 7134W        W23028  10.507  14.153   1.217 -0.1972  0.0394  0.1712
 7135W        W23029   8.883  14.805  11.458 -0.1592  0.1232  0.0202
 7136W        W23030   9.157  13.860   1.164  0.1203 -0.1068 -0.2909
 7137W        W23031  10.961  18.464  15.297  0.0173  0.0417  0.0313
 7138W        W23032   1.896  16.823   6.026  0.1112  0.1143 -0.0042
 7139W        W23033   7.552  14.471  11.248  0.0472  0.0327  0.1656
 7140W        W23034  13.353   2.376  15.452 -0.0572 -0.0716  0.0775
 7141W        W23035  14.144  17.803   4.822  0.1110  0.1378 -0.0062
 7142W        W23036  10.210   4.918  14.382 -0.0132 -0.3637 -0.2425
 7143W        W23037  14.297   0.698  14.629 -0.1352  0.0844 -0.1095
 7144W        W23038  16.893  15.794   4.211 -0.2102  0.2154  0.2046
 7145W        W23039  18.858   3.327   0.982  0.0033 -0.0450  0.0091
 7146W        W23040   6.947  13.952  10.664  0.0905  0.0345 -0.1795
 7147W        W23041   1.577  13.297   5.401 -0.1695 -0.0648  0.1657
 7148W        W23042  13.613   2.813  15.290  0.0770  0.0107  0.1036
 7149W        W23043  10.575   9.828   1.972 -0.0406 -0.0545  0.0942
 7150W        W23044   8.672  11.902   2.811  0.3681 -0.0949  0.0163
 7151W        W23045   7.285  18.012   4.320 -0.1490  0.1478  0.4112
 7152W        W23046  17.932   2.882  13.924  0.0519 -0.0479  0.4903
 7153W        W23047   1.234   4.824   1.498  0.1467 -0.2740 -0.0579
 7154W        W23048  13.399   3.053  11.660 -0.1650  0.2306  0.1192
 7155W        W23049  15.860  15.757   0.950  0.0310 -0.0330  0.1557
 7156W        W23050  13.864  13.298   4.384 -0.1090  0.2596  0.2479
 7157W        W23051   9.258   1.011  11.486 -0.2797  0.4873  0.0715
 7158W        W23052   2.668  10.246  15.487  0.1072 -0.1277  0.0582
 7159W        W23053   0.660   0.420  12.503 -0.1623  0.1701  0.0256
 7160W        W23054  12.245  15.733   2.771 -0.1949  0.1354  0.0636
 7161W        W23055   3.885   6.996   2.162 -0.4800  0.2806  0.0642
 7162W        W23056   2.626  15.111   4.719 -0.0445 -0.3356  0.2204
 7163W        W23057   6.172   5.780   4.306 -0.1314 -0.1287 -0.3955
 7164W        W23058   7.291   2.762   4.457  0.3172  0.2189  0.2109
 7165W        W23059  13.963  15.058   0.707 -0.4340 -0.2718  0.0637
 7166W        W23060   6.248   7.029  14.937 -0.2642 -0.2962 -0.0378
 7167W        W23061  10.100  11.783  14.049 -0.0611  0.1098  0.0510
 7168W        W23062   7.335   5.268   0.292 -0.1327  0.0907  0.0630
 7169W        W23063   5.028   5.473   2.062  0.1034 -0.3959 -0.1630
 7170W        W23064   8.664   4.596   3.472  0.1246  0.1170 -0.1333
 7171W        W23065  11.719  18.762   4.291  0.4492 -0.1071 -0.1547
 7172W        W23066   9.442   7.259  13.578 -0.1073  0.3090  0.1217
 7173W        W23067  17.085   4.076  10.511 -0.0884  0.0307  0.2792
 7174W        W23068   0.845  14.233   0.605 -0.3233  0.1183 -0.0222
 7175W        W23069  11.733  10.192   3.309 -0.1688 -0.1360 -0.0752
 7176W        W23070  10.798   1.758  14.809  0.0515  0.3458 -0.0671
 7177W        W23071  17.199   9.958   1.485 -0.1633  0.0183 -0.0864
 7178W        W23072  11.228  17.025   1.933 -0.2871 -0.3404  0.0706
 7179W        W23073  11.242  10.381   2.000 -0.1533  0.1629  0.1051
 7180W        W23074   4.769   3.206   5.126 -0.0791 -0.0486  0.1743
 7181W        W23075  18.076   6.670   1.291  0.0053 -0.2483  0.0133
 7182W        W23076   8.450   4.742   0.270 -0.1731  0.2833  0.2072
 7183W        W23077  17.355   6.764  10.185 -0.0390 -0.1982 -0.2771
 7184W        W23078   5.888  12.111   1.712  0.2581  0.1985 -0.0416
 7185W        W23079   5.107   1.618   1.001 -0.0010  0.2801 -0.1544
 7186W        W23080   2.588  18.144   3.526  0.0802 -0.3449 -0.0813
 7187W        W23081  12.991  10.216   1.095  0.0294 -0.0895  0.2636
 7188W        W23082  17.821   0.843  10.879  0.5162 -0.1215 -0.0214
 7189W        W23083   7.641  18.458   1.051 -0.3897 -0.1124 -0.1255
 7190W        W23084   6.042   5.421  11.995  0.3588  0.0418  0.3905
 7191W        W23085  13.566   7.395   4.041  0.0707 -0.0053  0.1991
 7192W        W23086   3.952  15.326   2.210  0.2991 -0.0352 -0.0526
 7193W        W23087  10.022   2.685   4.762  0.2138  0.0050  0.1930
 7194W        W23088  10.648  15.233   3.975 -0.1978 -0.1729  0.0637
 7195W        W23089   8.499  18.632   0.173  0.0394 -0.4834  0.0370
 7196W        W23090  11.944   6.359   4.326  0.0672  0.0539  0.0268
 7197W        W23091  10.021   5.208  11.846 -0.1410  0.1119 -0.1234
 7198W        W23092  13.411   3.758  14.248  0.1977 -0.3757 -0.1290
 7199W        W23093  18.657   3.939   0.137 -0.1282 -0.0371 -0.2117
 7200W        W23094   8.156   8.054  11.557  0.1296 -0.0972 -0.0396
 7201W        W23095  16.710   0.962  12.835  0.2973  0.1753  0.0400
 7202W        W23096  16.867  17.890  12.895 -0.2117  0.1184 -0.0769
 7203W        W23097   5.276   3.650   4.656 -0.3064 -0.0304  0.0593
 7204W        W23098   6.121  14.767   4.298 -0.3571 -0.0883  0.2067
 7205W        W23099   9.836  12.813   9.905 -0.1742 -0.1737  0.1567
 7206W        W23100  10.039  18.123  15.217  0.2273 -0.3277 -0.1803
 7207W        W23101  11.686  16.184   3.508 -0.4058  0.0311  0.1444
 7208W        W23102  14.474   9.070  12.820 -0.0292 -0.3623  0.0449
 7209W        W23103  16.581   8.921   2.215  0.0550 -0.0701 -0.2348
 7210W        W23104  11.781  10.827  13.662 -0.0906 -0.0721 -0.1067
 7211W        W23105  18.860   8.981   2.961 -0.3691 -0.3052  0.0766
 7212W        W23106   9.590   1.258   4.273 -0.1064 -0.0571  0.1087
 7213W        W23107  17.627   5.998   2.402  0.1274  0.1572  0.0362
 7214W        W23108   1.129   3.885  11.740  0.0850  0.2925  0.0509
 7215W        W23109  12.380  11.435   0.679  0.1214  0.2268 -0.0788
 7216W        W23110  17.442   0.798   2.911 -0.1026  0.0824 -0.0929
 7217W        W23111   6.979  12.467  11.436  0.0337 -0.1054 -0.1145
 7218W        W23112   4.282  18.314  13.352  0.0483  0.0059  0.1351
 7219W        W23113   0.194  15.974   4.536  0.2903 -0.2342  0.4074
 7220W        W23114   9.609  18.008   3.777  0.2218 -0.0770  0.4246
 7221W        W23115   8.238   7.401  11.945  0.0848  0.0546  0.0518
 7222W        W23116  17.687   5.540   0.765 -0.1467  0.1108 -0.3777
 7223W        W23117  14.724  12.209   4.535 -0.0882 -0.0650  0.0992
 7224W        W23118  17.631   0.593  14.609 -0.0108  0.1182 -0.0365
 7225W        W23119  13.883   9.376   2.287 -0.0228  0.2353  0.4135
 7226W        W23120  11.771  11.519  10.038  0.0748  0.1134 -0.0680
 7227W        W23121   0.412  14.511  14.536  0.0239 -0.0392 -0.0245
 7228W        W23122   3.544   3.569   5.715  0.1196  0.0842 -0.1099
 7229W        W23123  13.217   8.488   2.836  0.3027 -0.1391 -0.0215
 7230W        W23124  11.614   0.785   2.651  0.2489 -0.1576 -0.0136
 7231W        W23125   9.021  12.210  12.740  0.1059 -0.0174  0.0166
 7232W        W23126   6.082   3.319  13.344  0.0968  0.0054 -0.2312
 7233W        W23127   7.919  11.295   4.270  0.0959  0.1875  0.1564
 7234W        W23128   9.716  18.336   0.248 -0.3006 -0.1995 -0.0099
 7235W        W23129   5.794   5.382   4.147 -0.4203 -0.0078  0.1657
 7236W        W23130  11.513   3.644  12.706  0.0500  0.0270 -0.2472
 7237W        W23131  10.572   0.183  10.924  0.2217 -0.0146  0.0574
 7238W        W23132  18.880  12.388  11.802 -0.1158  0.0154 -0.0627
 7239W        W23133   0.393  13.347  15.472 -0.1604  0.2582  0.0460
 7240W        W23134   5.386   2.936   2.240 -0.0724  0.1617  0.1635
 7241W        W23135  16.712   5.451   0.992 -0.0042 -0.4224 -0.3300
 7242W        W23136   8.471   7.021  12.292  0.0186  0.0888 -0.1404
 7243W        W23137   7.851   8.003   0.036  0.1823  0.1925  0.1929
 7244W        W23138  12.290  16.424   4.732 -0.1777  0.1328 -0.0394
 7245W        W23139  12.190  12.747   4.487  0.2978  0.2892 -0.2353
 7246W        W23140  16.421   5.820  13.364 -0.3094  0.0712 -0.3550
 7247W        W23141   6.056  13.309  11.723  0.2234  0.0443  0.1384
 7248W        W23142  18.607  11.166  11.377 -0.0572  0.0515 -0.1450
 7249W        W23143  11.094   9.058   2.058  0.2531  0.2085 -0.4293
 7250W        W23144   3.662   8.952  15.104 -0.1840  0.0722  0.2160
 7251W        W23145   8.275  12.966   3.891 -0.0003 -0.1765 -0.2656
 7252W        W23146  18.815   4.411   0.228  0.1003  0.1780  0.1554
 7253W        W23147   6.064   7.106   3.371 -0.0654 -0.0360  0.0234
 7254W        W23148  18.419   3.177  12.248 -0.1784  0.0621 -0.1144
 7255W        W23149  16.315   1.293  11.198 -0.2126  0.3074  0.2634
 7256W        W23150  13.945  17.940  14.654  0.1664 -0.0790 -0.0881
 7257W        W23151   2.521  16.842   4.028  0.1858 -0.2880 -0.4328
 7258W        W23152  16.363  14.416   1.161 -0.3873  0.0608 -0.1823
 7259W        W23153   1.179   5.706   2.964  0.0467  0.3687  0.0962
 7260W        W23154   1.252  12.141  12.340  0.2542 -0.0410  0.0533
 7261W        W23155  10.590  12.670   1.623  0.0725 -0.1424 -0.2165
 7262W        W23156   4.371  12.061   4.077  0.0320  0.2355  0.1435
 7263W        W23157   3.689  10.262  15.144  0.1795 -0.1727 -0.2348
 7264W        W23158  14.886   0.003  11.976 -0.0703 -0.3141 -0.0049
 7265W        W23159   7.532  18.267  12.782 -0.1764  0.0231 -0.0978
 7266W        W23160   5.722  18.340   4.564  0.0579 -0.3745 -0.1432
 7267W        W23161   1.674   3.754   4.219  0.0724  0.0631  0.2236
 7268W        W23162   6.143   9.167  14.996  0.2291 -0.3635  0.1340
 7269W        W23163  18.678  15.745  12.543 -0.0026  0.2944  0.0794
 7270W        W23164  17.352   7.281  11.955 -0.0012 -0.0800  0.1377
 7271W        W23165   6.786   8.269  11.673  0.0915  0.1031  0.1295
 7272W        W23166   2.048   3.338   2.994 -0.1249  0.2844  0.0190
 7273W        W23167   4.043  17.742   1.156 -0.3787 -0.4502 -0.1402
 7274W        W23168   8.373  11.462  12.122 -0.1560  0.3834  0.5012
 7275W        W23169  18.238   0.186  12.739  0.2376 -0.1977  0.0043
 7276W        W23170  15.443   1.105   1.246 -0.1565  0.1753 -0.2720
 7277W        W23171  11.505  11.249   0.492 -0.1675 -0.1114 -0.0625
 7278W        W23172   1.237  17.148   2.139 -0.3146 -0.0565 -0.0638
 7279W        W23173   2.899   0.682   0.490 -0.1379 -0.1757  0.1137
 7280W        W23174   9.566   6.028  10.412  0.0757 -0.4386 -0.0701
 7281W        W23175  17.526   5.834   3.688  0.0101 -0.2521 -0.2711
 7282W        W23176   6.796   5.323   2.079 -0.1948 -0.0607 -0.3596
 7283W        W23177  16.178  18.717   3.315  0.1062 -0.2726 -0.0636
 7284W        W23178   9.065  16.632   1.784  0.0876 -0.1383 -0.1251
 7285W        W23179   6.835   9.342   1.062  0.0611 -0.0856 -0.2794
 7286W        W23180  16.127   2.742  13.524  0.3043  0.1835 -0.1552
 7287W        W23181   8.677   3.125  10.697  0.2527  0.3429  0.2581
 7288W        W23182  11.176   8.504   2.876  0.2949 -0.2639  0.0470
 7289W        W23183  16.938   0.846   2.775  0.1936 -0.1839 -0.1178
 7290W        W23184   8.386  15.428  11.004 -0.2736 -0.2954 -0.1038
 7291W        W23185  18.125   5.576  10.546 -0.0842 -0.1856  0.0885
 7292W        W23186   2.799  13.870   2.024  0.2266  0.1069 -0.0239
 7293W        W23187  13.848  17.584   5.909 -0.1969 -0.2328 -0.0792
 7294W        W23188  16.744  15.957   2.087 -0.0057  0.1328 -0.0750
 7295W        W23189  10.905  15.823   0.104  0.1242  0.2347 -0.0554
 7296W        W23190  15.392   4.054   2.899  0.0599 -0.0893  0.0744
 7297W        W23191   2.040  15.051  14.362  0.0047  0.3587 -0.0141
 7298W        W23192  11.810   2.384   1.473 -0.2125 -0.1741 -0.3457
 7299W        W23193  18.692  11.891   0.405  0.0784  0.2818  0.2696
 7300W        W23194  18.242  13.531   5.313  0.0897 -0.1960 -0.0365
 7301W        W23195  10.929   0.106  11.713 -0.0471 -0.1594 -0.0632
 7302W        W23196  18.017  17.431  12.080 -0.1233  0.0467 -0.0344
 7303W        W23197  16.438  10.056   0.925  0.0261 -0.0933 -0.0306
 7304W        W23198  11.124  15.150  12.240  0.0438 -0.0484  0.0039
 7305W        W23199  16.563   0.308  13.494  0.1959  0.0764 -0.0485
 7306W        W23200   6.374  11.172   0.508  0.2198 -0.0318  0.0747
 7307W        W23201  13.805  15.251   3.985 -0.1310  0.2893  0.1962
 7308W        W23202   4.858  12.762  12.783  0.0734  0.4178  0.2905
 7309W        W23203  12.057   0.742  11.515 -0.0409 -0.1714 -0.1629
 7310W        W23204   1.435  13.358  11.138 -0.2105 -0.0920  0.3130
 7311W        W23205  13.532  11.451   4.539  0.0307  0.3913  0.2046
 7312W        W23206  13.741   9.961  14.187 -0.0996 -0.4426  0.2173
 7313W        W23207   7.618   8.642   0.795 -0.1929 -0.2848 -0.0919
 7314W        W23208   4.915  14.317  11.386  0.0276 -0.0361  0.2390
 7315W        W23209   1.132  15.912   1.660  0.1792 -0.0005 -0.0282
 7316W        W23210  13.136  17.744  14.448 -0.0957 -0.0441  0.1980
 7317W        W23211  15.166  12.114   0.316  0.3070 -0.0481  0.1594
 7318W        W23212  12.016   8.246  12.777 -0.1341  0.3661  0.1539
 7319W        W23213  18.377   7.674  15.207  0.3972  0.0374 -0.3556
 7320W        W23214  16.396   2.151   4.349 -0.1202 -0.0172 -0.0111
 7321W        W23215  15.069  16.781   2.128  0.1037  0.1034  0.0318
 7322W        W23216   6.316  17.701   5.205 -0.1173  0.0143 -0.1715
 7323W        W23217   3.435  11.861  14.217  0.1877  0.1431  0.3605
 7324W        W23218  14.388   9.903   1.793 -0.1121  0.1646  0.3265
 7325W        W23219  14.212   6.180  11.169 -0.1547  0.1246  0.1288
 7326W        W23220  18.570   7.119  11.657 -0.0898 -0.1373  0.0117
 7327W        W23221  18.242  14.804   1.999 -0.2003  0.2100  0.1225
 7328W        W23222   2.601  13.008   1.349 -0.0922 -0.0711  0.0043
 7329W        W23223  12.267   4.932  11.215  0.1715  0.1090  0.0796
 7330W        W23224  13.290   8.076  11.772  0.1489  0.0795 -0.1563
 7331W        W23225   3.684  11.547  12.130 -0.0085  0.1902  0.1052
 7332W        W23226  14.406   1.652   4.395  0.1133 -0.3993 -0.1024
 7333W        W23227  15.618   2.420   0.026  0.0906  0.0227 -0.1311
 7334W        W23228   9.119   9.170   1.965 -0.0397 -0.0235 -0.0920
 7335W        W23229   3.452  10.252  12.125 -0.0807  0.0158  0.1372
 7336W        W23230   6.671   7.981  12.171  0.0407  0.2515  0.2140
 7337W        W23231   9.319   6.863  13.787  0.0809 -0.3057 -0.0270
 7338W        W23232   2.545   0.814  12.415  0.1173  0.4371 -0.1184
 7339W        W23233   1.207  14.052   1.897 -0.2063 -0.0274 -0.2175
 7340W        W23234  15.903   7.962   0.816  0.2598 -0.0603  0.0676
 7341W        W23235  18.367  14.326  11.677  0.2051 -0.0058  0.0554
 7342W        W23236  14.172   9.654   3.824  0.3012  0.2897  0.1446
 7343W        W23237   4.720  18.422   0.158  0.0638 -0.3816  0.1534
 7344W        W23238   4.953   9.699   1.466  0.0921 -0.0356 -0.1324
 7345W        W23239   3.052  12.986  10.927  0.0369 -0.1230 -0.1469
 7346W        W23240  15.545  12.329   4.668  0.0540 -0.1641  0.0357
 7347W        W23241  13.042  10.596   1.469 -0.2937  0.2239  0.1329
 7348W        W23242   1.899  10.975   3.273 -0.0081 -0.1977 -0.1514
 7349W        W23243   6.899  16.561   4.371 -0.0006  0.3278  0.0517
 7350W        W23244   1.555   7.035  12.165  0.1192  0.1090  0.3412
 7351W        W23245  11.258  14.633  13.364  0.3673 -0.0261  0.2112
 7352W        W23246   9.576   2.152   0.340  0.2160 -0.0435 -0.0702
 7353W        W23247  18.189   5.866  14.030 -0.2139 -0.0125 -0.1534
 7354W        W23248  14.635   9.483   5.935  0.1649 -0.1370  0.2143
 7355W        W23249   8.012   1.323   0.171  0.0261 -0.0642  0.0829
 7356W        W23250   3.697  15.256  10.507  0.0699 -0.1061 -0.0530
 7357W        W23251  14.629  13.076  11.256 -0.2757  0.1620 -0.1057
 7358W        W23252  11.215   3.922  14.990 -0.0813 -0.2331 -0.0669
 7359W        W23253  17.295   9.349   1.626  0.0216 -0.1238 -0.1856
 7360W        W23254  18.472   6.597  10.355 -0.0828 -0.1224 -0.0181
 7361W        W23255   6.527  16.542   2.804  0.2503 -0.0598 -0.2023
 7362W        W23256   8.808   4.134  12.151  0.0973  0.1045  0.1011
 7363W        W23257  16.407   7.681   3.785 -0.1251  0.0502 -0.0402
 7364W        W23258  17.953   3.127   1.193  0.4499 -0.2669  0.3062
 7365W        W23259  15.826   1.983  15.256  0.0957 -0.0152 -0.0249
 7366W        W23260   6.579   3.301   4.701  0.0523  0.1879  0.1193
 7367W        W23261  11.707  12.607   1.051  0.3258 -0.2303  0.1827
 7368W        W23262   5.005   9.217   2.410 -0.2706  0.4359  0.0949
 7369W        W23263   5.253  16.591   1.859 -0.1451 -0.0029  0.0328
 7370W        W23264  18.041   6.915   5.740  0.0584 -0.1209 -0.0471
 7371W        W23265   1.825  17.754  10.851 -0.4343  0.2704 -0.1039
 7372W        W23266  18.550  11.663  11.565 -0.0058 -0.2964  0.1986
 7373W        W23267   9.994  11.926   2.126  0.1157 -0.1090 -0.0562
 7374W        W23268   6.325   2.270  13.795  0.1197  0.1170 -0.1038
 7375W        W23269  12.863   4.681   4.389 -0.1138 -0.0717 -0.1067
 7376W        W23270  12.721   2.530   2.798 -0.0024 -0.1659  0.0747
 7377W        W23271   2.810  12.966   3.396  0.4544  0.2678  0.0333
 7378W        W23272   2.286  13.057  11.151 -0.0137 -0.0337  0.0407
 7379W        W23273  18.623  10.725   5.212 -0.1037  0.0170 -0.1405
 7380W        W23274  18.184  15.710  10.384  0.2971  0.2997 -0.1900
 7381W        W23275  18.812   8.266   5.109  0.2521  0.0163 -0.3372
 7382W        W23276   0.583  11.648   5.437  0.1186  0.1245  0.0808
 7383W        W23277  18.132   7.962  13.250  0.0254  0.2546  0.1351
 7384W        W23278  12.877   2.172   0.330 -0.0523 -0.0415  0.1347
 7385W        W23279   9.954  10.476   2.308 -0.0697  0.2815  0.3319
 7386W        W23280  10.509  15.955  13.766  0.3828 -0.2158 -0.1127
 7387W        W23281  16.315   9.255  12.249 -0.0850  0.0181  0.0493
 7388W        W23282  16.564   2.326  10.000  0.1126 -0.0291  0.1286
 7389W        W23283  13.439  13.346  13.601  0.3418  0.2102 -0.1535
 7390W        W23284  10.710   3.908  15.096  0.0865  0.2468  0.3116
 7391W        W23285   0.229   3.219   2.457  0.1442 -0.0322 -0.0483
 7392W        W23286   9.077  11.875  11.602  0.0468  0.0693 -0.0316
 7393W        W23287   6.739   4.019   2.205 -0.0751  0.1148 -0.0821
 7394W        W23288   3.713  10.995  12.342 -0.0153  0.2066  0.2271
 7395W        W23289   6.566   1.757   2.857 -0.1606 -0.2226 -0.0492
 7396W        W23290   2.608   7.476  11.843  0.1393 -0.0934 -0.2967
 7397W        W23291  13.621   9.583  11.451  0.0096  0.2955  0.0502
 7398W        W23292   1.089  15.566   4.974  0.0837  0.1053  0.1026
 7399W        W23293   2.732  13.359   1.747 -0.2103  0.1628 -0.1135
 7400W        W23294   6.838   9.341  12.581  0.2747 -0.2277  0.0105
 7401W        W23295  14.669  17.475   2.566 -0.2211 -0.1344  0.1036
 7402W        W23296  14.995   5.979  14.845 -0.0007  0.2909  0.1066
 7403W        W23297   8.854  17.945  11.122  0.3974  0.0267  0.1536
 7404W        W23298  12.118  10.621  11.733 -0.1989  0.2884 -0.1612
 7405W        W23299  14.337   3.133   9.547  0.0391 -0.2522  0.0554
 7406W        W23300   7.566  14.851   0.213  0.1834 -0.0813 -0.2625
 7407W        W23301   6.837  14.535  10.710 -0.2246  0.3029  0.6247
 7408W        W23302   6.599  15.074  10.571 -0.0430  0.0173  0.4346
 7409W        W23303  14.763   0.474  13.761 -0.0103 -0.2264 -0.0195
 7410W        W23304   1.730  14.151   0.234  0.1191  0.1255 -0.4070
 7411W        W23305  17.661   3.106   0.294  0.0433 -0.2465  0.1666
 7412W        W23306  13.198  11.313  14.111  0.1095  0.3581 -0.2876
 7413W        W23307  10.661   9.758  12.624 -0.0197 -0.2607  0.3135
 7414W        W23308   5.599  14.566  14.822  0.0492 -0.1582  0.0338
 7415W        W23309   9.539  17.973   4.318 -0.1682  0.2228 -0.1583
 7416W        W23310  15.378   9.985   0.917 -0.4152  0.1854 -0.1225
 7417W        W23311  13.229  18.349   4.044 -0.0688 -0.1456 -0.0642
 7418W        W23312   6.122   2.802   3.703  0.1659  0.0452  0.0986
 7419W        W23313   2.798  17.870   2.295 -0.0810 -0.1025 -0.3589
 7420W        W23314   3.021   2.923   2.295  0.0165 -0.1738  0.2866
 7421W        W23315   9.366   4.279   3.094 -0.1838  0.1307 -0.1612
 7422W        W23316  16.696  16.115  14.247  0.2136  0.0191 -0.2519
 7423W        W23317  12.366   0.101   2.521 -0.2629 -0.0999 -0.4385
 7424W        W23318  15.053  12.323   2.560 -0.0522 -0.0323 -0.3753
 7425W        W23319  17.161  16.605   2.549  0.0352  0.0840  0.1218
 7426W        W23320   6.800  10.455  12.852  0.2282 -0.0945  0.1712
 7427W        W23321   7.315  16.732   4.525 -0.1126 -0.2627 -0.2414
 7428W        W23322  11.096   4.866   5.400 -0.3323 -0.1282  0.1332
 7429W        W23323  15.006  14.407   3.566 -0.1148 -0.2560  0.2065
 7430W        W23324  18.654  10.625   0.495  0.1769 -0.2955 -0.0182
 7431W        W23325   6.338   4.771   1.063  0.2941  0.3312 -0.0614
 7432W        W23326  17.927   5.386   5.035 -0.0979  0.0030 -0.0214
 7433W        W23327  17.223  10.496   0.401  0.1290 -0.2360 -0.0342
 7434W        W23328  15.318  16.508  14.632 -0.1825 -0.1734  0.4470
 7435W        W23329  15.070  11.012   0.512 -0.2035  0.1253  0.0245
 7436W        W23330   1.972   4.053  11.850  0.1774 -0.3360  0.2573
 7437W        W23331  14.845   6.895  11.518  0.2874 -0.1410 -0.2332
 7438W        W23332  16.719  18.532  13.021  0.1378  0.0245  0.0298
 7439W        W23333   3.463  16.192   0.099  0.0055 -0.0492  0.1359
 7440W        W23334   4.996   2.221   2.676  0.0661 -0.2027 -0.0970
 7441W        W23335   7.201  12.750  11.038 -0.0943  0.1805  0.1235
 7442W        W23336  16.544   2.063   1.017 -0.3096 -0.2836  0.3016
 7443W        W23337   9.240  17.771   4.025  0.1842  0.0189 -0.0721
 7444W        W23338  18.057   0.762   3.078 -0.2759  0.0840  0.1732
 7445W        W23339  17.021   2.869   1.032 -0.1766  0.0612 -0.1061
 7446W        W23340   0.808  15.557  11.729 -0.0836  0.0734 -0.2025
 7447W        W23341   4.366   0.760   5.480 -0.0725  0.1302 -0.0429
 7448W        W23342   1.372   2.607  13.311  0.1859  0.2030  0.2016
 7449W        W23343   9.378  15.379  12.688  0.2374 -0.2351  0.0306
 7450W        W23344  16.059  18.095  12.914  0.0766  0.2154  0.4109
 7451W        W23345  14.899  11.598  11.490  0.0289 -0.1015 -0.0666
 7452W        W23346   6.063   6.779  12.283  0.1763 -0.2042 -0.2126
 7453W        W23347  15.457  14.539  14.080  0.0556  0.1161 -0.3942
 7454W        W23348  16.514   4.020   1.741  0.1055  0.4158  0.2028
 7455W        W23349   2.903   7.804  11.577 -0.2225 -0.4673  0.1054
 7456W        W23350  16.936  17.518   1.320  0.1871 -0.0579  0.1168
 7457W        W23351  10.896   6.786  12.081  0.1537 -0.0133  0.0104
 7458W        W23352   0.133  11.895  11.741 -0.1277  0.3091 -0.0996
 7459W        W23353  18.798  12.237  15.416  0.0842  0.3103  0.1109
 7460W        W23354  12.269   7.067  12.195 -0.2474  0.2773  0.1590
 7461W        W23355   6.972   9.199  13.698 -0.0919  0.0540  0.2292
 7462W        W23356  18.725   9.185   4.950 -0.0756  0.0303  0.1807
 7463W        W23357  11.877  17.990  14.758 -0.0416 -0.1178 -0.1385
 7464W        W23358   7.076   6.953  14.268 -0.1225 -0.1141 -0.0377
 7465W        W23359  15.890  10.179  13.188 -0.0700 -0.1650  0.0216
 7466W        W23360  11.176   2.743   4.909  0.2525  0.0742  0.0288
 7467W        W23361  18.841   8.084   4.196  0.2727  0.2536  0.2052
 7468W        W23362   6.582   3.164   2.689  0.2155 -0.1432  0.1686
 7469W        W23363   6.726   2.409  11.820 -0.1588 -0.0182  0.0603
 7470W        W23364   4.593   1.174   4.994 -0.2820  0.2187 -0.1963
 7471W        W23365   1.677   3.816   3.722 -0.2948  0.0805  0.0092
 7472W        W23366   4.548   3.749  10.683 -0.0135 -0.0349 -0.1341
 7473W        W23367  10.079   2.833   3.365  0.2808 -0.0868 -0.0414
 7474W        W23368  18.664   0.880  13.568 -0.0541  0.0716 -0.0905
 7475W        W23369  10.473  18.105   2.538  0.0770 -0.0163 -0.1397
 7476W        W23370  14.125   3.297   3.685  0.2827  0.0109  0.2390
 7477W        W23371  16.718  12.502   5.922  0.2973 -0.0309 -0.0715
 7478W        W23372   3.832  16.451   1.312 -0.0866  0.3246  0.0694
 7479W        W23373  10.242   6.052   0.570 -0.0697  0.0761  0.1111
 7480W        W23374   1.172   4.416   1.240  0.1681  0.0176  0.5473
 7481W        W23375  14.274   8.167  14.322  0.0452  0.0312  0.6450
 7482W        W23376   5.990   0.748   4.898 -0.1135 -0.0747 -0.0920
 7483W        W23377   0.423   9.129   3.081 -0.0383 -0.3076 -0.1371
 7484W        W23378  16.564   9.156   3.560 -0.0150 -0.1364 -0.0551
 7485W        W23379  14.305   4.938  14.625 -0.1648 -0.0786  0.1991
 7486W        W23380  18.263  17.124  11.272  0.2757 -0.0769 -0.0244
 7487W        W23381  13.888   9.505  11.935  0.1254  0.4166  0.0162
 7488W        W23382   3.783   9.143  14.590  0.0290 -0.1468 -0.1344
 7489W        W23383   6.723  16.099   3.632  0.1319  0.1337 -0.0543
 7490W        W23384   6.711  12.280   4.382  0.0029 -0.2873 -0.1381
 7491W        W23385  15.947   6.703  13.129 -0.1455 -0.2833  0.1428
 7492W        W23386  13.243  13.020  14.397 -0.0100  0.1551  0.3754
 7493W        W23387  16.690  13.567  12.419 -0.3283 -0.2701  0.3030
 7494W        W23388  17.724   9.399   0.217 -0.0187  0.1321 -0.1893
 7495W        W23389  11.736  18.587  13.735  0.1253  0.1059 -0.1431
 7496W        W23390   2.564   5.882  13.542  0.3093 -0.0199 -0.2382
 7497W        W23391  11.626  16.998   6.108 -0.0673 -0.0256 -0.2778
 7498W        W23392   9.351   0.369  11.559 -0.0987  0.0432 -0.1880
 7499W        W23393  13.905  16.205   2.326 -0.0065 -0.2413 -0.1633
 7500W        W23394  14.387   9.221  15.465  0.1658  0.0755 -0.2900
 7501W        W23395  15.810   5.953  15.428 -0.1878 -0.1647 -0.0599
 7502W        W23396  12.436   3.308   2.805  0.2071  0.2682 -0.1428
 7503W        W23397   6.069  17.977   0.173 -0.0410 -0.3236  0.0108
 7504W        W23398   6.004   4.399  12.620 -0.2478 -0.1426 -0.1271
 7505W        W23399   7.806   4.958  11.406 -0.1311 -0.2863 -0.0030
 7506W        W23400  16.508   8.395  11.359 -0.0065 -0.0353  0.0857
 7507W        W23401  16.661   4.507  14.600  0.2635 -0.1638 -0.2041
 7508W        W23402  14.784  15.383  13.975  0.2950 -0.0636 -0.1254
 7509W        W23403   6.735  12.536  10.999  0.2137  0.2341  0.1885
 7510W        W23404  11.813   6.843   4.458  0.1613 -0.0244 -0.5980
 7511W        W23405   1.172  14.943   2.084  0.0068  0.0787  0.1293
 7512W        W23406  10.437   0.226   2.406  0.0488  0.1399  0.0283
 7513W        W23407  18.480  14.130   3.951 -0.1069  0.2564  0.2699
 7514W        W23408  11.452   1.024   2.193 -0.0529 -0.3208  0.0060
 7515W        W23409   5.074   5.177  14.185 -0.1356 -0.2086 -0.0101
 7516W        W23410  16.094   7.132  15.384  0.1631  0.0573 -0.1505
 7517W        W23411   9.065   4.930   4.226  0.4242 -0.1029 -0.2822
 7518W        W23412   4.227  11.227  13.433  0.1923 -0.3314  0.2512
 7519W        W23413   4.491  10.216   3.110  0.0885 -0.0971  0.0542
 7520W        W23414   3.756   2.504   4.557 -0.0145  0.2171 -0.0131
 7521W        W23415   6.518   0.116   3.609 -0.0581 -0.2627  0.2257
 7522W        W23416  12.563   3.240   3.256 -0.1079 -0.0947  0.1959
 7523W        W23417   1.013   5.452   3.597 -0.0227  0.2295 -0.1192
 7524W        W23418   1.934   0.060   4.500 -0.1881 -0.0376 -0.0894
 7525W        W23419  10.061   3.103  14.960 -0.1095  0.3829 -0.1225
 7526W        W23420   7.897  12.333   3.800 -0.3932 -0.0309 -0.0049
 7527W        W23421  11.828  11.401   0.884  0.0715  0.0547 -0.1466
 7528W        W23422  10.900   4.366   2.043  0.0879 -0.1570 -0.2758
 7529W        W23423   9.713  16.333   0.534  0.1911  0.3709 -0.0350
 7530W        W23424  18.246   9.029   3.796 -0.1771  0.0379  0.1376
 7531W        W23425   9.970  14.621   3.375 -0.2347  0.0713 -0.4080
 7532W        W23426  18.529   0.448  13.791 -0.0502  0.0927 -0.1293
 7533W        W23427   7.396  10.347   4.166 -0.1702  0.0005  0.1797
 7534W        W23428   5.239   4.773   1.720 -0.0410 -0.1486  0.1823
 7535W        W23429   2.223  16.051   4.424 -0.2135 -0.0725 -0.0262
 7536W        W23430  13.034  17.884  15.372 -0.1280 -0.0063 -0.0348
 7537W        W23431   9.936   7.309   0.760 -0.1069 -0.0349  0.0467
 7538W        W23432  13.164  13.556   1.278  0.1564  0.0655  0.2742
 7539W        W23433   4.632  16.067  10.987  0.1386 -0.3992 -0.0838
 7540W        W23434   9.047   9.263  14.522 -0.2504  0.3047  0.2149
 7541W        W23435   6.052  13.541  12.191  0.2100 -0.0784  0.0266
 7542W        W23436  15.790  12.642   0.613 -0.1350 -0.2951 -0.2300
 7543W        W23437   6.591   8.705   0.745 -0.1638 -0.0770 -0.0351
 7544W        W23438   2.462   9.085  10.836 -0.3199 -0.2040  0.1281
 7545W        W23439  11.148  16.030   5.181  0.2052 -0.1158 -0.2364
 7546W        W23440   7.398   9.818  14.994  0.0426  0.1974  0.2419
 7547W        W23441  13.924  16.594   0.123  0.1284 -0.1529 -0.0101
 7548W        W23442  11.814   4.204   3.001  0.1226 -0.0830 -0.1892
 7549W        W23443  13.712   4.311  15.122  0.0095 -0.0445  0.1126
 7550W        W23444   2.401   2.349   1.593  0.0224 -0.0724 -0.0296
 7551W        W23445  18.046  16.890   2.524 -0.0273  0.0917  0.0758
 7552W        W23446  18.737  16.691   4.142  0.2811 -0.0332  0.0297
 7553W        W23447  16.060   2.102   2.855  0.1648 -0.0843 -0.0844
 7554W        W23448   7.600  12.376   5.020  0.1634  0.1802  0.1667
 7555W        W23449   0.631  12.150   4.521  0.0860  0.2324 -0.3045
 7556W        W23450   2.620   5.160  12.769  0.2929  0.2019  0.5272
 7557W        W23451  16.100   7.654   4.196  0.0302  0.0104 -0.0993
 7558W        W23452   0.819  17.973   0.607 -0.1049  0.0038  0.0548
 7559W        W23453  17.283  11.820   2.536  0.0631  0.1099 -0.1149
 7560W        W23454   3.935  13.637   2.911 -0.2947 -0.0671 -0.0999
 7561W        W23455   7.383  14.589   1.092  0.0572  0.2840 -0.3819
 7562W        W23456   9.787   2.155  11.574 -0.1425 -0.3241  0.1699
 7563W        W23457   0.216  18.712   4.718  0.1550  0.2872  0.1848
 7564W        W23458   3.434  17.922   2.912 -0.0207  0.0971  0.3382
 7565W        W23459   9.992  12.717  14.379 -0.1547 -0.1202 -0.2678
 7566W        W23460  16.200  14.946  14.917  0.1588 -0.0480  0.1052
 7567W        W23461   2.187   1.686   3.261  0.1178 -0.2459 -0.1447
 7568W        W23462   3.601   2.243   0.307 -0.2851  0.1202  0.2297
 7569W        W23463  15.577  16.832   2.514 -0.0453  0.0828  0.0699
 7570W        W23464   5.984   0.988  13.531 -0.1929 -0.0159  0.2558
 7571W        W23465   1.316  15.942   2.112 -0.0640 -0.2733  0.3526
 7572W        W23466  13.655   1.550  13.626 -0.2970  0.1046 -0.0636
 7573W        W23467   9.247   2.060  14.279  0.2171  0.0899  0.4257
 7574W        W23468  18.436   4.613   2.278 -0.2639 -0.3525  0.1959
 7575W        W23469  10.376  17.432  14.976 -0.2475  0.2635  0.0315
 7576W        W23470   3.748  16.485   3.330  0.0874 -0.0714  0.3598
 7577W        W23471   9.179   2.179  11.290 -0.0573 -0.0247  0.2403
 7578W        W23472  16.044  18.109   1.699  0.0805 -0.0735  0.3125
 7579W        W23473   5.719   9.550  13.761  0.1775 -0.1355  0.0085
 7580W        W23474   7.921   8.210   5.074  0.3859  0.2813  0.0119
 7581W        W23475  17.792   5.793   4.109 -0.0529 -0.1295 -0.0248
 7582W        W23476  18.669   5.280   0.537  0.2433  0.3277 -0.1226
 7583W        W23477  17.138  15.450   2.394 -0.0614 -0.2093 -0.0022
 7584W        W23478   0.679  16.327   4.483 -0.3012  0.1541  0.4010
 7585W        W23479  18.256   8.283   3.012  0.1699  0.3631 -0.1966
 7586W        W23480   1.558   9.636  12.502  0.1334 -0.0809  0.2722
 7587W        W23481   7.506   1.847  12.262 -0.1781  0.3008  0.2899
 7588W        W23482  14.691  10.162   1.378  0.2137 -0.2305 -0.0013
 7589W        W23483   3.284   5.110  14.985 -0.1684  0.2524 -0.4337
 7590W        W23484  16.943   4.254   1.917  0.1149  0.0042 -0.1097
 7591W        W23485   0.579  10.963  10.815  0.3826  0.0104  0.0058
 7592W        W23486   8.516  11.144   1.061  0.1813  0.0058 -0.1120
 7593W        W23487   6.539  15.744  11.449  0.0106 -0.1327  0.1294
 7594W        W23488   1.856  11.921  13.119  0.0196 -0.2806 -0.0560
 7595W        W23489   5.146  15.097   3.138  0.0135  0.1881 -0.3041
 7596W        W23490   7.259   0.677  12.998  0.2225 -0.2105  0.1576
 7597W        W23491  18.596  15.221   1.160  0.0045 -0.0458 -0.0123
 7598W        W23492   7.007  18.404   4.463  0.2023  0.0593 -0.1564
 7599W        W23493   5.784   3.393  12.376  0.0646  0.0103  0.1037
 7600W        W23494   4.999  10.750   3.370 -0.0683 -0.1937 -0.0573
 7601W        W23495   4.151   2.641   1.960  0.0561 -0.1622 -0.2400
 7602W        W23496   0.175   2.027   5.227 -0.2251  0.1016  0.0456
 7603W        W23497   6.084  13.127   2.597 -0.0138 -0.0231 -0.1547
 7604W        W23498   7.777   2.095   1.611  0.0032  0.1508  0.1399
 7605W        W23499  14.425   6.859  13.967 -0.0049 -0.0684 -0.2457
 7606W        W23500  10.622   6.404  11.601  0.0800  0.3521 -0.0167
 7607W        W23501   1.694  10.529  10.034  0.1418 -0.2812  0.2387
 7608W        W23502   0.867  18.437  12.738  0.2402  0.2916 -0.2056
 7609W        W23503  17.735   2.230   4.937 -0.2436  0.4151 -0.0437
 7610W        W23504   2.296   6.024   5.466 -0.1761  0.3108 -0.2461
 7611W        W23505   4.316   3.771  11.226  0.1816  0.0688 -0.4159
 7612W        W23506   8.597  11.497  14.196  0.0083 -0.0785  0.0290
 7613W        W23507   8.936   0.102   4.606  0.0394 -0.0676 -0.2908
 7614W        W23508  11.014  12.268  13.292 -0.0204 -0.1725  0.1684
 7615W        W23509  18.500   9.636   2.313 -0.2182  0.1630  0.3242
 7616W        W23510  11.728   9.319  11.790 -0.1255 -0.3793  0.2719
 7617W        W23511  16.931  15.519  14.572  0.1237  0.0437 -0.0345
 7618W        W23512  18.489  12.197   3.326  0.0860 -0.0664 -0.2447
 7619W        W23513   4.338  12.938   1.887  0.3346  0.2608 -0.0294
 7620W        W23514  10.271  13.567  13.779  0.0337 -0.1251  0.0686
 7621W        W23515  12.385   9.413   0.136  0.2929  0.1019  0.3709
 7622W        W23516   5.198  11.067  10.203  0.3717  0.2077  0.1134
 7623W        W23517   6.885   2.017   3.152  0.0652 -0.4643  0.0962
 7624W        W23518   9.031   9.333   1.502  0.1685 -0.1672 -0.1034
 7625W        W23519  12.110  12.973  13.002 -0.2266 -0.1206  0.1506
 7626W        W23520  12.431  12.121  11.092  0.1369  0.2040 -0.1685
 7627W        W23521  13.866  11.375  11.586  0.0563 -0.5340  0.1477
 7628W        W23522  12.862   1.449   4.611  0.1317  0.0665  0.0034
 7629W        W23523   1.119  17.906   3.763  0.0171 -0.1159  0.1559
 7630W        W23524   4.693   7.773   1.722 -0.0219 -0.0251 -0.2344
 7631W        W23525   5.496   5.462   2.327  0.0064 -0.1443  0.2244
 7632W        W23526  12.985  13.146  11.846 -0.1673  0.1519  0.0554
 7633W        W23527  12.106  16.850  12.761 -0.0807 -0.1710  0.0236
 7634W        W23528  16.074   1.396   3.411 -0.0352 -0.1391 -0.0720
 7635W        W23529   4.117  13.177  10.858  0.2454  0.0212 -0.0420
 7636W        W23530   9.003   9.986  10.828  0.1545 -0.0168  0.1744
 7637W        W23531  11.073  14.070   3.648  0.1101  0.3785  0.0938
 7638W        W23532  15.297   3.431   4.570  0.0577  0.0120 -0.1038
 7639W        W23533  15.709  10.170   3.496 -0.0888 -0.4207 -0.2140
 7640W        W23534   4.572   5.270   5.866 -0.1662 -0.0755  0.0202
 7641W        W23535   8.248  12.434  11.828 -0.0383  0.1645  0.2566
 7642W        W23536   3.330  13.169   4.845  0.0651 -0.2647  0.2437
 7643W        W23537   7.838  18.871  11.698 -0.1545  0.2382  0.1992
 7644W        W23538   8.457   6.815   3.548 -0.0188 -0.2173 -0.1825
 7645W        W23539   6.230  15.047   5.500  0.1207  0.1868 -0.1252
 7646W        W23540   5.258   5.743   4.819 -0.3647  0.0672  0.2483
 7647W        W23541  13.220   8.016   5.111 -0.0251  0.2739 -0.0225
 7648W        W23542  18.661   6.313   1.481 -0.2484  0.0737  0.4674
 7649W        W23543   5.488  16.300  10.613 -0.3845  0.4146  0.0051
 7650W        W23544   6.113   4.472  15.100 -0.1198  0.1010  0.0173
 7651W        W23545   6.017   6.829  15.339 -0.0288  0.4735  0.4723
 7652W        W23546   0.692   3.480  12.316  0.0636  0.1710 -0.1887
 7653W        W23547  15.858   4.236  10.323  0.2422  0.4805  0.1641
 7654W        W23548  11.817   6.142   1.426 -0.0445  0.2811 -0.0445
 7655W        W23549  10.232   5.032  12.901  0.1170 -0.3159 -0.1826
 7656W        W23550  17.631  16.965  10.665 -0.2358 -0.1890 -0.0514
 7657W        W23551   9.343   6.244   4.396 -0.1129 -0.1509  0.1087
 7658W        W23552   1.804  13.755  11.036  0.0680 -0.1000 -0.0561
 7659W        W23553   2.902  15.443  13.414  0.1048 -0.0481 -0.1126
 7660W        W23554  14.804   9.061   3.163  0.1444 -0.2530 -0.0810
 7661W        W23555   5.036   6.795  12.474 -0.0734  0.2416  0.2539
 7662W        W23556  10.913   4.986   4.498  0.2382 -0.0662 -0.0555
 7663W        W23557  12.602  16.173  14.298  0.1438 -0.1862  0.3393
 7664W        W23558   2.427  11.801   4.533 -0.1506  0.1687 -0.1422
 7665W        W23559   0.098   4.300   1.385  0.0160 -0.0137 -0.1876
 7666W        W23560  18.856   7.866   2.918 -0.0549 -0.0950  0.1912
 7667W        W23561   4.085   7.184  13.478  0.0148  0.0056  0.0133
 7668W        W23562  10.563   3.955  11.288  0.0296 -0.3079  0.3275
 7669W        W23563   8.798   9.112  12.775 -0.3794 -0.2405  0.0443
 7670W        W23564  10.939  12.832   0.798 -0.1283 -0.1340 -0.1429
 7671W        W23565   6.483  12.648   5.574  0.1195  0.0530  0.0093
 7672W        W23566   8.177   3.668   0.966 -0.2519  0.1591  0.0310
 7673W        W23567   1.711   5.418  11.169 -0.2791 -0.1096 -0.0271
 7674W        W23568   4.976  11.611  10.867 -0.1223 -0.3252  0.2009
 7675W        W23569  13.077  12.821   3.629 -0.1009  0.0145 -0.0791
 7676W        W23570   9.028   1.707   2.861 -0.1455 -0.0788  0.1301
 7677W        W23571   8.384  12.837   1.419 -0.0195  0.3904 -0.0612
 7678W        W23572   4.158   4.280  12.816 -0.2212 -0.4013 -0.0464
 7679W        W23573   9.878   4.054   2.416  0.0320  0.0858  0.1596
 7680W        W23574  12.905  14.192   4.754  0.3817  0.2009  0.1697
 7681W        W23575   2.028   4.466   3.626  0.2018  0.0478 -0.1703
 7682W        W23576  11.350  10.921   5.640 -0.0504 -0.0113 -0.2437
 7683W        W23577   0.080   3.538   2.996 -0.0795 -0.0839  0.1831
 7684W        W23578  16.053   9.768   2.488 -0.2403  0.1760  0.1182
 7685W        W23579   1.244   4.823   3.873  0.3899  0.0015 -0.3010
 7686W        W23580   1.230  17.917  15.298  0.1541  0.2134 -0.1799
 7687W        W23581  15.123  18.056   3.004  0.2664  0.1400 -0.3007
 7688W        W23582   3.342  16.041   3.195 -0.4278 -0.1560  0.1591
 7689W        W23583  13.119  15.011  14.895  0.0193 -0.0392  0.1596
 7690W        W23584   5.911  14.299   1.771 -0.1625 -0.0984  0.1609
 7691W        W23585  11.761   4.636   4.367  0.4149  0.1076 -0.3555
 7692W        W23586  16.430  11.720  13.174  0.0560 -0.1915  0.1574
 7693W        W23587   1.092  17.810  11.685 -0.1030  0.0295 -0.1238
 7694W        W23588   6.918   2.089   5.728  0.2395 -0.1007 -0.3873
 7695W        W23589  12.580  17.220  11.512 -0.1782 -0.1048 -0.2015
 7696W        W23590  13.432   8.737  14.255 -0.0012  0.3274  0.4804
 7697W        W23591   3.959   7.502   5.440  0.1987 -0.1956 -0.0237
 7698W        W23592   9.589   6.296  11.405  0.0473 -0.2539 -0.0804
 7699W        W23593  15.153   0.605   2.521  0.0617  0.0248 -0.0179
 7700W        W23594   1.748  15.247   2.721 -0.4046 -0.0768 -0.1552
 7701W        W23595   4.838   1.454   1.678 -0.1407  0.1317  0.0396
 7702W        W23596   8.946  15.530   4.763 -0.1121  0.0903 -0.0729
 7703W        W23597   8.154  16.905  12.778 -0.5013  0.1813 -0.2164
 7704W        W23598   6.980   3.934  12.789 -0.1867 -0.0049  0.2205
 7705W        W23599   4.698   8.572  13.747  0.0482 -0.2304 -0.2551
 7706W        W23600  13.762  16.989   5.873  0.0970  0.0729 -0.0659
 7707W        W23601  18.283  17.455   3.223  0.1499 -0.1050 -0.1800
 7708W        W23602  11.449   2.857   3.829 -0.1591 -0.1481  0.1326
 7709W        W23603  18.621   9.764   1.750  0.0456  0.0578  0.2565
 7710W        W23604   7.639   1.134  10.752  0.2112  0.0217 -0.0654
 7711W        W23605   2.533   0.277   1.861  0.1669  0.2125 -0.0116
 7712W        W23606  15.468   8.971   5.625  0.0245 -0.2182  0.0849
 7713W        W23607   2.324   3.236  15.251  0.0360 -0.3711 -0.1916
 7714W        W23608  17.974   5.258   1.093 -0.0156  0.1298 -0.1697
 7715W        W23609  10.803  11.851   1.161 -0.1127  0.0183  0.2163
 7716W        W23610  16.239   8.226  10.689  0.1748  0.0379 -0.2624
 7717W        W23611   6.270   6.192   5.351  0.0973 -0.2017 -0.0670
 7718W        W23612   5.507   2.817   3.738  0.1229 -0.1181 -0.0864
 7719W        W23613   3.811  16.564   0.157  0.1232  0.1873 -0.0456
 7720W        W23614  13.617  15.623   5.678 -0.3081  0.2124  0.1985
 7721W        W23615   9.109   2.108   4.090 -0.1378 -0.1281  0.0293
 7722W        W23616   0.452  11.038   3.232  0.0169 -0.0477  0.2047
 7723W        W23617   1.398  17.430  12.977 -0.0759  0.2220  0.1056
 7724W        W23618   8.408   4.894  11.259 -0.1766  0.0611  0.0797
 7725W        W23619  18.294  11.697   3.397 -0.0437 -0.0082  0.0937
 7726W        W23620   9.192   4.795  12.417 -0.0735  0.1857 -0.1377
 7727W        W23621  12.941  15.635   0.240 -0.3939 -0.0174  0.0202
 7728W        W23622   9.799  14.959  14.634 -0.0348  0.0161 -0.1294
 7729W        W23623   8.370   0.001   4.522 -0.0886 -0.0695  0.0331
 7730W        W23624  13.222   2.663   0.532  0.0196 -0.3310 -0.1478
 7731W        W23625   9.371  14.842  13.003 -0.0990 -0.3993 -0.0701
 7732W        W23626   4.773  17.708  14.306 -0.3663 -0.2829  0.1059
 7733W        W23627   1.842   4.725   0.783  0.1873 -0.1645 -0.0692
 7734W        W23628   2.981   9.153   4.901  0.0944 -0.1705  0.0720
 7735W        W23629  10.920   2.669  13.204  0.0916 -0.1486  0.2824
 7736W        W23630  10.716  18.579   3.369 -0.0903  0.1856 -0.4521
 7737W        W23631   5.764   4.793  13.395 -0.1829 -0.0479  0.0790
 7738W        W23632  16.465  17.436   0.034  0.4690 -0.0970  0.2712
 7739W        W23633   6.082   2.575  11.134 -0.0198  0.1147  0.0097
 7740W        W23634  11.538  10.037  12.766 -0.1388  0.1924  0.0682
 7741W        W23635   0.107   1.909  11.502  0.2841  0.2616 -0.3216
 7742W        W23636  16.466  18.118   2.034 -0.3836  0.1507 -0.2059
 7743W        W23637   1.227  11.035   4.471 -0.0907 -0.2447  0.2456
 7744W        W23638   3.553  10.938   4.058  0.4862 -0.0326 -0.0859
 7745W        W23639  10.079   1.525   4.197 -0.1185 -0.0385 -0.2484
 7746W        W23640  13.814  11.838  13.516 -0.1164  0.0283  0.2714
 7747W        W23641   6.999  17.723   3.091  0.3721 -0.1169  0.3229
 7748W        W23642  15.039  16.145  14.417  0.3231 -0.2295  0.1297
 7749W        W23643   6.660  12.241  12.541  0.0392  0.2768  0.0835
 7750W        W23644  11.886  13.844  14.124  0.1474  0.1506 -0.2650
 7751W        W23645  16.862  10.391  10.858 -0.4244  0.2006 -0.1878
 7752W        W23646   0.909   3.868  14.780  0.0504 -0.1043 -0.0445
 7753W        W23647  14.538  14.706   4.084 -0.2349  0.0516 -0.0009
 7754W        W23648   7.460   0.926   3.851 -0.4787  0.2386 -0.0516
 7755W        W23649   5.593  17.020   1.210  0.2178  0.0363 -0.1077
 7756W        W23650   6.276   2.062   4.515 -0.3812  0.1815 -0.2840
 7757W        W23651  15.225   4.926   1.563 -0.3986 -0.2696  0.1115
 7758W        W23652  13.956   4.446  13.454  0.2790 -0.2002  0.0883
 7759W        W23653   6.988  12.752   3.701 -0.2761  0.3149 -0.3630
 7760W        W23654   7.196   8.555   2.809 -0.2512 -0.0490  0.1252
 7761W        W23655   6.631  14.126   3.012  0.0499 -0.0140 -0.1089
 7762W        W23656   4.222   8.263  13.896 -0.1534  0.2049 -0.5282
 7763W        W23657   6.139  18.577  13.017  0.0373  0.0225 -0.1644
 7764W        W23658   0.136  15.868  14.562  0.0195 -0.2589  0.3063
 7765W        W23659  15.394  17.326  12.728 -0.0378  0.3063  0.4142
 7766W        W23660   0.151  10.987  11.193 -0.3730  0.2188  0.2145
 7767W        W23661   9.441   2.435  12.054  0.0146  0.0931  0.1667
 7768W        W23662   1.128   1.260  10.866  0.1052  0.1452  0.1485
 7769W        W23663  16.889  15.534  11.559 -0.0533  0.2437  0.0921
 7770W        W23664   4.813  17.659  15.445 -0.0829  0.3189 -0.0844
 7771W        W23665   6.894  14.455   2.602  0.0806  0.2353 -0.0493
 7772W        W23666   3.031   7.390  13.504 -0.1856  0.1075 -0.0907
 7773W        W23667   6.560   0.384  13.926  0.0579 -0.0106  0.2296
 7774W        W23668   6.873  17.879  14.877  0.2394 -0.2893 -0.0425
 7775W        W23669  16.501   4.943  11.839 -0.0132  0.3366 -0.4240
 7776W        W23670  18.043  15.569   2.658  0.0037 -0.0820 -0.0301
 7777W        W23671   9.939  11.010  15.043  0.0970  0.0411  0.2103
 7778W        W23672   8.063  10.856  14.831  0.3510  0.1276 -0.1807
 7779W        W23673  13.382  14.966   2.253 -0.1787  0.0316  0.1961
 7780W        W23674   9.456  17.708   3.343 -0.1888 -0.1691 -0.2803
 7781W        W23675   3.624   0.547   3.030 -0.3474 -0.3150 -0.0639
 7782W        W23676  13.240  13.534   4.393  0.0035  0.0306  0.2170
 7783W        W23677  12.438   3.614   4.510  0.0463 -0.2762 -0.3613
 7784W        W23678   3.318  14.132   4.300  0.1997 -0.0297  0.1230
 7785W        W23679   7.505  12.202  14.197  0.1442  0.0278  0.0726
 7786W        W23680   0.727  18.448   2.569  0.1627 -0.0349 -0.0660
 7787W        W23681  13.726  12.395   3.039 -0.2351 -0.0397  0.0948
 7788W        W23682  17.491  14.421   0.415  0.1966 -0.1020  0.0213
 7789W        W23683  11.726  11.233   5.531 -0.1629  0.0503 -0.0842
 7790W        W23684  12.719   5.660   2.475 -0.0298 -0.1441  0.0729
 7791W        W23685  12.732  13.380   3.034  0.2015 -0.1603  0.0848
 7792W        W23686   6.401  15.968   2.641  0.2204 -0.0234  0.2870
 7793W        W23687   1.817   7.462  10.522 -0.2181  0.1857  0.0655
 7794W        W23688   0.282   3.240   4.883 -0.1889  0.1917  0.2633
 7795W        W23689   7.677  16.999   4.180  0.0854 -0.2160 -0.1018
 7796W        W23690   9.222  11.678  14.834 -0.2854  0.0223  0.2772
 7797W        W23691   3.070   5.548  11.529  0.1168  0.0488 -0.1341
 7798W        W23692  16.413  13.000   1.244 -0.1556  0.1319  0.0966
 7799W        W23693  17.305  12.549   1.225  0.1955  0.0294 -0.0666
 7800W        W23694   8.527   7.525  10.399  0.1064 -0.3318 -0.1472
 7801W        W23695  17.583  12.925  11.222 -0.0086 -0.0490 -0.0384
 7802W        W23696  18.070  13.490  12.758 -0.1095 -0.1330 -0.2210
 7803W        W23697   8.343  16.513   2.721  0.1351 -0.0587 -0.0037
 7804W        W23698  11.821  10.653   3.450 -0.0439  0.0643 -0.0074
 7805W        W23699  16.380  11.687  11.554  0.1326  0.0254 -0.1292
 7806W        W23700  12.776   9.319  13.515 -0.1715 -0.2371  0.1045
 7807W        W23701   7.056   3.465   2.885 -0.0993 -0.1135  0.1882
 7808W        W23702  14.637   6.295   4.626  0.1081 -0.0154  0.2772
 7809W        W23703  13.925   9.632  14.791  0.2189 -0.3103 -0.3842
 7810W        W23704   7.464  11.087   4.469 -0.1863  0.1358  0.1675
 7811W        W23705   6.657   3.289   0.084 -0.0728  0.3057  0.4846
 7812W        W23706   2.329  11.006   4.950 -0.3298 -0.0472 -0.0776
 7813W        W23707   1.485  16.929  14.425 -0.1624 -0.0461 -0.0152
 7814W        W23708  11.771   1.096   5.185 -0.1124  0.0606  0.1713
 7815W        W23709  14.242  13.447   0.950  0.1575  0.0724  0.0722
 7816W        W23710   3.718   5.301  11.065 -0.3511 -0.1688  0.1975
 7817W        W23711   1.398   2.383   3.703  0.2316  0.1893  0.0615
 7818W        W23712   9.455  11.834   0.469 -0.0004  0.1817  0.2394
 7819W        W23713  10.551  12.542   4.896 -0.3306 -0.2145  0.2891
 7820W        W23714   2.474  12.520   9.988 -0.1078 -0.0788  0.4490
 7821W        W23715  16.390   6.660   1.293  0.1122 -0.2220 -0.4073
 7822W        W23716   0.721   4.349   2.087  0.3623  0.0522 -0.3242
 7823W        W23717  11.994  18.399  11.285 -0.0973  0.1677 -0.4173
 7824W        W23718   3.734   5.914  12.946  0.2802  0.1321  0.1595
 7825W        W23719   0.146   0.336  11.604 -0.2093  0.1934 -0.0515
 7826W        W23720   2.068   8.480  11.085  0.3443 -0.1969  0.1473
 7827W        W23721   0.907  16.883  13.590 -0.0681 -0.0907 -0.2548
 7828W        W23722   5.267  14.475  11.814  0.4223  0.2069  0.0411
 7829W        W23723  14.139   7.987   0.445 -0.1345  0.0782  0.1437
 7830W        W23724   7.559  11.470   3.864  0.0248  0.2610 -0.1701
 7831W        W23725  17.306  14.090   9.947  0.1485  0.1804 -0.0958
 7832W        W23726   0.095  12.360  10.952 -0.2206 -0.2568  0.1128
 7833W        W23727   0.498   5.691   5.306  0.3626 -0.0192  0.2647
 7834W        W23728   3.744  13.076   0.006 -0.1110  0.1051  0.0279
 7835W        W23729  16.391  10.210   1.587 -0.3442 -0.1118  0.1687
 7836W        W23730  17.002  16.122   1.678  0.2167  0.1162 -0.0950
 7837W        W23731  12.638   5.492   3.989 -0.1770 -0.0648 -0.2761
 7838W        W23732   0.112   2.750   9.548  0.1095  0.3584 -0.1442
 7839W        W23733   0.057   9.651   3.843 -0.2971 -0.1669  0.0819
 7840W        W23734   8.056   3.312   4.967  0.0169 -0.3283  0.2365
 7841W        W23735  11.223  14.706   2.823 -0.3943 -0.0881 -0.1600
 7842W        W23736   9.618   7.638   2.565 -0.1956 -0.0421  0.2140
 7843W        W23737  11.832   0.025  11.224 -0.2422 -0.0254  0.0198
 7844W        W23738  13.951   1.775  10.803 -0.0588 -0.3693  0.1690
 7845W        W23739   9.975   7.307   1.758  0.0128  0.2607  0.0663
 7846W        W23740   8.875   5.823   2.916  0.3779  0.3025 -0.3025
 7847W        W23741  10.981  16.602   0.472  0.0050 -0.3803 -0.2038
 7848W        W23742  17.431   8.840  10.722 -0.1534  0.0488 -0.2610
 7849W        W23743  11.361  12.302   3.683 -0.0463 -0.2224 -0.2742
 7850W        W23744  12.922   0.043  13.460  0.1824  0.2718  0.1504
 7851W        W23745  18.176  10.037   4.947 -0.0575 -0.1172  0.0997
 7852W        W23746   3.118   0.735  10.870 -0.1723  0.1573  0.0434
 7853W        W23747  10.998  16.055  13.800 -0.2795  0.0098  0.3681
 7854W        W23748  17.920  11.533   3.671  0.1301 -0.0091  0.2271
 7855W        W23749  14.090  17.935  13.088  0.1395 -0.0377  0.0297
 7856W        W23750   0.092   9.505   2.856 -0.0411  0.0678 -0.1919
 7857W        W23751   9.918   6.670  12.628 -0.2786 -0.1851  0.2059
 7858W        W23752   8.539  16.525   1.804 -0.0265  0.2151 -0.1351
 7859W        W23753   3.953   0.346   5.647  0.2657 -0.3563 -0.2016
 7860W        W23754   3.806   8.291   3.442 -0.1264 -0.1199  0.0564
 7861W        W23755   0.272   2.001   1.883  0.3737  0.0348 -0.0089
 7862W        W23756   4.123   2.135  11.046 -0.0227 -0.3047 -0.4505
 7863W        W23757  18.421  13.456   4.028 -0.2255  0.0824  0.0915
 7864W        W23758   7.345   8.566  14.517 -0.3331 -0.0519 -0.2177
 7865W        W23759   4.811   4.966   2.120  0.1410 -0.0392 -0.1891
 7866W        W23760  13.785   2.003  12.374 -0.2670 -0.3556  0.1878
 7867W        W23761  10.379   8.303   4.877 -0.1369 -0.0366  0.0252
 7868W        W23762  13.831  10.040  15.433 -0.1388 -0.0879  0.2200
 7869W        W23763  15.594   6.294   2.947  0.0322 -0.0366  0.0710
 7870W        W23764   3.317   8.226   2.291 -0.0748  0.1779  0.0790
 7871W        W23765   5.146   2.717   1.790 -0.0016 -0.1675 -0.0489
 7872W        W23766  13.929   2.388  13.247 -0.0304  0.0543 -0.2182
 7873W        W23767  11.767  15.237   1.753  0.2643  0.1236 -0.0144
 7874W        W23768   1.623  14.307  13.986  0.1770  0.3338 -0.1794
 7875W        W23769  14.707   4.026   3.949  0.2662 -0.1870  0.0590
 7876W        W23770  12.392   2.012   2.639  0.0655  0.1707 -0.1063
 7877W        W23771   5.831   4.360   5.553  0.0005 -0.1832 -0.0301
 7878W        W23772   5.259  12.745  10.131 -0.0932 -0.0721 -0.1010
 7879W        W23773  10.807  16.466  12.585  0.2374 -0.3143 -0.2961
 7880W        W23774  14.718  18.540  14.513 -0.0969 -0.1186 -0.0071
 7881W        W23775   6.068   7.007   2.870 -0.2971 -0.0114 -0.0989
 7882W        W23776   0.610   3.749  11.260 -0.0627  0.1638  0.0645
 7883W        W23777  13.547   2.805  14.050 -0.0602 -0.0578 -0.0824
 7884W        W23778  13.251  12.118  13.383  0.1305  0.1094  0.2547
 7885W        W23779   3.308   3.091   3.304 -0.2277 -0.3323 -0.1909
 7886W        W23780   4.363   7.544  11.366 -0.2464  0.3645  0.0740
 7887W        W23781  11.567  13.010  13.923 -0.1791 -0.1220 -0.0229
 7888W        W23782   7.406   6.597   2.670  0.0605 -0.1294 -0.1915
 7889W        W23783   3.271   9.330   1.938  0.2121 -0.2755  0.0240
 7890W        W23784  10.103  18.580  11.811 -0.0698  0.1343 -0.1521
 7891W        W23785   7.802   3.728   4.801 -0.2666  0.0312 -0.2049
 7892W        W23786  15.647  17.980   5.720  0.2347  0.2015 -0.0439
 7893W        W23787  18.265   8.630  14.751 -0.1879  0.0006 -0.2279
 7894W        W23788  12.296   7.808   1.435  0.1907 -0.2150  0.2433
 7895W        W23789   6.768   4.111   4.652 -0.2678 -0.2568  0.3071
 7896W        W23790   8.243  15.568   3.021  0.0373  0.1665 -0.0664
 7897W        W23791   2.399  15.235  13.091  0.0965 -0.1034 -0.3281
 7898W        W23792   5.719  14.370   3.314 -0.1431  0.0539  0.4659
 7899W        W23793   3.663  15.907  15.243  0.3889  0.0308  0.0972
 7900W        W23794   7.779   5.394   3.749  0.0600 -0.3158  0.3322
 7901W        W23795   6.410   0.817   1.650 -0.0257  0.0542 -0.0882
 7902W        W23796  11.735  11.151   0.016 -0.1477  0.1303 -0.2935
 7903W        W23797   2.083  14.356  15.411 -0.1397  0.2779 -0.0053
 7904W        W23798  16.705   5.455  13.641 -0.1720  0.0798 -0.0534
 7905W        W23799   5.943   8.291   4.100 -0.2472  0.0425  0.1263
 7906W        W23800   5.514   6.546  12.332 -0.1076  0.0091 -0.1837
 7907W        W23801  17.230   3.107   3.960  0.0435 -0.1421  0.0323
 7908W        W23802   4.273   6.826   3.084 -0.0735  0.1951  0.4486
 7909W        W23803  18.079  16.072   5.426  0.0802 -0.0436  0.2076
 7910W        W23804   5.190  15.538  13.611 -0.2358  0.2648  0.0012
 7911W        W23805   9.437  16.649   2.686  0.0658  0.2316  0.0213
 7912W        W23806   5.536  17.898  13.542  0.1810 -0.0938  0.0345
 7913W        W23807  18.397  15.134  11.008 -0.0624  0.0757 -0.1719
 7914W        W23808  18.871   7.722  13.794  0.0895  0.1897 -0.2594
 7915W        W23809   7.237   7.273  15.477 -0.0605 -0.6036  0.1894
 7916W        W23810  15.058   1.412   6.065 -0.0619  0.2369  0.0548
 7917W        W23811  15.178  10.158  14.525 -0.2754  0.2030 -0.2403
 7918W        W23812  15.447   6.784   1.075 -0.0792 -0.1535 -0.2135
 7919W        W23813  11.483  15.222   2.431 -0.1768 -0.0620  0.0829
 7920W        W23814   7.235  17.324  12.933  0.4126 -0.0897 -0.2036
 7921W        W23815  12.593  15.016  11.309 -0.0487 -0.1503  0.0220
 7922W        W23816   7.106   9.684  15.449  0.3051  0.2382  0.1046
 7923W        W23817   4.920   1.069  14.640 -0.4365  0.1621  0.4725
 7924W        W23818   3.385   4.657  13.460  0.1600  0.3535  0.3049
 7925W        W23819   3.583  17.663   2.070  0.5032 -0.2292 -0.1259
 7926W        W23820  13.949   8.516  14.808 -0.2104 -0.0013 -0.0264
 7927W        W23821   7.062   9.715   4.962  0.1623  0.1087 -0.0717
 7928W        W23822  17.607  18.823   2.415 -0.0100 -0.2164 -0.0456
 7929W        W23823  16.314  14.712  12.229 -0.0575  0.0849  0.0797
 7930W        W23824  17.224  10.512  12.883  0.3487  0.1909 -0.0219
 7931W        W23825  10.325  10.243  10.848 -0.2908 -0.0124 -0.1350
 7932W        W23826  17.101   1.262   3.043  0.2395 -0.1319 -0.2162
 7933W        W23827   2.700   2.066   1.225 -0.2173 -0.1363 -0.2318
 7934W        W23828  11.556  17.791  13.943  0.2504 -0.2228  0.2979
 7935W        W23829   5.469  15.015  13.485  0.1343  0.1095  0.1225
 7936W        W23830   7.301   5.364   2.128  0.0409  0.2265  0.2661
 7937W        W23831  12.174   5.256   3.930  0.0644  0.0692 -0.2916
 7938W        W23832   7.566  17.653   2.700  0.1064 -0.0758  0.5946
 7939W        W23833   2.821   9.896  13.772  0.2202  0.3115  0.1500
 7940W        W23834   4.660  10.753  13.387 -0.0841 -0.2923  0.3136
 7941W        W23835   7.366   5.705  11.437  0.2323 -0.0958  0.1424
 7942W        W23836   4.674  17.230   2.388 -0.0049 -0.1936 -0.4334
 7943W        W23837   9.931  16.828  12.798  0.1453 -0.3357  0.1948
 7944W        W23838  15.678  13.881  11.809 -0.0400 -0.0836 -0.0195
 7945W        W23839   4.624   3.103  12.577  0.1590 -0.1407 -0.3693
 7946W        W23840  11.811   2.387  12.216 -0.0546  0.4090  0.1091
 7947W        W23841   4.532  18.204   2.202 -0.0442  0.1724 -0.0915
 7948W        W23842  11.702  18.458   2.950 -0.0583  0.1381 -0.1918
 7949W        W23843  16.615   3.575  11.881  0.0067  0.0020  0.1313
 7950W        W23844  12.413   5.266   2.307  0.1666 -0.1600  0.3225
 7951W        W23845  13.755   3.097  13.545  0.3403 -0.0247 -0.0627
 7952W        W23846   1.189   8.316  12.015 -0.1535  0.1755  0.0405
 7953W        W23847   1.774   1.662   1.444  0.0376  0.0654  0.0586
 7954W        W23848  15.303  10.547  15.073 -0.3821 -0.0283 -0.1865
 7955W        W23849  16.493  14.084  14.212  0.0635 -0.1314  0.1298
 7956W        W23850   1.880   3.889  13.345  0.1004  0.2885  0.5355
 7957W        W23851   9.082   2.808   2.621 -0.0129 -0.2720 -0.1041
 7958W        W23852   4.798   3.114  15.250  0.1093  0.1180  0.0322
 7959W        W23853   0.206  15.509  12.893 -0.1402  0.1669  0.0736
 7960W        W23854   3.939   8.405  13.515  0.0437 -0.1068 -0.1207
 7961W        W23855   0.512  14.252   2.837 -0.1077 -0.3083  0.1996
 7962W        W23856  11.532   7.450   1.863  0.2232  0.1508  0.2450
 7963W        W23857   5.559   5.629  11.081  0.0271  0.0782  0.1228
 7964W        W23858  14.410   9.697   5.504 -0.0473  0.0883  0.1627
 7965W        W23859   4.720   9.950   4.172  0.1526  0.2475 -0.2501
 7966W        W23860   9.731   5.025   3.595 -0.1266 -0.3993 -0.1091
 7967W        W23861  18.303   5.081  10.850  0.1035  0.3386 -0.0811
 7968W        W23862   7.062   2.083  11.511  0.1037 -0.0905  0.0683
 7969W        W23863   5.052   4.686  15.344 -0.1867  0.1204  0.5261
 7970W        W23864   9.834   2.068   2.774  0.0218 -0.1972 -0.0622
 7971W        W23865   5.265   2.011  13.006  0.3579 -0.1368 -0.1059
 7972W        W23866  11.727   1.191   0.241 -0.2450  0.2398 -0.1134
 7973W        W23867   3.012   1.805  11.635 -0.0311 -0.3828  0.0537
 7974W        W23868   0.447  13.829  10.884  0.0137 -0.0383  0.0867
 7975W        W23869  15.550   7.612   5.095  0.2810 -0.1613  0.0170
 7976W        W23870  11.491   8.908   1.003 -0.2081  0.0665  0.1130
 7977W        W23871   0.184   9.448   2.340 -0.1892  0.1607 -0.0072
 7978W        W23872   5.340   1.907  14.174  0.3263 -0.2691 -0.6945
 7979W        W23873   9.806   4.753  13.077 -0.0117  0.3805 -0.0887
 7980W        W23874   4.724  15.928   0.909 -0.1689 -0.1112  0.1076
 7981W        W23875  15.534   0.908   2.081 -0.1500 -0.3728  0.0218
 7982W        W23876  16.704  11.759  11.150  0.0690  0.1688  0.2847
 7983W        W23877   7.634  10.072   4.944 -0.0101  0.1753  0.4021
 7984W        W23878  16.636  15.248   5.037  0.2616  0.0282  0.0966
 7985W        W23879  12.275   4.706  14.458  0.1657 -0.0834  0.1962
 7986W        W23880  14.827  10.595  13.935  0.0941 -0.2384  0.3100
 7987W        W23881   9.817  16.786  14.276  0.2111 -0.0067 -0.2238
 7988W        W23882   7.364  12.108  12.628  0.3300  0.0286 -0.2258
 7989W        W23883  14.008  18.882   3.341 -0.0274 -0.2257 -0.0547
 7990W        W23884  14.442  18.061   4.223 -0.0513 -0.0965  0.2694
 7991W        W23885   3.168  10.719   4.193 -0.1512 -0.0370  0.0212
 7992W        W23886  10.333  11.070   5.044  0.0322  0.1428 -0.0943
 7993W        W23887   0.045   5.324   0.110 -0.0573 -0.1038  0.2249
 7994W        W23888   3.377   9.379   1.335 -0.4366  0.2343 -0.1387
 7995W        W23889   6.007  12.673   1.943  0.3279  0.2290  0.0370
 7996W        W23890   8.177  13.880   1.270  0.1061 -0.0612  0.3224
 7997W        W23891   7.774  12.430   1.795 -0.2411  0.0478 -0.0999
 7998W        W23892  17.671  14.870   0.620  0.0047  0.2712  0.1027
 7999W        W23893  16.870  10.691  12.421  0.1276  0.0744 -0.3347
 8000W        W23894   0.342   0.843  12.788 -0.1767 -0.0130 -0.1141
 8001W        W23895  11.704   2.675  14.951 -0.0464  0.1470  0.0658
 8002W        W23896  12.165  13.343   1.216  0.3527 -0.2656 -0.2399
 8003W        W23897   7.008  18.067  12.648 -0.2616  0.0698  0.1730
 8004W        W23898  14.480  18.042  14.719 -0.4577  0.0105 -0.0483
 8005W        W23899  11.926  15.742   3.628 -0.3645  0.0176  0.1499
 8006W        W23900  15.950   2.985   4.702 -0.0843  0.3675 -0.0673
 8007W        W23901   4.799  12.020  13.658 -0.4094  0.0030 -0.0662
 8008W        W23902   8.084   7.492  13.988  0.0052 -0.1788 -0.1017
 8009W        W23903   5.187   2.253   5.453  0.2581  0.0297  0.0667
 8010W        W23904   2.381   4.917   2.391  0.0284  0.1046 -0.1088
 8011W        W23905  11.991   4.358  12.650 -0.0056 -0.1539 -0.4363
 8012W        W23906   0.571  11.471  13.334 -0.2140  0.0103 -0.1427
 8013W        W23907  11.214   1.846   3.387  0.2804  0.0331 -0.4050
 8014W        W23908   8.070  14.797   4.786 -0.0548 -0.3138 -0.0271
 8015W        W23909  17.023   5.513   1.357  0.0084 -0.1499 -0.0945
 8016W        W23910   0.152  10.636   3.429  0.0036  0.2352  0.2426
 8017W        W23911  12.227   7.441   0.271  0.1182  0.0334 -0.2427
 8018W        W23912  16.999  13.036  14.296  0.0073 -0.1245 -0.2659
 8019W        W23913  18.091   2.644  11.874  0.1306 -0.3007 -0.2273
 8020W        W23914   9.192  18.081   3.482 -0.1552 -0.0803 -0.0409
 8021W        W23915  10.443  14.473   3.003  0.0210  0.1837 -0.0180
 8022W        W23916   8.249   2.806  10.371 -0.0470  0.0753  0.0186
 8023W        W23917   5.980  14.185   3.774 -0.0432  0.1190 -0.1527
 8024W        W23918   9.036   6.890   3.606 -0.2002  0.0898 -0.0156
 8025W        W23919  16.562  12.365  15.050 -0.0226  0.3275  0.0882
 8026W        W23920   7.717  13.978   2.461 -0.0107 -0.1595  0.0699
 8027W        W23921   8.784   2.840   5.019  0.1589  0.0372  0.0017
 8028W        W23922  13.994   8.003   4.533  0.2769 -0.5211 -0.1838
 8029W        W23923   3.638   5.664  12.464  0.1568  0.2141  0.2240
 8030W        W23924  15.534   5.296   0.591  0.0415  0.3402 -0.0374
 8031W        W23925   5.789   1.856  14.502  0.1068 -0.1170  0.0633
 8032W        W23926   2.807   9.536  12.342 -0.0695 -0.1291 -0.0119
 8033W        W23927  14.628   2.196   4.398 -0.2549  0.0559  0.2594
 8034W        W23928  10.250  15.886  12.343 -0.0451  0.1449  0.1741
 8035W        W23929  16.055  18.230   2.562  0.0417 -0.1130 -0.0244
 8036W        W23930  11.816   3.551  13.866  0.2078  0.2030  0.0613
 8037W        W23931  18.352  13.339   5.788  0.1887  0.0987 -0.4517
 8038W        W23932   5.395   9.648  10.564 -0.1099  0.0456  0.0283
 8039W        W23933   2.028  15.226   0.121  0.2299 -0.0094  0.1712
 8040W        W23934  11.119  15.938   9.734  0.1755  0.3026 -0.0541
 8041W        W23935   4.375   2.165  12.708  0.0645 -0.2713  0.0993
 8042W        W23936   0.423  11.272  15.339 -0.1423  0.0635 -0.1157
 8043W        W23937  10.297  13.099   4.934 -0.1262 -0.1648 -0.0270
 8044W        W23938  17.975   7.241  10.650 -0.0283 -0.0670 -0.0076
 8045W        W23939   3.286  11.277  11.029  0.1704  0.1670  0.3137
 8046W        W23940   5.116  18.127   0.009  0.2140 -0.2699 -0.1027
 8047W        W23941  18.610   0.731  11.628 -0.0008 -0.0498 -0.1645
 8048W        W23942  10.131  17.144  12.479  0.3175  0.0792 -0.1094
 8049W        W23943   6.959  11.215   1.515  0.0420  0.2510  0.0031
 8050W        W23944  11.696  10.101  12.329  0.0187 -0.1603 -0.3075
 8051W        W23945  12.076   7.598   2.711 -0.0207 -0.0638 -0.0476
 8052W        W23946   0.957  10.452  14.182 -0.1221  0.1288  0.1475
 8053W        W23947  17.428  12.167   2.974  0.0828 -0.0916  0.5014
 8054W        W23948   3.411   9.325  14.225 -0.0734 -0.1382 -0.0728
 8055W        W23949   3.602  10.609  14.272 -0.2464 -0.1691  0.2504
 8056W        W23950  13.165   8.929  13.345 -0.1397 -0.1905  0.4247
 8057W        W23951  14.196  12.989   4.983 -0.2468 -0.0527  0.1956
 8058W        W23952   7.332   4.097  12.401  0.3403  0.0171  0.0612
 8059W        W23953   6.646  15.390   4.688 -0.2908 -0.2790  0.0404
 8060W        W23954  16.149   9.797  13.568 -0.3888 -0.1292 -0.0865
 8061W        W23955  12.006   9.480  14.966 -0.1368 -0.0360 -0.3533
 8062W        W23956   9.387  11.163   4.323 -0.0903  0.0053  0.0002
 8063W        W23957   1.079   1.643  12.992  0.1530 -0.2916  0.0910
 8064W        W23958   5.523  16.767  13.693 -0.1725  0.0948 -0.1630
 8065W        W23959  14.605   9.269   3.702 -0.1738  0.1245  0.3402
 8066W        W23960  15.984  16.688   1.797  0.0641  0.1886 -0.1841
 8067W        W23961  12.774   0.365  14.348 -0.1239  0.0638 -0.0544
 8068W        W23962   0.732   6.573  10.910 -0.2085 -0.3507  0.3538
 8069W        W23963   1.705   4.110  14.720 -0.1298 -0.0282 -0.0950
 8070W        W23964  13.684  18.021   0.527  0.4499 -0.0963 -0.2627
 8071W        W23965  14.853   4.659  13.461 -0.0067  0.0577 -0.4492
 8072W        W23966   7.787   7.265  11.040 -0.3230 -0.0911  0.2017
 8073W        W23967  13.067   8.114   0.173  0.0093  0.0174 -0.1076
 8074W        W23968   5.458   8.880   2.288 -0.2072 -0.2398  0.1016
 8075W        W23969  18.036   4.828   3.549 -0.1327 -0.3631  0.0528
 8076W        W23970  14.906  16.006   3.683  0.0625 -0.2786  0.1389
 8077W        W23971  14.851  14.418   1.195  0.1746 -0.0235  0.1057
 8078W        W23972   7.903  18.361   5.074  0.0691  0.0682  0.1633
 8079W        W23973  15.771   7.673  13.363  0.2845 -0.0346  0.0346
 8080W        W23974  12.661  10.080   3.539 -0.1611  0.2564 -0.2291
 8081W        W23975  16.800   8.876   2.675  0.0511  0.2926 -0.2401
 8082W        W23976  16.980   6.288  12.549 -0.2969 -0.1810  0.0253
 8083W        W23977   8.302   0.580   2.064 -0.2609  0.3202 -0.2403
 8084W        W23978  13.548   3.991  13.738  0.2861  0.0137 -0.3843
 8085W        W23979   5.562  16.737  13.069  0.4168  0.1217 -0.1133
 8086W        W23980  13.719   9.563   3.925 -0.0970 -0.2030 -0.0105
 8087W        W23981  17.297  12.625   3.749  0.0649  0.0190 -0.2585
 8088W        W23982   1.596  15.537   3.590  0.1041  0.1677 -0.1881
 8089W        W23983   2.292   8.811  14.489 -0.0359 -0.0015 -0.0971
 8090W        W23984   6.359  10.503   4.385 -0.1762 -0.1949  0.3146
 8091W        W23985   2.681   4.374   1.588 -0.4242  0.0800  0.0355
 8092W        W23986  13.861  12.147  11.568  0.1343  0.0952  0.1705
 8093W        W23987  10.685  14.058  14.875  0.1418 -0.3893  0.3223
 8094W        W23988   9.701  10.324   4.051  0.0475 -0.0028  0.0712
 8095W        W23989  14.538  12.615  13.638  0.1968 -0.0885 -0.0405
 8096W        W23990   1.813  11.782  10.431 -0.2315 -0.0656  0.0851
 8097W        W23991  18.020  16.032  13.740 -0.3625 -0.5046 -0.2448
 8098W        W23992   0.723  17.786   1.103 -0.2373  0.1347  0.2354
 8099W        W23993   5.870  13.635   1.972  0.1725 -0.0130  0.2816
 8100W        W23994  15.711   9.577  12.395 -0.0106 -0.0821 -0.0288
 8101W        W23995  15.697   2.362  14.113  0.1122  0.0977  0.2692
 8102W        W23996  10.745  10.532   1.155  0.0662  0.0052 -0.0496
 8103W        W23997   2.246  18.155   3.969  0.0282  0.1598 -0.4322
 8104W        W23998  16.637   8.524   3.582  0.4786  0.1327  0.0448
 8105W        W23999  15.387   4.618  15.313 -0.0778 -0.2172 -0.1088
 8106W        W24000  15.767   4.838   0.474  0.0626  0.1575  0.1295
 8107W        W24001   7.010  10.017  10.880 -0.4147 -0.1832 -0.1066
 8108W        W24002  12.327  14.187  10.830  0.3421  0.0832  0.1247
 8109W        W24003  12.724  18.847  12.305  0.0589  0.1647 -0.0823
 8110W        W24004  18.374  13.224   2.908  0.2091  0.1673 -0.2251
 8111W        W24005   6.897   0.399  10.741  0.1695  0.0297 -0.1135
 8112W        W24006  17.279   2.217  12.960 -0.2688 -0.2351 -0.3103
 8113W        W24007   4.613  11.084   5.790 -0.0829 -0.2026  0.2285
 8114W        W24008  18.121  13.557  13.519 -0.1858 -0.0873 -0.1157
 8115W        W24009   7.290   9.768   4.369 -0.2127  0.3164 -0.0992
 8116W        W24010  13.695  17.065  13.951  0.3221  0.2110  0.0824
 8117W        W24011  18.036  14.293   1.234  0.1289  0.0271  0.0045
 8118W        W24012  13.537  10.839   0.271  0.3481 -0.1704  0.1301
 8119W        W24013   5.294   7.698  13.626  0.1104 -0.0430 -0.1072
 8120W        W24014  10.364  13.710  11.101  0.0858 -0.2124  0.1938
 8121W        W24015  16.491  18.107  13.165  0.2640 -0.1379  0.1711
 8122W        W24016  10.146   5.621   1.243  0.0358 -0.1417 -0.0638
 8123W        W24017   5.526   6.222   4.643  0.2799 -0.1265 -0.2921
 8124W        W24018   8.639  13.133  13.191 -0.0313 -0.2002 -0.0221
 8125W        W24019  14.675   0.789   1.386  0.0875  0.0632  0.0470
 8126W        W24020   9.184   3.804   3.881 -0.1398 -0.3815  0.1274
 8127W        W24021  14.506   8.209   1.674  0.0362 -0.6781  0.1780
 8128W        W24022  10.967  14.879   4.176 -0.1106  0.2472  0.0456
 8129W        W24023  12.743  16.031   3.414 -0.1999 -0.0335 -0.0541
 8130W        W24024  17.310  15.181  13.066 -0.0650  0.0820  0.1883
 8131W        W24025   9.584   0.190  10.970 -0.2693 -0.0507 -0.1789
 8132W        W24026  18.761  12.762  12.470  0.0113  0.2344 -0.0302
 8133W        W24027  12.886  16.896  12.642 -0.0962 -0.0977  0.1404
 8134W        W24028   7.582  17.538  13.418 -0.1356  0.1706 -0.1511
 8135W        W24029   2.552   9.491  13.649 -0.2995  0.0324 -0.4472
 8136W        W24030   2.733   6.729  11.722 -0.1174 -0.0227  0.1633
 8137W        W24031  16.216  15.250   4.523 -0.0750 -0.0546  0.2441
 8138W        W24032  12.276  17.063  11.879 -0.1785  0.1053  0.1896
 8139W        W24033  15.624   7.025  15.302 -0.0885  0.0192  0.3725
 8140W        W24034   9.046   0.791  13.909 -0.2825  0.4621 -0.0149
 8141W        W24035   6.307  17.373   3.518 -0.3599 -0.4041 -0.1654
 8142W        W24036  17.658   1.627  13.587  0.3247 -0.0792  0.1409
 8143W        W24037   7.677  16.384   2.035 -0.0200 -0.0505 -0.1338
 8144W        W24038   6.304   2.325  12.062 -0.0007  0.0008 -0.0853
 8145W        W24039  14.727  16.998   2.427 -0.2039 -0.0541  0.0596
 8146W        W24040  11.070   8.725  14.367  0.2848 -0.5454 -0.4070
 8147W        W24041   9.671  12.267  12.535 -0.2481 -0.1141  0.2575
 8148W        W24042   6.104  12.124  11.429  0.0521  0.0255  0.0621
 8149W        W24043  12.804  10.409  14.410 -0.2010 -0.0163 -0.5071
 8150W        W24044  11.961   9.314  12.582  0.0410  0.1388  0.0901
 8151W        W24045  13.883  12.429   3.615  0.0794 -0.3403  0.0279
 8152W        W24046   7.072   6.669   0.812 -0.2547 -0.0425 -0.0775
 8153W        W24047   3.373   6.768   4.577  0.0326 -0.1372  0.5132
 8154W        W24048   5.035   1.539  12.136 -0.2157  0.0452  0.0702
 8155W        W24049   7.086   4.101   0.254 -0.1666 -0.1852  0.1130
 8156W        W24050   3.611   1.417   4.736 -0.0442 -0.0971 -0.1209
 8157W        W24051   5.303   5.091   2.069  0.1493 -0.2837  0.1531
 8158W        W24052   0.208   0.220   3.068 -0.3206  0.0372 -0.2436
 8159W        W24053  16.110   1.157  15.075 -0.0326  0.2043  0.1525
 8160W        W24054  10.852  15.916  11.972  0.1421  0.0552 -0.3291
 8161W        W24055  17.453   4.753  10.679 -0.0009  0.2388 -0.3747
 8162W        W24056   8.668  12.394   1.515  0.0807  0.4290 -0.0863
 8163W        W24057  17.727  13.584   2.495  0.2697 -0.0013  0.3486
 8164W        W24058  14.670  16.965   0.583 -0.1716  0.1867 -0.0473
 8165W        W24059  15.731   1.427  14.255 -0.0808 -0.2900 -0.0751
 8166W        W24060   7.189  11.404  10.886  0.1143 -0.2005 -0.0335
 8167W        W24061  14.155   3.107   2.259  0.2171 -0.1047 -0.2171
 8168W        W24062  11.973  18.472  13.320  0.0403 -0.3071 -0.0147
 8169W        W24063  10.898  11.782  15.181  0.1674  0.1511 -0.1202
 8170W        W24064   0.618  11.226   1.953 -0.1653 -0.2786  0.0755
 8171W        W24065   0.843   3.865  13.192 -0.0922 -0.0970 -0.1009
 8172W        W24066  12.555  15.951   1.140  0.0145  0.1629  0.0465
 8173W        W24067  15.033   3.801   3.621 -0.2688 -0.0580  0.2300
 8174W        W24068  15.986   4.713   0.917 -0.1310 -0.1618  0.0245
 8175W        W24069  10.694  13.583  12.503 -0.0418 -0.0629  0.0795
 8176W        W24070  15.657   6.723  14.777  0.1729 -0.2971 -0.1785
 8177W        W24071  11.762  10.575   1.778  0.0326 -0.2484  0.0047
 8178W        W24072  13.328  17.447   4.675  0.0004 -0.0379 -0.1208
 8179W        W24073  11.998   1.869   3.825 -0.0995 -0.1095 -0.3659
 8180W        W24074  11.508  10.980   3.641 -0.0474 -0.0336  0.1414
 8181W        W24075   7.306  13.550   1.741  0.1450  0.0113  0.0804
 8182W        W24076   9.360  17.395  14.550 -0.3071 -0.0061  0.1553
 8183W        W24077  14.456   3.506   5.286 -0.1512  0.1691  0.1305
 8184W        W24078  12.051  13.555  13.742  0.2491 -0.0110  0.1167
 8185W        W24079  18.172   3.942   1.599 -0.3529  0.1772  0.2170
 8186W        W24080   6.285  15.935   4.908 -0.4984 -0.2207 -0.0447
 8187W        W24081  16.192   2.291  13.352  0.1957 -0.0678 -0.1904
 8188W        W24082  17.945   3.647  14.797 -0.1420  0.0757  0.0863
 8189W        W24083   6.881  15.683   3.886 -0.0825 -0.3563  0.2731
 8190W        W24084  16.210   6.134   3.822 -0.0657 -0.0644  0.0675
 8191W        W24085  10.063  17.341   3.191  0.0623  0.1406 -0.0053
 8192W        W24086   9.069   2.211   0.451 -0.3851  0.0425 -0.1572
 8193W        W24087  16.041  12.361  14.869  0.2900 -0.0480 -0.4993
 8194W        W24088   6.540  11.913  14.783  0.0311  0.3240 -0.0212
 8195W        W24089  15.480   7.425   2.744 -0.2567  0.1091 -0.3910
 8196W        W24090  17.755  17.675   3.452  0.3153  0.1659  0.1234
 8197W        W24091  17.169  17.580   4.965 -0.3277  0.1360  0.2614
 8198W        W24092   2.151  10.686  11.296 -0.2832 -0.0653 -0.1126
 8199W        W24093  14.754   1.289   4.109  0.1287  0.0375 -0.1940
 8200W        W24094   9.762   2.552   2.984 -0.0669 -0.3073 -0.1162
 8201W        W24095  14.306  16.845   0.308  0.4015 -0.2454 -0.0378
 8202W        W24096   4.566  18.408   1.353 -0.2400 -0.0080  0.1071
 8203W        W24097   5.410   2.724  11.680  0.0847 -0.2020 -0.1515
 8204W        W24098  13.317   0.364   5.037  0.2317 -0.1088  0.2112
 8205W        W24099  16.260   5.494   4.111  0.0807  0.1863 -0.0772
 8206W        W24100   6.242  18.493   1.712  0.2980  0.0669  0.1076
 8207W        W24101   9.928  13.084  11.877 -0.2188 -0.0740  0.1818
 8208W        W24102   3.664  13.079   5.287 -0.2577  0.1321  0.1069
 8209W        W24103  15.595  10.399   0.901 -0.0598 -0.1445  0.1158
 8210W        W24104   7.835   4.760   2.308 -0.0277  0.0095  0.0823
 8211W        W24105  17.357  13.859   0.081  0.1319 -0.0466  0.0850
 8212W        W24106  16.838  11.878  15.128 -0.0381  0.0976 -0.0875
 8213W        W24107   2.151   4.571  10.875  0.1805  0.0619  0.1125
 8214W        W24108  17.447   6.644   2.028  0.2266 -0.3050  0.1740
 8215W        W24109  13.261  11.038   1.873 -0.2699  0.0637  0.1040
 8216W        W24110   0.464   6.913   4.303  0.4235  0.0923  0.3339
 8217W        W24111   9.601  12.813   5.849 -0.1246  0.5193  0.1679
 8218W        W24112  12.431   4.574  13.823  0.1427  0.2559  0.3249
 8219W        W24113   9.998   6.426   1.717 -0.4012  0.3122 -0.1829
 8220W        W24114  17.798   1.831   3.977 -0.0105  0.1241 -0.2976
 8221W        W24115  10.992  10.925   5.132  0.0726  0.1047 -0.0561
 8222W        W24116  16.215   0.000   3.780  0.1387 -0.1286 -0.1965
 8223W        W24117  15.928  16.756  12.217 -0.0074 -0.0016  0.0113
 8224W        W24118  15.706  12.377   1.926  0.1407  0.1851  0.2422
 8225W        W24119   3.226  15.420  14.165  0.4486  0.2664 -0.0542
 8226W        W24120  16.625   3.399  11.425 -0.3298 -0.1941  0.2926
 8227W        W24121   4.013  14.620  14.706  0.1410  0.3222 -0.2031
 8228W        W24122   9.965  17.215  11.943 -0.0529 -0.2348  0.3457
 8229W        W24123   5.934  17.067  10.677 -0.0632  0.2594  0.0528
 8230W        W24124  17.188   6.064   1.391 -0.1460 -0.0102  0.2395
 8231W        W24125   8.241   2.613  14.445 -0.1681 -0.1077 -0.1278
 8232W        W24126   9.134  12.721   3.824  0.1346  0.2104  0.1607
 8233W        W24127   0.614   2.782   1.224  0.0434 -0.1896 -0.0599
 8234W        W24128   3.522   1.244  14.117 -0.1289  0.0331 -0.0643
 8235W        W24129  18.193   4.567  14.293  0.0387 -0.0265 -0.0553
 8236W        W24130   1.891  17.552   3.308 -0.2000 -0.1223  0.0806
 8237W        W24131   4.766   9.309   3.332 -0.2618 -0.0165 -0.0909
 8238W        W24132   3.069  10.948  11.476  0.3266  0.0274 -0.1873
 8239W        W24133   6.932   8.340  12.799 -0.0812  0.0863 -0.2791
 8240W        W24134  10.679  15.023  11.208  0.2264 -0.0820  0.4183
 8241W        W24135  13.477   7.146  11.625 -0.1836  0.1960  0.2440
 8242W        W24136  11.977  12.350   9.772 -0.0261  0.1649  0.0054
 8243W        W24137  11.262   3.893   6.001 -0.0117  0.2396  0.0974
 8244W        W24138  14.905  15.169  12.239 -0.1283 -0.2812 -0.4534
 8245W        W24139  17.197   3.829   0.708 -0.2054 -0.2818  0.2228
 8246W        W24140  15.334  12.942   3.377  0.0512 -0.1180  0.1830
 8247W        W24141  12.233   0.311  11.237  0.2397  0.2783  0.1329
 8248W        W24142  10.296   1.613   2.538  0.0143 -0.0905  0.0580
 8249W        W24143   0.136  16.489   2.194  0.3871 -0.0548  0.0331
 8250W        W24144  15.999   7.135  14.838  0.3862  0.1639  0.3676
 8251W        W24145  11.150   9.376  13.306  0.0357  0.1328 -0.0564
 8252W        W24146  15.153   0.705   1.071  0.1955  0.0496 -0.1516
 8253W        W24147   1.688  14.463   1.198  0.1305  0.0008 -0.1881
 8254W        W24148   1.608  12.270  14.126  0.3179  0.2262 -0.0131
 8255W        W24149  14.391  17.154  11.683  0.0776 -0.2344 -0.1427
 8256W        W24150  17.005   0.410   3.060 -0.2945  0.2683 -0.1301
 8257W        W24151  14.373  15.509  14.571 -0.0752 -0.0936 -0.0921
 8258W        W24152   2.988   0.899   0.012 -0.3959  0.0396 -0.0408
 8259W        W24153  10.500  10.861  14.242 -0.0658  0.0759 -0.2286
 8260W        W24154   6.896  13.216   4.472 -0.2203 -0.1707  0.0525
 8261W        W24155   8.111   1.966   3.453 -0.4003  0.1712  0.1985
 8262W        W24156   2.113  11.217  14.628 -0.1593  0.2190  0.0299
 8263W        W24157  18.424   5.263  10.345 -0.0060  0.0748 -0.0845
 8264W        W24158   7.580   7.587   3.889 -0.1163  0.0567  0.3138
 8265W        W24159  12.442  15.748   0.487 -0.2133  0.3178 -0.2269
 8266W        W24160   1.624   4.885   1.767  0.0950 -0.0543  0.2552
 8267W        W24161   8.639  14.783   1.785 -0.2308 -0.0737  0.0863
 8268W        W24162   3.574  10.137  14.652  0.0314 -0.2204  0.1269
 8269W        W24163   8.055  17.731   2.538 -0.1188 -0.1866  0.1358
 8270W        W24164   9.350   6.455   3.978 -0.2176  0.1304 -0.1834
 8271W        W24165   9.840   9.555  12.094  0.2467  0.0552  0.0863
 8272W        W24166   2.814  10.836   1.007  0.1264 -0.0166 -0.0081
 8273W        W24167  15.502  16.312  12.183  0.0427 -0.1146 -0.0563
 8274W        W24168  15.164   5.096   4.873 -0.2876  0.1360 -0.0363
 8275W        W24169   5.976  16.209   0.741 -0.3803 -0.1902  0.2356
 8276W        W24170  14.852  18.345   0.554  0.2465  0.3520  0.1177
 8277W        W24171   5.446  15.821   1.394  0.3849 -0.0268  0.2911
 8278W        W24172   7.855   4.871   1.150 -0.4275  0.2091  0.1468
 8279W        W24173  13.544  12.592  12.671  0.2798  0.0700 -0.4193
 8280W        W24174   8.283  15.860   2.514 -0.0390 -0.0598 -0.0118
 8281W        W24175   5.817  12.379   4.037 -0.0488 -0.0832  0.2217
 8282W        W24176   0.267   3.661  15.322  0.0611  0.1847  0.0071
 8283W        W24177   5.358  13.271  14.714  0.1922  0.0856  0.0751
 8284W        W24178  14.206  12.328  14.943  0.2565 -0.0815  0.5063
 8285W        W24179   4.757  15.992   1.739  0.2047  0.1378  0.0832
 8286W        W24180   6.795   8.872   1.248  0.1786 -0.3420 -0.1556
 8287W        W24181  16.904  13.672   2.162 -0.1727 -0.2815 -0.1491
 8288W        W24182  12.831   1.486  11.403  0.1874 -0.1783  0.1887
 8289W        W24183  15.089   8.528   5.775  0.1084 -0.1449  0.1010
 8290W        W24184   7.325   9.188  13.393  0.2607  0.2935 -0.1274
 8291W        W24185  16.595   5.499   5.099  0.3006  0.4728 -0.0941
 8292W        W24186   8.010   0.968   0.581 -0.0680 -0.0780  0.0950
 8293W        W24187   0.357   2.761  13.706  0.3010  0.1491 -0.1160
 8294W        W24188  13.852   9.803   2.982  0.4225  0.2436  0.0013
 8295W        W24189   1.990   6.163  10.799  0.2258 -0.0312 -0.1989
 8296W        W24190   8.309   8.331   2.935  0.0683  0.0374  0.2438
 8297W        W24191   2.921   6.906  15.468 -0.1744 -0.0642  0.2300
 8298W        W24192   9.457   4.152   0.715 -0.3088 -0.1138 -0.0524
 8299W        W24193   1.654   0.310   2.496  0.1451  0.0544 -0.1354
 8300W        W24194   9.209   8.184   4.672  0.1829  0.1951  0.0502
 8301W        W24195   5.718  17.190   0.662  0.0070 -0.1780  0.1380
 8302W        W24196   6.241   6.616   4.132 -0.1356 -0.0370  0.3134
 8303W        W24197   9.950  12.079   1.570  0.0924 -0.1097 -0.0997
 8304W        W24198  10.539   7.136  11.922  0.1071 -0.0570  0.0035
 8305W        W24199  16.222   4.489  11.112 -0.3014 -0.0159 -0.0017
 8306W        W24200  17.761   5.821   3.140  0.0983 -0.0198 -0.1164
 8307W        W24201  17.416   1.201   0.520  0.0492 -0.1470  0.0423
 8308W        W24202  12.133   6.799  14.453  0.1613  0.2226  0.0459
 8309W        W24203  17.835  17.330   2.420 -0.0015 -0.2292 -0.0007
 8310W        W24204  15.908   6.517   1.068  0.1673 -0.1328  0.0680
 8311W        W24205   7.040   8.073  15.277 -0.1485 -0.0747 -0.0019
 8312W        W24206  13.325  16.323   2.350 -0.0016  0.2111  0.0435
 8313W        W24207  11.944  18.752   3.878  0.0118  0.1297  0.0324
 8314W        W24208   7.881  18.303   1.620  0.2056  0.1123  0.1182
 8315W        W24209   2.666   1.910  14.872  0.0272 -0.1465 -0.1615
 8316W        W24210  16.475  11.236  13.373  0.0059 -0.2078  0.2366
 8317W        W24211  17.416   3.913  13.394 -0.0471  0.0189  0.0802
 8318W        W24212   8.255  11.791  15.442  0.1002  0.1809  0.0069
 8319W        W24213  12.851   9.798   2.981  0.0633  0.2689 -0.1095
 8320W        W24214  10.335   5.306   1.579  0.3204  0.2586  0.1864
 8321W        W24215  17.467  16.995  12.032 -0.0258 -0.0274  0.2013
 8322W        W24216  10.351   4.748   2.887  0.4620 -0.3316  0.2788
 8323W        W24217   7.006   4.414  14.214 -0.1219 -0.1595 -0.1213
 8324W        W24218  13.333   7.367  10.524  0.0710 -0.0005  0.1680
 8325W        W24219   4.500  13.752  12.122 -0.0040 -0.3187  0.4380
 8326W        W24220   5.768  12.911   3.334  0.2507  0.1138  0.1473
 8327W        W24221   2.014   7.796   3.879  0.0637 -0.2542  0.3167
 8328W        W24222  10.654  17.785   3.944  0.2736 -0.1242  0.0738
 8329W        W24223   7.802  14.381   0.894 -0.3068 -0.1771 -0.0363
 8330W        W24224   4.793  10.818   0.081 -0.0155  0.3526  0.1261
 8331W        W24225  16.425   0.226   1.995  0.2965 -0.2019  0.3593
 8332W        W24226   0.202   9.210  11.728 -0.0265 -0.1133  0.3054
 8333W        W24227  10.565  15.765  14.315  0.1297 -0.0535  0.1104
 8334W        W24228   0.627   0.230  15.225 -0.2737  0.1525 -0.2751
 8335W        W24229   0.520  15.385   1.967  0.0159  0.0227 -0.2757
 8336W        W24230  11.170   0.532  11.571  0.2799 -0.2162 -0.3640
 8337W        W24231  15.888   6.721   1.572  0.2153 -0.2558  0.1062
 8338W        W24232  12.159  13.778   1.513 -0.2658 -0.1702 -0.0627
 8339W        W24233   3.906  12.375  14.668  0.2917 -0.3522 -0.1080
 8340W        W24234  16.014  10.489  14.864  0.4343 -0.0382  0.0262
 8341W        W24235   1.822   4.879  15.286 -0.1886 -0.4027 -0.1724
 8342W        W24236   8.632  17.007   4.962 -0.0260 -0.0719  0.2144
 8343W        W24237   1.231  16.978  12.787 -0.0320 -0.0679 -0.1481
 8344W        W24238  15.357   9.568   4.666 -0.0395  0.1110  0.0612
 8345W        W24239  18.370   5.225   2.765 -0.2374  0.0889 -0.1631
 8346W        W24240  10.852   1.717  11.481 -0.0298  0.1634  0.2935
 8347W        W24241  17.818   4.465  11.975 -0.0792  0.2754  0.0750
 8348W        W24242   0.211  12.659   1.906 -0.0799  0.0020  0.0682
 8349W        W24243  17.488  18.057   4.890 -0.0282  0.3002  0.1216
 8350W        W24244  12.853  14.922  15.295 -0.1008  0.0972 -0.0224
 8351W        W24245  16.169  13.719   4.002 -0.2661  0.1583  0.3631
 8352W        W24246  18.486   4.463   0.731  0.0278  0.0271  0.3235
 8353W        W24247   7.960  10.557  15.220 -0.1507 -0.1963  0.0321
 8354W        W24248  15.406  17.914  11.978 -0.2043  0.1484 -0.1656
 8355W        W24249   9.498   5.265   3.048  0.1364  0.2411  0.1700
 8356W        W24250  17.916  12.442  10.480  0.2779  0.1007 -0.0183
 8357W        W24251   7.702   5.022  10.874  0.2578 -0.0262 -0.1070
 8358W        W24252   3.491  18.715  14.492  0.0569  0.3139 -0.1657
 8359W        W24253   4.067   0.530  14.210  0.0291 -0.0994 -0.0929
 8360W        W24254  14.498   4.824  11.469  0.2665  0.1520 -0.2161
 8361W        W24255  14.542  17.119  13.492  0.1941 -0.1436  0.0092
 8362W        W24256  18.021   3.866   2.514  0.0403 -0.1149  0.0376
 8363W        W24257  13.837   4.479   1.647  0.1710  0.4154 -0.1168
 8364W        W24258  11.865  15.582  13.843 -0.0988 -0.2272  0.0623
 8365W        W24259  18.222  16.603   0.989  0.1438  0.3841 -0.2544
 8366W        W24260  17.729   9.656  14.811  0.0112 -0.0447  0.0029
 8367W        W24261   7.092  13.092  12.983  0.2151  0.2426  0.0765
 8368W        W24262   9.662  10.044  15.272 -0.1466 -0.1783  0.0890
 8369W        W24263   7.880  10.924   0.190 -0.0915  0.2385 -0.1644
 8370W        W24264   7.606  10.399  12.782  0.0455  0.2992  0.1582
 8371W        W24265  12.896   3.878  11.660  0.1099  0.1544  0.1298
 8372W        W24266   1.118  12.308   3.222  0.0408  0.2403 -0.0196
 8373W        W24267  12.698  12.645  10.951 -0.1513  0.1144  0.1765
 8374W        W24268  11.862   6.300   4.880 -0.2080 -0.4252 -0.0070
 8375W        W24269   2.696  16.153  15.019  0.2475 -0.1003 -0.0687
 8376W        W24270   2.876   9.903  10.525  0.0097 -0.0279 -0.3446
 8377W        W24271  17.914   6.964   0.943 -0.1611  0.3361 -0.0439
 8378W        W24272  10.119  16.894   1.312 -0.1258 -0.0340  0.0782
 8379W        W24273  14.945   7.979  10.697 -0.0352 -0.1110 -0.2191
 8380W        W24274  12.548  14.992   0.982  0.0751  0.0422  0.0033
 8381W        W24275   3.620  18.061   1.202 -0.4051  0.0484 -0.2714
 8382W        W24276  14.478  14.976   5.314  0.2228  0.0253  0.0824
 8383W        W24277   2.453  10.027  12.456 -0.2229  0.3232 -0.2688
 8384W        W24278   7.247   6.498   5.328  0.1257 -0.1702 -0.1335
 8385W        W24279   5.795  11.645  13.187  0.0192  0.1732  0.2732
 8386W        W24280   6.411  10.138  13.988  0.3404 -0.0602 -0.3410
 8387W        W24281  18.178   6.677   2.148 -0.1162  0.0640  0.0520
 8388W        W24282  11.599   5.015  13.548 -0.0895 -0.0063  0.1397
 8389W        W24283  11.916  10.400   9.781 -0.3225 -0.5169 -0.4174
 8390W        W24284  16.351  10.212  12.202 -0.2791 -0.0790  0.0648
 8391W        W24285   5.695  16.201  14.963 -0.1071 -0.1189  0.0531
 8392W        W24286  17.089   2.061   2.628  0.2117 -0.0609  0.3152
 8393W        W24287   3.945  11.563   5.959  0.2052 -0.1132 -0.2732
 8394W        W24288   7.882   0.953   3.402 -0.2105  0.1883  0.1196
 8395W        W24289   9.997   9.605   3.691 -0.0086 -0.2981  0.2304
 8396W        W24290   2.721  10.485   1.292  0.0069  0.0259 -0.1593
 8397W        W24291   5.772   4.556   1.543  0.0725 -0.1221  0.2173
 8398W        W24292  17.905  11.439   2.068 -0.1522  0.1647 -0.2923
 8399W        W24293  15.299   2.048   1.746 -0.1133 -0.4926  0.0106
 8400W        W24294   5.338  13.014  13.841  0.1747  0.0716  0.2319
 8401W        W24295   4.446   6.854   0.234  0.2046  0.0713 -0.2980
 8402W        W24296   2.592  10.996  14.781  0.1268  0.3448 -0.0065
 8403W        W24297   7.038  15.448   2.480 -0.0499 -0.0565 -0.2477
 8404W        W24298   3.511   2.567   1.547 -0.2231  0.0827 -0.2421
 8405W        W24299   7.639   7.216  13.490  0.0647 -0.0225  0.0218
 8406W        W24300  11.452   1.230  10.081  0.1548  0.0484  0.1695
 8407W        W24301   9.932  11.830  15.347 -0.1834 -0.3409 -0.2471
 8408W        W24302   0.951  12.864   3.156 -0.1797  0.2492  0.0265
 8409W        W24303  11.835  16.267  11.865 -0.2095  0.0135  0.0777
 8410W        W24304   1.882  17.978  12.424 -0.1072  0.0410  0.2380
 8411W        W24305  17.569  12.937   1.438  0.0860 -0.0418  0.0254
 8412W        W24306   9.438   9.997   0.989  0.0159  0.0495  0.0857
 8413W        W24307   7.023  16.505   3.411 -0.0250  0.2370 -0.3272
 8414W        W24308   0.243  16.257  14.901 -0.2413 -0.2271 -0.1156
 8415W        W24309  10.705  13.387  13.012  0.3630  0.0514  0.2950
 8416W        W24310  10.210  16.042   5.208  0.0070 -0.2407  0.0561
 8417W        W24311   4.809  13.924  13.581  0.1891 -0.1654 -0.2392
 8418W        W24312  18.126  10.330   3.639 -0.0903  0.2335  0.0297
 8419W        W24313  11.472  11.154  13.927  0.1853  0.1892  0.0715
 8420W        W24314  13.495  14.231   2.066  0.2785  0.0853 -0.0388
 8421W        W24315   6.540   0.644  11.075  0.1869 -0.2959  0.0187
 8422W        W24316   0.165   4.821   0.362  0.1057  0.0071  0.1962
 8423W        W24317   6.707   8.449   2.191 -0.0385  0.0362 -0.0255
 8424W        W24318   0.065  13.703  14.502  0.2868 -0.0971  0.2145
 8425W        W24319  15.159   8.325   4.916  0.1207  0.2336  0.2014
 8426W        W24320   7.055   0.370  11.784 -0.3125 -0.1341  0.1456
 8427W        W24321   2.974  10.814   1.585 -0.0416  0.0323 -0.1080
 8428W        W24322  14.396   6.769  10.760 -0.2155 -0.0375  0.0024
 8429W        W24323  18.401   1.169   4.498 -0.2834 -0.1541  0.0582
 8430W        W24324   2.367  15.734  14.239 -0.0896 -0.0397  0.0935
 8431W        W24325   4.030   3.371  13.343 -0.1534 -0.1227 -0.1496
 8432W        W24326  18.467  17.847   2.940 -0.2421 -0.2729 -0.2631
 8433W        W24327  14.269   3.098  11.914  0.3237 -0.1178 -0.0184
 8434W        W24328   0.781  18.538  11.231  0.1048  0.0662  0.0180
 8435W        W24329   3.382  12.216  12.774 -0.0659 -0.0284  0.1417
 8436W        W24330  18.132   1.625   2.109  0.4242  0.4431 -0.2427
 8437W        W24331   2.110   3.135   3.500  0.3339  0.2245 -0.0342
 8438W        W24332   9.986  12.083   3.765  0.0677  0.2758 -0.0416
 8439W        W24333  10.435  18.539   3.732  0.2111  0.1640  0.0678
 8440W        W24334  15.704  12.637  12.613  0.0336 -0.2287 -0.3541
 8441W        W24335   8.914   1.147  13.272  0.0373 -0.2005  0.1433
 8442W        W24336   4.990  10.970  14.860  0.2813 -0.1695  0.0016
 8443W        W24337   3.263  13.864   0.295  0.1112 -0.2365 -0.0477
 8444W        W24338  12.163  13.026  14.958 -0.1402 -0.0757  0.2118
 8445W        W24339   4.551   5.047   2.841  0.0870  0.0918  0.1024
 8446W        W24340   2.252   7.416   1.106  0.3397 -0.2594 -0.1420
 8447W        W24341   0.010  15.306   1.994 -0.1068 -0.3023  0.3069
 8448W        W24342  10.261   9.011   0.261  0.1820  0.2993 -0.2288
 8449W        W24343   2.775   0.906  13.556 -0.2369 -0.0647  0.1892
 8450W        W24344   2.614   7.611  11.149  0.6121 -0.1117 -0.0623
 8451W        W24345   4.562  16.333   2.910 -0.4736 -0.0434 -0.0008
 8452W        W24346   0.928   3.766   2.007  0.1676  0.1215 -0.0168
 8453W        W24347  18.077  18.092   3.586  0.1665 -0.1049  0.3084
 8454W        W24348   1.253  15.972  14.758 -0.2167  0.0007 -0.0555
 8455W        W24349  18.736  18.014  14.118  0.2425 -0.1331  0.1581
 8456W        W24350   2.220  13.719   4.372  0.3351 -0.0074  0.0653
 8457W        W24351  12.857   5.354  13.835  0.0437  0.0763 -0.1752
 8458W        W24352  13.860  16.053   0.200 -0.0649 -0.3779  0.0603
 8459W        W24353  13.988   0.051  13.076 -0.1720 -0.0534 -0.1723
 8460W        W24354   3.596  16.979  12.625 -0.0881 -0.2895  0.2066
 8461W        W24355   6.974  15.981   2.548 -0.2491  0.0996  0.2240
 8462W        W24356  11.941  11.503   0.336  0.2575  0.1921  0.2113
 8463W        W24357  16.126   7.005   5.525  0.0168  0.2359  0.0174
 8464W        W24358  14.506   3.143  12.375  0.1162 -0.1419 -0.3402
 8465W        W24359   7.873   3.388  14.093 -0.1918 -0.1051  0.1950
 8466W        W24360  10.443   8.939   3.462 -0.0084  0.0782 -0.0306
 8467W        W24361   0.187   3.174  15.086 -0.2194  0.2391 -0.0486
 8468W        W24362  17.633   3.978  12.146  0.2195  0.2340  0.2398
 8469W        W24363   7.890  16.635  13.457 -0.0061 -0.1567  0.1093
 8470W        W24364   3.425  16.588  12.860  0.2028 -0.1842  0.1963
 8471W        W24365  16.344  14.447  11.837  0.1314  0.2431 -0.3299
 8472W        W24366  18.524  10.912   0.016 -0.2321  0.0736  0.1994
 8473W        W24367  16.318  18.560   1.915 -0.0166  0.0474  0.1013
 8474W        W24368  11.737   8.083   3.572  0.0669  0.3283  0.2347
 8475W        W24369  11.248   5.602   4.928 -0.2955 -0.1136  0.0502
 8476W        W24370   9.136  15.889  11.715  0.1775 -0.0238 -0.0551
 8477W        W24371   6.031  18.064   4.951 -0.0110  0.2447  0.0509
 8478W        W24372   5.747  16.652   2.167 -0.3173 -0.0496  0.1050
 8479W        W24373  15.504  15.034   2.456  0.1084 -0.2003 -0.0646
 8480W        W24374  14.043  12.992  11.823  0.1467 -0.0006 -0.0494
 8481W        W24375   2.665  10.585  15.086 -0.1081 -0.0278 -0.4161
 8482W        W24376   6.659   2.176   0.902  0.1161 -0.0154  0.1623
 8483W        W24377  10.378   5.678   1.858  0.3673 -0.1102 -0.3874
 8484W        W24378   4.473   9.453   2.771 -0.2788 -0.1829  0.3281
 8485W        W24379   0.458   7.318  13.065 -0.1356 -0.0312 -0.1504
 8486W        W24380  10.134  16.050   0.941 -0.0917  0.0189  0.2027
 8487W        W24381  13.420  16.569  13.890 -0.4065  0.0375 -0.1498
 8488W        W24382  16.921   5.688   4.760 -0.3170  0.0051 -0.0186
 8489W        W24383   2.039  14.847   2.658 -0.0277 -0.0183  0.1183
 8490W        W24384   1.913  10.698  13.071  0.0095 -0.0397  0.3786
 8491W        W24385   6.623   6.605  11.837  0.3054 -0.0215 -0.3565
 8492W        W24386   9.835   7.088   4.619 -0.1029  0.1353  0.0902
 8493W        W24387  17.709   3.517  11.763 -0.2227 -0.0653  0.0326
 8494W        W24388  15.555   8.563  15.278  0.0515  0.0944  0.3388
 8495W        W24389   5.924   3.589  11.332  0.4269  0.2229  0.1181
 8496W        W24390   1.389   0.518  13.546  0.0831 -0.4176 -0.2360
 8497W        W24391   7.048  12.487   2.554 -0.0436 -0.0876 -0.0794
 8498W        W24392  13.198   5.528  12.966  0.2973 -0.1711  0.0288
 8499W        W24393   0.533  13.030  15.123  0.2107 -0.2309 -0.1167
 8500W        W24394  10.645   3.666   1.910 -0.5374 -0.0359 -0.0313
 8501W        W24395  12.533  14.571   0.659  0.0115  0.3182  0.2576
 8502W        W24396   3.461   5.096   4.771 -0.2980 -0.1516  0.0347
 8503W        W24397  18.816   0.904  14.073 -0.0010 -0.0085  0.3861
 8504W        W24398  11.493  14.779   1.665 -0.1542  0.0631 -0.2106
 8505W        W24399   0.031  17.451  12.978 -0.0349 -0.1834  0.0533
 8506W        W24400  11.677  10.924  14.333 -0.1334  0.1111  0.0261
 8507W        W24401   3.026  12.374   5.167 -0.3456 -0.0387  0.1368
 8508W        W24402   5.271  12.422  14.396  0.0872  0.0279  0.1553
 8509W        W24403   5.637   2.279  11.847 -0.0085  0.0597 -0.0192
 8510W        W24404  10.757  11.739   1.758  0.2130 -0.0521  0.0705
 8511W        W24405  15.896   0.238  11.697 -0.0080  0.3007 -0.0763
 8512W        W24406  13.804   3.121  10.829 -0.1000 -0.0697  0.1732
 8513W        W24407  13.058   2.053   1.191  0.0049  0.1719 -0.0711
 8514W        W24408   3.195   5.709   0.332 -0.0470 -0.1546  0.3626
 8515W        W24409  10.248   2.470   3.106  0.2804 -0.0214 -0.0795
 8516W        W24410   9.056  16.604  14.972 -0.0783  0.3205  0.1337
 8517W        W24411  10.814   0.578   4.841  0.2732 -0.0741  0.2496
 8518W        W24412   8.188  13.633  11.368 -0.2481  0.2390 -0.0479
 8519W        W24413   4.192  11.837   0.541  0.5560 -0.1040  0.1356
 8520W        W24414   7.267   3.382  14.646  0.1140  0.1557  0.3301
 8521W        W24415  16.765   0.001   1.724 -0.0883  0.1760  0.1989
 8522W        W24416  11.857   0.218  11.978 -0.0869 -0.2142  0.0573
 8523W        W24417   7.670   8.558  14.147 -0.0261  0.3166  0.1681
 8524W        W24418   3.142  17.168  11.989  0.1688 -0.0683 -0.1820
 8525W        W24419   5.403   7.745  14.181 -0.2052 -0.0680 -0.2431
 8526W        W24420  12.688   2.496  13.799 -0.0704  0.0369 -0.3439
 8527W        W24421  14.498  13.200   3.456  0.0222  0.3416 -0.2144
 8528W        W24422   5.124   5.277   0.626  0.2661  0.2246 -0.1034
 8529W        W24423  12.601  10.805   2.264  0.1575  0.0923 -0.0969
 8530W        W24424   5.229  18.185  12.667 -0.0232  0.2755  0.1870
 8531W        W24425   6.295   3.641   0.813  0.0181 -0.5455 -0.3202
 8532W        W24426  18.255   0.296   2.917  0.1417  0.2223  0.0970
 8533W        W24427  11.842   5.185   2.485  0.1378 -0.4063  0.1058
 8534W        W24428   4.705  13.899   1.356 -0.0657 -0.2100  0.2123
 8535W        W24429  13.419   4.450   3.638  0.2133  0.3301  0.1858
 8536W        W24430   7.500   9.277   9.738 -0.2534  0.1578 -0.1237
 8537W        W24431   2.878  16.881   3.538  0.1551 -0.2428 -0.1094
 8538W        W24432   1.296   1.621   5.422 -0.1082 -0.0486 -0.1382
 8539W        W24433  15.975   9.380   3.998 -0.1610  0.1324  0.0380
 8540W        W24434   4.337  15.497   3.604 -0.2829  0.4493  0.2438
 8541W        W24435  11.809  12.214   2.584 -0.1915 -0.2165  0.1150
 8542W        W24436  15.216  11.881  13.754  0.1640 -0.0477  0.1143
 8543W        W24437  11.080  10.208  12.599 -0.0568 -0.1155  0.0235
 8544W        W24438  10.900   9.897  14.483 -0.2939  0.0501  0.0183
 8545W        W24439   0.666  17.665   2.781  0.1126 -0.1409  0.0851
 8546W        W24440   0.832   2.123  13.946  0.0374 -0.0530 -0.0344
 8547W        W24441   7.803  18.162  10.496  0.5685  0.2575 -0.0187
 8548W        W24442   7.669  14.494  14.494  0.0277 -0.0085  0.0443
 8549W        W24443   0.396   8.403   4.893 -0.0318 -0.3776 -0.3573
 8550W        W24444   3.442   1.885   0.027 -0.2583 -0.0249  0.1454
 8551W        W24445   4.232  16.980   1.066  0.0270  0.2114  0.1709
 8552W        W24446   2.597   7.108  13.392 -0.3521  0.4788  0.2524
 8553W        W24447   8.312  10.924  15.424  0.2468 -0.2120  0.0474
 8554W        W24448  11.990   4.691  14.024  0.2793  0.2119  0.0470
 8555W        W24449  16.460   3.165  10.957  0.3058  0.1120 -0.2740
 8556W        W24450  12.789   6.666   4.131  0.1178 -0.0006 -0.1684
 8557W        W24451   1.527  14.525   3.430  0.1946  0.1802  0.0656
 8558W        W24452  17.782   0.439   2.817 -0.1498 -0.1575 -0.1365
 8559W        W24453   3.701   2.279   2.874  0.0505  0.3866  0.0909
 8560W        W24454  16.916   8.873   1.826 -0.0058  0.0364 -0.4270
 8561W        W24455   3.609   1.255  12.774 -0.1161 -0.0188 -0.1302
 8562W        W24456   9.997   1.516  11.520  0.0392  0.0051 -0.2012
 8563W        W24457  11.372  17.980  11.066  0.6090 -0.1906 -0.1298
 8564W        W24458   0.798   3.059   4.781  0.0516  0.1363  0.3057
 8565W        W24459   9.720  15.422   2.767  0.3993 -0.1834  0.1838
 8566W        W24460  14.097   8.979  14.973  0.1589 -0.2833  0.1507
 8567W        W24461  10.574  11.605  10.970  0.2346 -0.0766  0.0153
 8568W        W24462   3.742  16.029  11.242 -0.1936 -0.3834 -0.1165
 8569W        W24463  11.758   2.997   1.045  0.2270 -0.0540  0.1834
 8570W        W24464   2.062   5.746   0.158  0.5777 -0.0206 -0.1880
 8571W        W24465   5.324   2.630   4.989  0.0128 -0.2229 -0.0528
 8572W        W24466   2.833  15.350   4.326  0.2932  0.0122  0.1457
 8573W        W24467  15.707  14.247   5.560  0.1605  0.2273  0.0763
 8574W        W24468   1.463   3.879   2.587 -0.1475  0.0428 -0.0335
 8575W        W24469  15.505  18.589   4.915  0.1294 -0.1515  0.0104
 8576W        W24470  18.004   0.358  11.625  0.1073 -0.1238 -0.1046
 8577W        W24471  14.776   0.363   1.578 -0.2717  0.0336 -0.2302
 8578W        W24472  12.717   0.206   4.762 -0.2448 -0.2990  0.2754
 8579W        W24473   6.678   3.815  12.025 -0.2809  0.0211  0.0338
 8580W        W24474   3.562  17.205   4.755 -0.1860  0.2706  0.0464
 8581W        W24475  12.302  17.687   5.818 -0.0538  0.1077  0.3702
 8582W        W24476  12.162  10.541   0.976 -0.2555 -0.1936  0.0817
 8583W        W24477   9.804   8.654  14.104 -0.0052  0.1564  0.2501
 8584W        W24478  12.627   9.297   4.206  0.1068  0.0672 -0.2869
 8585W        W24479   9.937   0.314   3.364  0.0394 -0.2261 -0.4237
 8586W        W24480  10.972  14.492   3.886 -0.0396 -0.0596  0.0109
 8587W        W24481   3.434  12.203   3.272 -0.0971 -0.0598  0.2239
 8588W        W24482   5.635   1.271   0.421 -0.0060 -0.2271 -0.1087
 8589W        W24483  13.256  13.190   2.146 -0.0362 -0.2918 -0.0430
 8590W        W24484   8.986   3.707  11.549  0.1072  0.0755  0.0175
 8591W        W24485   9.759  17.581   2.831 -0.0562 -0.0353 -0.2415
 8592W        W24486  12.976  14.581  13.353  0.1433 -0.1873  0.4401
 8593W        W24487   4.450  14.538   9.948 -0.0888 -0.1062 -0.1515
 8594W        W24488  16.866  16.426   1.035  0.1388  0.6134 -0.0415
 8595W        W24489  10.782   8.429  13.072  0.0866 -0.0354  0.1536
 8596W        W24490   5.990   1.186   0.787 -0.0859 -0.0674 -0.1764
 8597W        W24491  17.845   4.239  10.768  0.1142  0.0677 -0.2004
 8598W        W24492   7.129  17.344  13.657  0.2978  0.0206 -0.0160
 8599W        W24493  16.932  12.253   2.764 -0.0239  0.2585 -0.0941
 8600W        W24494  10.047  12.578   0.302 -0.0207  0.2040 -0.0833
 8601W        W24495  18.175  18.530  12.833 -0.1361 -0.0296  0.1323
 8602W        W24496  14.490   9.946   3.523  0.1827 -0.0910 -0.1339
 8603W        W24497  18.639  12.063  13.057 -0.2816 -0.0657 -0.1224
 8604W        W24498   5.013   8.201   1.516 -0.3298 -0.1691  0.1139
 8605W        W24499   6.507   1.805  13.423  0.1147 -0.1791 -0.1038
 8606W        W24500   3.775  17.455  12.797 -0.0894 -0.1354  0.0652
 8607W        W24501  12.213  11.986   0.264 -0.1058  0.2698  0.3297
 8608W        W24502   5.860  15.340  14.703 -0.0080 -0.1154  0.3598
 8609W        W24503   7.239   0.185   4.415  0.2956  0.0134 -0.2928
 8610W        W24504   4.612   0.717   2.572 -0.0949  0.6870 -0.4058
 8611W        W24505  14.174  11.905   2.440  0.1889  0.1071  0.4695
 8612W        W24506   0.323  18.685  15.351  0.1275  0.0363 -0.4693
 8613W        W24507   8.546   4.729   2.999  0.1896 -0.2993  0.0610
 8614W        W24508  11.074   1.816  12.105 -0.3307  0.1526 -0.1454
 8615W        W24509  14.012  10.026  11.337  0.2589  0.0390 -0.0232
 8616W        W24510   3.373  14.560   0.011  0.3448 -0.0821  0.0419
 8617W        W24511  12.651  11.620  10.909 -0.1280 -0.0204 -0.0634
 8618W        W24512   8.610   9.631   0.143 -0.0572  0.1878  0.0763
 8619W        W24513   7.708   7.003  12.706 -0.4093  0.1444 -0.0177
 8620W        W24514   4.630   0.271   0.864 -0.2447  0.1531 -0.0143
 8621W        W24515  17.182   8.311   4.558  0.2025  0.3943  0.0987
 8622W        W24516   5.958  17.838   5.710 -0.1482  0.0128 -0.2121
 8623W        W24517   7.422  17.808  12.490 -0.0120 -0.2810  0.0773
 8624W        W24518  13.535  16.190  11.888 -0.0815  0.0176 -0.1346
 8625W        W24519   5.670  16.993   4.554 -0.0360 -0.6118  0.2258
 8626W        W24520  13.358  14.234   5.734  0.0280 -0.1021 -0.0272
 8627W        W24521  10.597  11.364   4.159 -0.3008  0.1274 -0.2504
 8628W        W24522  10.441   1.257   3.713 -0.1181 -0.4120 -0.2243
 8629W        W24523   8.985  12.750   5.208  0.0446  0.0238 -0.0106
 8630W        W24524  13.244   4.729   2.194  0.1232  0.0661 -0.4668
 8631W        W24525  17.035   5.759   5.299  0.0975  0.0529 -0.0683
 8632W        W24526   7.638   3.254   3.526 -0.1802 -0.3025 -0.2756
 8633W        W24527  17.981   7.799  11.520 -0.2676  0.3297 -0.1397
 8634W        W24528   9.277  18.130   1.670  0.0137  0.1589 -0.2782
 8635W        W24529  10.802  14.587   4.902 -0.1526 -0.0437 -0.1308
 8636W        W24530   8.134  13.384   4.216  0.1224  0.2063  0.0367
 8637W        W24531   4.734   7.682  10.973  0.3062  0.1859 -0.2199
 8638W        W24532   3.309  14.996   1.749 -0.1283 -0.2694  0.3031
 8639W        W24533  15.201   5.048   2.617 -0.1194 -0.1382 -0.1756
 8640W        W24534   9.437   6.745  14.421 -0.2041  0.3680 -0.2904
 8641W        W24535   9.628  16.737   4.403  0.3117  0.0033  0.2787
 8642W        W24536  15.504   9.718   2.554 -0.0469  0.0773  0.0785
 8643W        W24537   5.045   7.659   0.577 -0.1169 -0.1201 -0.1528
 8644W        W24538  12.566   3.111   6.072  0.0932  0.1150  0.0423
 8645W        W24539   7.784  18.753  11.158  0.1869  0.2829 -0.0429
 8646W        W24540  18.252   3.218  11.647  0.1250  0.2594 -0.0987
 8647W        W24541  10.752  16.135  15.272  0.0951 -0.0509 -0.0185
 8648W        W24542   8.917   3.105  12.357 -0.2201  0.0287 -0.1058
 8649W        W24543  13.102  17.545   5.245 -0.1163  0.1428  0.0741
 8650W        W24544   1.697   3.383   2.493 -0.2063 -0.2425 -0.0141
 8651W        W24545   9.848  14.828  13.340 -0.0772  0.0812  0.3533
 8652W        W24546   2.280   2.818   0.658  0.4806  0.0520  0.1556
 8653W        W24547  10.915   7.658  14.272  0.0551 -0.1888 -0.1922
 8654W        W24548  16.749   8.457   1.972  0.0842 -0.2547  0.1058
 8655W        W24549   4.163   6.476  13.525  0.0276 -0.0956 -0.1720
 8656W        W24550  12.286  13.548  11.861 -0.3442 -0.3132 -0.0913
 8657W        W24551  16.587   4.474  13.748 -0.0414 -0.3755  0.2100
 8658W        W24552   0.709   8.615  11.104  0.2094  0.1814  0.4160
 8659W        W24553  12.286   0.606   0.326 -0.1893 -0.0667  0.2474
 8660W        W24554  17.664   6.868   3.910  0.1222  0.2975  0.2678
 8661W        W24555  11.962  12.823   0.488  0.1059  0.1765 -0.1998
 8662W        W24556   7.712   1.714   4.861 -0.2203 -0.2341 -0.5972
 8663W        W24557   3.451  13.831   1.135  0.1782 -0.0886 -0.2115
 8664W        W24558  11.309  14.413  11.687 -0.0685 -0.0711 -0.1209
 8665W        W24559  17.786  18.775  11.364  0.2593  0.0763 -0.0107
 8666W        W24560   1.172   2.262  10.995 -0.4268 -0.1636 -0.1709
 8667W        W24561  15.438   6.709   0.123 -0.1767 -0.1740 -0.3153
 8668W        W24562  13.453   1.469   1.517 -0.0008 -0.2484 -0.3659
 8669W        W24563   6.634  10.014   5.060 -0.0371 -0.2201 -0.3596
 8670W        W24564  10.078   7.043  15.044 -0.0551  0.3489  0.1079
 8671W        W24565  14.720   1.573   0.971 -0.2275  0.1089 -0.0732
 8672W        W24566  15.454  17.329   0.168 -0.1283 -0.3070  0.0621
 8673W        W24567  18.351  11.204   1.088  0.2499  0.0214  0.1113
 8674W        W24568  18.762  14.956   4.434  0.1714  0.1093  0.0422
 8675W        W24569  15.957  13.257   2.396 -0.1052 -0.4106  0.1300
 8676W        W24570   1.447   6.883   0.770 -0.1100 -0.0874 -0.3578
 8677W        W24571   7.537   0.631   1.753  0.2246 -0.4180  0.2483
 8678W        W24572  18.429   0.169  14.727 -0.2062 -0.2947 -0.1955
 8679W        W24573   1.898   2.922   0.020 -0.6967 -0.0118 -0.2384
 8680W        W24574   5.319   5.115  13.196  0.0935 -0.0408 -0.2569
 8681W        W24575  10.698   9.446   4.529 -0.3368  0.0773  0.1451
 8682W        W24576   8.924   7.850  12.245 -0.0023  0.0076  0.2725
 8683W        W24577   4.570  17.970   1.069 -0.0863 -0.0185  0.2622
 8684W        W24578  10.045   5.978   3.261  0.2023 -0.1601 -0.0970
 8685W        W24579  12.580   8.884   3.815  0.3173  0.0551  0.2057
 8686W        W24580   9.831  16.705  11.835  0.0285 -0.0697  0.1545
 8687W        W24581   0.912  11.526   2.539 -0.0006  0.1904 -0.1353
 8688W        W24582  16.950   8.032   2.893 -0.2262  0.1974 -0.0052
 8689W        W24583  17.342   7.136   5.190  0.1995  0.0674 -0.0132
 8690W        W24584  11.625   6.712   3.195  0.1728  0.2301  0.0827
 8691W        W24585  15.556   7.157   1.790 -0.1084 -0.0164  0.1393
 8692W        W24586   4.981  11.432  14.608  0.0635 -0.1405  0.1562
 8693W        W24587  12.145  13.280   4.288  0.2152  0.1469 -0.2617
 8694W        W24588   7.920  15.809   1.680 -0.1012  0.1584  0.3358
 8695W        W24589  12.080  17.208   5.895 -0.6698 -0.0334 -0.1613
 8696W        W24590   2.934   0.568  11.736 -0.2796 -0.0758  0.0016
 8697W        W24591   6.815   7.793  14.420  0.1260 -0.1171 -0.0402
 8698W        W24592  16.932  12.944  13.216  0.0724  0.1942 -0.0788
 8699W        W24593   5.678  17.103  11.700 -0.3584 -0.1038 -0.1864
 8700W        W24594   7.312  14.862  12.953  0.1092  0.2344 -0.0300
 8701W        W24595   8.166  16.912  10.415 -0.1132 -0.0287  0.1204
 8702W        W24596  17.031  17.701  11.598  0.0360  0.1809 -0.1569
 8703W        W24597   3.221   2.432   4.520  0.0347 -0.2315  0.3873
 8704W        W24598   5.621  14.113   2.274  0.0276  0.1753 -0.2484
 8705W        W24599   3.478  17.588   5.128 -0.2901 -0.3099 -0.0388
 8706W        W24600   3.587   7.540   3.562  0.4036 -0.1779 -0.0745
 8707W        W24601   6.809   7.318  12.587 -0.0338  0.0748 -0.1994
 8708W        W24602   7.799   3.304  13.146  0.1157  0.1539  0.1215
 8709W        W24603  11.094   1.855   1.410  0.2090 -0.1906  0.0604
 8710W        W24604   3.354   2.838  15.155  0.1797  0.1178 -0.0262
 8711W        W24605  18.210   3.770   0.386  0.0161 -0.1846 -0.0213
 8712W        W24606  12.606   4.171  13.037  0.0963 -0.0011 -0.0573
 8713W        W24607   2.435  18.192  14.950 -0.0251 -0.0333 -0.0459
 8714W        W24608   7.695  18.125  11.002  0.3208  0.0449  0.3198
 8715W        W24609   5.383  12.010  12.605 -0.0345 -0.0075 -0.0011
 8716W        W24610   8.672   3.152   3.534 -0.0473  0.2004  0.4480
 8717W        W24611   4.643  17.966  10.736 -0.2627  0.2807  0.1500
 8718W        W24612  15.335  14.319   4.708 -0.2426 -0.2193  0.1608
 8719W        W24613  12.345   2.218  13.596 -0.1980  0.0815 -0.0228
 8720W        W24614   1.775   4.031   1.889 -0.3200 -0.1349  0.0414
 8721W        W24615   6.572   2.818   0.347 -0.3268  0.0246  0.1026
 8722W        W24616  17.212   8.601   2.833  0.0510  0.2635  0.1869
 8723W        W24617   8.044   0.869  15.009 -0.0845 -0.0256 -0.3169
 8724W        W24618  18.016  15.177   5.066  0.1328 -0.0114 -0.0025
 8725W        W24619   8.729   1.751   0.851  0.0100 -0.0996 -0.0310
 8726W        W24620  15.223  12.350   5.698 -0.0375 -0.0566  0.1959
 8727W        W24621  10.345   9.120   1.509 -0.3039 -0.1329 -0.1170
 8728W        W24622   8.608  13.836  11.766  0.1534 -0.0812 -0.2108
 8729W        W24623   6.481   7.946  11.301  0.1341  0.1718  0.2092
 8730W        W24624   2.584  17.794  13.762  0.0549  0.3395  0.2587
 8731W        W24625   5.691  15.445   2.467  0.0240  0.0756 -0.1144
 8732W        W24626  17.272   8.718  11.247 -0.0230 -0.1178  0.1495
 8733W        W24627  11.695   5.759   5.099 -0.0153  0.2036 -0.1864
 8734W        W24628  15.867   1.049  13.872 -0.2195  0.0704 -0.2082
 8735W        W24629   6.126  15.486   4.676 -0.0207  0.0515 -0.3491
 8736W        W24630  11.247   5.476   2.901  0.1641  0.3357  0.0255
 8737W        W24631  13.494   9.138   4.084  0.1063  0.1798  0.2889
 8738W        W24632  12.656   5.773   4.601 -0.0331  0.1224  0.1062
 8739W        W24633  17.267  13.468   4.488  0.0201 -0.0766 -0.1487
 8740W        W24634   3.169  11.752   2.538 -0.0873  0.1134  0.0542
 8741W        W24635   0.654   0.722  15.387  0.0522  0.1297  0.0130
 8742W        W24636   2.368   9.851   2.229  0.1333  0.2362  0.3729
 8743W        W24637   0.640  13.373   1.583 -0.1294  0.2465  0.2157
 8744W        W24638  12.805  10.317  15.492 -0.3685 -0.0112 -0.0365
 8745W        W24639   3.156   3.595  13.541 -0.1732  0.2466  0.0488
 8746W        W24640   6.182   6.285  15.192  0.0353  0.1827  0.0785
 8747W        W24641   6.984  15.374  14.746  0.0508  0.0521 -0.0122
 8748W        W24642  14.813  12.252  15.419 -0.2359 -0.0484 -0.2202
 8749W        W24643   7.029   3.135  12.409 -0.2079 -0.0286 -0.4269
 8750W        W24644   2.425  13.330   3.732  0.1180  0.1166  0.1254
 8751W        W24645   4.552   4.195   0.528 -0.0923 -0.0905 -0.2303
 8752W        W24646  14.190   8.873  13.659  0.0537 -0.4527 -0.0237
 8753W        W24647  18.642   2.304  11.414 -0.0154  0.1171 -0.1061
 8754W        W24648  18.800   7.131  12.574  0.1733  0.1020  0.1315
 8755W        W24649   0.119   1.649   3.478 -0.0926  0.0638 -0.2231
 8756W        W24650  11.220  10.367   5.724  0.0906 -0.1452 -0.1265
 8757W        W24651   3.089   3.972   0.450 -0.2191 -0.0992  0.0240
 8758W        W24652  16.995  14.468   9.906 -0.3519 -0.1761  0.1061
 8759W        W24653  17.642  17.399  12.458  0.1721  0.0951  0.2060
 8760W        W24654   6.169   0.510  11.367 -0.0941  0.3729 -0.4587
 8761W        W24655  17.761   7.384  11.704 -0.1093  0.0456 -0.1126
 8762W        W24656  11.333   0.604  13.236 -0.0098  0.1128  0.2025
 8763W        W24657  16.106   1.122   4.890  0.0664 -0.0988  0.2282
 8764W        W24658  18.026  12.930   2.778 -0.2598  0.0107 -0.0417
 8765W        W24659  15.991   0.442   2.862 -0.3090 -0.0570  0.0875
 8766W        W24660  12.515   5.157  14.578 -0.1837  0.1500 -0.1393
 8767W        W24661  10.735   1.239  13.963  0.2179  0.1238 -0.1490
 8768W        W24662  17.365   6.868  15.349  0.2790  0.2480  0.0810
 8769W        W24663  18.863  11.560   4.687  0.0524 -0.1565 -0.0401
 8770W        W24664   6.679   9.275   2.521 -0.1957  0.2509  0.5320
 8771W        W24665  15.531   9.215   1.239 -0.2727  0.1478  0.2051
 8772W        W24666  17.639   6.253   3.262 -0.3907 -0.4803 -0.1395
 8773W        W24667  16.418   6.319  12.672  0.0361  0.1656 -0.2948
 8774W        W24668   1.563  12.297  15.225 -0.0324  0.0097 -0.2207
 8775W        W24669   6.922   5.671  13.436  0.0135  0.2271 -0.0272
 8776W        W24670   2.326   8.215   1.794  0.0032 -0.2715 -0.6425
 8777W        W24671  11.024  10.354  14.722 -0.0116  0.3195 -0.0940
 8778W        W24672   1.971   9.689  14.825  0.1118  0.4062  0.0672
 8779W        W24673  14.392   3.630   2.263  0.0818  0.2809 -0.0070
 8780W        W24674  14.815  11.351   0.232  0.0205  0.4654 -0.1070
 8781W        W24675  14.976  11.749  15.412  0.5190 -0.2428 -0.1239
 8782W        W24676  17.501  15.866   4.680  0.4164  0.1039 -0.0106
 8783W        W24677   8.921  14.532   2.807  0.1009 -0.1875  0.0769
 8784W        W24678   5.003   8.053   3.307 -0.1896 -0.1144 -0.2139
 8785W        W24679  18.854   7.414   0.769 -0.2473 -0.1807 -0.0454
 8786W        W24680  15.809   9.318   2.568  0.2809 -0.0777  0.4188
 8787W        W24681  13.241   5.772   5.083  0.3579 -0.0527  0.1238
 8788W        W24682   5.414   9.336   1.145  0.1792  0.0622  0.1650
 8789W        W24683   4.850   5.935   4.995  0.1181 -0.1118  0.1743
 8790W        W24684  11.468  17.420   5.238 -0.2021  0.0215 -0.0271
 8791W        W24685  15.040   7.801   5.000 -0.1447 -0.1550  0.2277
 8792W        W24686   6.620   8.866  13.387 -0.1870  0.3047  0.0073
 8793W        W24687  15.430  16.024   2.302 -0.1247  0.0508 -0.1258
 8794W        W24688  15.325  15.187   5.184  0.2012 -0.2973  0.1293
 8795W        W24689  14.097   1.786   2.702 -0.2434  0.1700  0.0110
 8796W        W24690  15.819   7.641  14.026 -0.1558  0.0395 -0.1357
 8797W        W24691   1.404   9.358   0.617  0.1661 -0.1581 -0.3902
 8798W        W24692  16.655   4.651  15.445 -0.1459 -0.0613 -0.3604
 8799W        W24693   8.563  17.476   0.939 -0.2509  0.0519 -0.1465
 8800W        W24694   6.435  15.721   4.330  0.1857  0.2398  0.2038
 8801W        W24695   2.279  18.517   3.646  0.0716 -0.1680 -0.0215
 8802W        W24696  17.274  11.018  10.488  0.1196  0.0954  0.1736
 8803W        W24697  17.920   8.207  14.503 -0.0186  0.1707  0.4260
 8804W        W24698  18.349   5.762  13.031 -0.0371 -0.4022  0.1020
 8805W        W24699   4.150   8.994  10.874  0.0095 -0.0106 -0.0490
 8806W        W24700   9.536  17.755   2.044  0.0746  0.2551 -0.1208
 8807W        W24701  15.352   3.111  13.757  0.0551  0.0004 -0.0068
 8808W        W24702   2.122  10.016   1.533 -0.3026  0.1820  0.2018
 8809W        W24703   2.286   4.703   0.376  0.4498 -0.0323 -0.0626
 8810W        W24704   3.632  18.199   4.401  0.1608  0.3317 -0.0347
 8811W        W24705  17.907   2.932  13.286  0.1918  0.2033  0.0856
 8812W        W24706  15.680   4.118   1.873  0.0035  0.1392 -0.1161
 8813W        W24707   1.033   1.748  11.705  0.3439 -0.2965 -0.2491
 8814W        W24708   2.178  15.689   2.642 -0.0391 -0.3989  0.1620
 8815W        W24709   2.982   5.510   2.454  0.2036 -0.0326  0.0442
 8816W        W24710   2.365   2.132  14.539  0.3417  0.0327 -0.1599
 8817W        W24711   6.625   6.829  14.024 -0.0955  0.0546 -0.0479
 8818W        W24712  13.723   8.667   2.977 -0.1963  0.2286 -0.0957
 8819W        W24713  14.460   1.447  10.734  0.1650  0.0589  0.1893
 8820W        W24714  11.991   2.962   3.024 -0.3414 -0.0309  0.1695
 8821W        W24715   0.830   9.935   0.249 -0.2424  0.0565 -0.0894
 8822W        W24716  10.387  18.854   1.399  0.0051  0.3879  0.2215
 8823W        W24717  18.517   5.649   4.337 -0.2585 -0.1937 -0.2322
 8824W        W24718  15.478  10.009  13.473 -0.1839 -0.0328  0.0964
 8825W        W24719   1.088   6.712  14.193 -0.1922 -0.1186 -0.0058
 8826W        W24720  18.299  12.278  15.107  0.0351 -0.1722  0.2057
 8827W        W24721  10.931   9.387  14.235 -0.1474 -0.2579 -0.1424
 8828W        W24722  15.758  11.829  11.284 -0.1370 -0.0038  0.3508
 8829W        W24723   8.905  15.032   3.438  0.1619 -0.0037 -0.1263
 8830W        W24724   0.410   2.732  12.938 -0.0376  0.0703 -0.2928
 8831W        W24725   5.065  18.348   5.119  0.0603  0.0573 -0.2384
 8832W        W24726  14.505   4.478  10.622 -0.1703  0.1093  0.1913
 8833W        W24727  11.747   0.197   1.770  0.0779  0.1525  0.3363
 8834W        W24728   0.208  18.730   1.004  0.0179  0.2029 -0.2246
 8835W        W24729  18.211   8.827  12.832  0.1200 -0.0040 -0.3317
 8836W        W24730   2.252  17.534   2.768 -0.1058 -0.2681  0.4062
 8837W        W24731   8.892  13.602   1.662 -0.0937  0.0016  0.1261
 8838W        W24732  17.115   2.718   4.264  0.0616 -0.0776 -0.1325
 8839W        W24733   4.998   9.997  12.963 -0.1052  0.1631  0.0452
 8840W        W24734   4.123   5.123  13.965 -0.0231  0.4174  0.1054
 8841W        W24735   6.133   6.191   2.498 -0.4153  0.2508  0.1673
 8842W        W24736   4.361   3.835   2.620  0.2072  0.0827  0.2873
 8843W        W24737  13.038   8.148   1.815 -0.1072 -0.3910  0.0899
 8844W        W24738  10.003   1.066   1.858  0.5148 -0.0370 -0.0622
 8845W        W24739   1.450  15.439  14.794 -0.1028 -0.1875 -0.1675
 8846W        W24740  15.220  14.277   6.333  0.3237  0.0632  0.2029
 8847W        W24741   5.472   1.605  10.701  0.0152  0.1995  0.0666
 8848W        W24742   2.036  16.267   1.295 -0.0737 -0.1408  0.0287
 8849W        W24743  18.120  16.618   5.013  0.2855  0.2200  0.1474
 8850W        W24744   4.629   5.259  12.039 -0.5313  0.0855 -0.1373
 8851W        W24745  11.948   5.205   1.447 -0.1962 -0.1505  0.0464
 8852W        W24746  18.588   6.658   2.557 -0.1964 -0.2304  0.1226
 8853W        W24747   2.098  15.819  12.879  0.0279  0.0583  0.0158
 8854W        W24748  10.330  12.287   4.518  0.0987  0.4780 -0.1105
 8855W        W24749   3.631   2.467  13.253  0.2479  0.0605  0.0054
 8856W        W24750  14.698  16.432   2.189 -0.2727 -0.0151 -0.1509
 8857W        W24751   5.204   7.121   1.305 -0.1234 -0.0565 -0.2470
 8858W        W24752  12.392   7.981  11.244 -0.0049 -0.2115  0.0053
 8859W        W24753  15.783   4.300  15.204 -0.2186 -0.0568  0.3898
 8860W        W24754  15.441  18.560  13.335  0.2235  0.0892  0.1528
 8861W        W24755  13.696   7.239  10.844 -0.1889 -0.2743 -0.0884
 8862W        W24756  13.646  12.644  15.173 -0.1711 -0.0782 -0.2865
 8863W        W24757  14.432   0.331   6.367 -0.0271  0.2364  0.3989
 8864W        W24758   8.897  18.044   3.059 -0.1751 -0.0584  0.1782
 8865W        W24759   6.782   4.988   4.492  0.1519 -0.0822 -0.2073
 8866W        W24760   6.704   6.185   0.308  0.0690  0.0645 -0.2409
 8867W        W24761  14.827  18.153  12.500  0.0350  0.0728  0.0412
 8868W        W24762   5.057  17.766   4.094  0.0397 -0.0305 -0.0090
 8869W        W24763   5.998   3.779   5.516 -0.1706  0.1471 -0.0481
 8870W        W24764   9.838  16.111  15.045  0.0457  0.4538 -0.1985
 8871W        W24765   4.880   7.121   3.660 -0.1541 -0.3205  0.0219
 8872W        W24766   4.653   6.186  15.367  0.1305  0.0299  0.0480
 8873W        W24767   2.036   3.680   2.254  0.1157  0.0876 -0.0952
 8874W        W24768   0.029  14.073  13.287  0.3871  0.3204  0.0482
 8875W        W24769   8.252   3.013  11.367  0.1292  0.2276  0.2392
 8876W        W24770  17.371   9.665  11.623  0.1205 -0.1641 -0.0088
 8877W        W24771  15.526   4.484  11.793 -0.3632  0.2966  0.1476
 8878W        W24772  11.379  12.304   4.729  0.1106 -0.1286 -0.0435
 8879W        W24773  10.961  13.959   1.197 -0.0052 -0.1797 -0.1724
 8880W        W24774  12.834  16.698  12.162  0.1880  0.0839  0.1024
 8881W        W24775  15.224  11.521   1.984 -0.0140  0.0358  0.0591
 8882W        W24776   5.013   3.343   2.982  0.0856 -0.0204  0.0601
 8883W        W24777   8.599   4.122   5.219 -0.2379 -0.0006 -0.2434
 8884W        W24778  11.804   9.391  10.711  0.0438 -0.1491 -0.0488
 8885W        W24779   8.980  16.323  11.900 -0.0759  0.0399  0.0137
 8886W        W24780   1.819   3.502  10.480  0.0408  0.1044  0.0780
 8887W        W24781  13.073   6.326  14.833 -0.0281  0.2898  0.0607
 8888W        W24782  17.717   0.703   0.799  0.0399 -0.1943  0.4030
 8889W        W24783  12.049   2.983   6.013  0.1138 -0.2635  0.0190
 8890W        W24784  10.589   9.943   4.812  0.1243  0.2664  0.1372
 8891W        W24785   3.732  14.979   3.213 -0.1261  0.0348  0.2541
 8892W        W24786   7.487  11.874  11.016  0.1839  0.0454  0.0185
 8893W        W24787  16.941   2.292   3.108  0.2808 -0.1323  0.1583
 8894W        W24788  17.701  11.885  11.069  0.1648 -0.0093  0.0190
 8895W        W24789  10.987   5.031  14.109  0.1528  0.1570  0.1159
 8896W        W24790  10.007  18.104   2.672  0.0140 -0.0258 -0.2774
 8897W        W24791  14.325   0.718   3.156 -0.0566 -0.2832  0.0262
 8898W        W24792   5.594   0.256   0.682  0.0786 -0.2589 -0.0291
 8899W        W24793  15.599   7.706   4.093 -0.3968  0.1405  0.2756
 8900W        W24794   1.723  17.006  12.934 -0.1074 -0.0096  0.2509
 8901W        W24795   3.238  12.951  14.422  0.2421  0.1354  0.0161
 8902W        W24796   5.746  10.152   2.219  0.0970 -0.0639  0.1126
 8903W        W24797  16.861   9.718  14.384 -0.0316 -0.1101 -0.0562
 8904W        W24798  14.310  12.051   4.201 -0.2373  0.2161 -0.1294
 8905W        W24799   4.750   6.272  14.883  0.0433  0.0632 -0.0889
 8906W        W24800   6.552  12.887   3.407 -0.1434  0.0943 -0.1423
 8907W        W24801   2.907   5.451  14.698 -0.1982 -0.2800  0.0186
 8908W        W24802   8.908   0.147  15.198 -0.2061 -0.1909  0.0929
 8909W        W24803   8.995  10.951   2.097  0.1541 -0.0536  0.0792
 8910W        W24804  14.567   0.435   2.687 -0.0446  0.1884  0.0536
 8911W        W24805  12.242  10.866   4.552  0.1242  0.1473 -0.2939
 8912W        W24806  11.318  15.371   4.685  0.2576 -0.2732  0.1575
 8913W        W24807   0.405   8.290  10.881  0.2117  0.0534 -0.1825
 8914W        W24808   2.403   2.633  11.461  0.0966 -0.0238  0.2387
 8915W        W24809   5.651   1.060   1.953 -0.1361 -0.0157  0.0139
 8916W        W24810   4.128   3.981   3.668 -0.3353 -0.0482  0.2607
 8917W        W24811   5.967   7.972  11.445 -0.0248 -0.2410  0.2757
 8918W        W24812   4.219  10.720   0.850 -0.1003 -0.0456 -0.1091
 8919W        W24813  10.444   1.251  10.612 -0.0583 -0.2578 -0.1827
 8920W        W24814   2.334   9.410  12.251 -0.2267 -0.1059  0.1391
 8921W        W24815  11.839   8.491   4.856  0.0470  0.0933  0.0687
 8922W        W24816  15.991   2.038   4.734 -0.1168  0.0297  0.0893
 8923W        W24817   0.154   5.288   5.191 -0.2472 -0.0023  0.2161
 8924W        W24818  18.762   7.481  14.586 -0.1939 -0.0819 -0.1115
 8925W        W24819  16.987   5.263   4.525 -0.0319  0.0434 -0.0816
 8926W        W24820  12.403  14.128   4.776  0.0221 -0.0369 -0.1410
 8927W        W24821   2.340  13.890  14.249  0.3267  0.1722 -0.1777
 8928W        W24822  14.902   2.171  11.250 -0.2617  0.1550  0.1622
 8929W        W24823  10.762  18.595  13.686  0.0365 -0.0523  0.2201
 8930W        W24824  13.259  15.272   1.743 -0.2079 -0.0513  0.0748
 8931W        W24825   7.606  17.151  15.174 -0.1470 -0.0365 -0.2180
 8932W        W24826   4.803   9.021   4.558 -0.2569  0.0385 -0.2367
 8933W        W24827  17.065  18.467   4.242  0.1676 -0.1108 -0.3303
 8934W        W24828  11.252  13.421  13.095 -0.1550  0.0603 -0.1077
 8935W        W24829  14.734   7.067   2.988  0.0293 -0.1725  0.2371
 8936W        W24830   8.449   8.540  12.942 -0.0678 -0.1509  0.2951
 8937W        W24831  17.495  14.208  13.300  0.1147 -0.2846 -0.3308
 8938W        W24832   7.495  10.601  14.433  0.0636  0.1009  0.0101
 8939W        W24833  13.137   8.973   5.063  0.1212 -0.1702 -0.0805
 8940W        W24834   5.769   9.030   0.708 -0.3421 -0.1850 -0.1103
 8941W        W24835  16.041   0.347  13.319  0.0852  0.2484  0.0329
 8942W        W24836   1.824   5.477   3.972  0.1880  0.3665  0.1664
 8943W        W24837   1.337  16.764  12.083  0.2905 -0.1493  0.2724
 8944W        W24838   1.756   2.922   3.174 -0.0146  0.3427 -0.0306
 8945W        W24839   7.556  14.705   0.655  0.3526 -0.0494  0.1989
 8946W        W24840  13.029   1.181   0.411 -0.2771 -0.0521  0.3449
 8947W        W24841   7.834  14.851  13.826  0.0451 -0.0169 -0.1661
 8948W        W24842   4.775  10.686   5.555 -0.0721 -0.1972  0.0859
 8949W        W24843  12.112   0.182   1.093  0.1034  0.0683  0.5061
 8950W        W24844   6.497   7.314   1.249  0.0223  0.0190  0.2778
 8951W        W24845   3.237   1.236   3.704  0.0760 -0.0024 -0.0830
 8952W        W24846   6.405   3.948   1.814 -0.1240  0.3311 -0.0372
 8953W        W24847  18.743   5.437   3.920  0.0665  0.1212  0.2702
 8954W        W24848  13.968   5.481   4.603 -0.0033  0.4857  0.0121
 8955W        W24849   5.666  13.861  13.627 -0.3899 -0.2496  0.2258
 8956W        W24850  10.846   9.825  13.482 -0.2353 -0.2471 -0.0302
 8957W        W24851   6.460   3.496   3.746 -0.1151 -0.2335  0.1678
 8958W        W24852   6.614   4.414  13.795  0.0199 -0.0260 -0.1100
 8959W        W24853   8.441   7.418   0.829 -0.3297 -0.1088 -0.0785
 8960W        W24854  13.233   6.967  15.337 -0.0833 -0.1243 -0.1593
 8961W        W24855  18.265  16.876   5.904  0.1189 -0.2606  0.2024
 8962W        W24856  17.946   3.416   0.607  0.1383 -0.1429 -0.2391
 8963W        W24857   1.592  10.821   4.212 -0.0349 -0.5206 -0.3318
 8964W        W24858  14.697   6.713  10.324  0.3197  0.0805  0.0803
 8965W        W24859  16.387  11.397   0.966 -0.0104 -0.5936  0.1342
 8966W        W24860   3.683   5.023   2.324  0.1316 -0.0725 -0.0321
 8967W        W24861  10.046  10.259  11.344  0.2080  0.0883 -0.1162
 8968W        W24862   6.367   0.761   0.953  0.2833 -0.0749 -0.2162
 8969W        W24863   9.397  16.243   0.886 -0.0723  0.0536  0.1010
 8970W        W24864   7.428   5.373  12.404  0.0898 -0.2501  0.1383
 8971W        W24865  12.342  12.514   2.835 -0.0057 -0.2330 -0.2622
 8972W        W24866  13.707  16.650   2.464 -0.1049 -0.2158 -0.1487
 8973W        W24867  12.601   9.216   3.172  0.1061  0.0936 -0.2333
 8974W        W24868   7.767  18.409  15.183  0.0431  0.0636  0.0413
 8975W        W24869  12.439  18.765   1.270 -0.2754  0.3930  0.0845
 8976W        W24870  18.714  15.523  10.889 -0.2426  0.0502  0.1595
 8977W        W24871  12.499   8.509  14.647  0.0921  0.1189 -0.3306
 8978W        W24872   1.404  13.487  13.689 -0.0300 -0.2173  0.0156
 8979W        W24873  17.777  13.132  15.315 -0.0836  0.0839  0.2849
 8980W        W24874   1.502   7.733   2.448  0.1225  0.1639  0.2522
 8981W        W24875  13.726  10.317  13.081  0.1800  0.2911 -0.2122
 8982W        W24876   8.320   5.893   2.200 -0.1656  0.2385 -0.1693
 8983W        W24877   5.621  18.208   0.103  0.0076  0.1274 -0.3247
 8984W        W24878   0.242  13.085   2.458 -0.1077  0.5206  0.1706
 8985W        W24879  12.657  15.773   5.227  0.1708 -0.0974  0.1126
 8986W        W24880   5.098  12.600  15.475 -0.0979 -0.1723 -0.0341
 8987W        W24881   2.302  12.477   1.716  0.1232  0.1791 -0.0858
 8988W        W24882   9.235  18.155  12.798 -0.2192 -0.0282 -0.1889
 8989W        W24883   2.266   4.026   4.272  0.0031 -0.2066 -0.0779
 8990W        W24884   9.519   9.386   5.262 -0.1356 -0.0557 -0.0471
 8991W        W24885  12.008   6.037  15.259 -0.0324 -0.1198 -0.0277
 8992W        W24886   9.592  15.096   1.798  0.0381 -0.1672  0.1092
 8993W        W24887   1.211  17.720   0.951  0.1162 -0.1007 -0.0091
 8994W        W24888   8.490  14.308  14.758  0.1716 -0.2758 -0.3013
 8995W        W24889   5.106  16.303  12.625 -0.0500  0.0755 -0.2236
 8996W        W24890   3.338   7.813   2.559 -0.2503 -0.1802  0.0315
 8997W        W24891  17.098  11.734   3.895  0.1075 -0.0171  0.1885
 8998W        W24892  18.019  16.182  10.371 -0.2307 -0.0450 -0.0555
 8999W        W24893   4.396  10.632   0.379 -0.3254  0.0336 -0.1676
 9000W        W24894  10.604   6.240  12.187 -0.1102 -0.4867  0.0563
 9001W        W24895   1.471   6.131   2.985 -0.2071 -0.2223 -0.0609
 9002W        W24896  13.730   6.255  12.456  0.4250 -0.1358 -0.2072
 9003W        W24897  11.168   6.038  13.152 -0.1847  0.1703  0.0356
 9004W        W24898   9.629  18.400   4.601 -0.2086  0.3739 -0.1187
 9005W        W24899   7.146  15.186  13.270  0.0681 -0.2932  0.2435
 9006W        W24900  17.138   8.003   0.314 -0.0966 -0.2349  0.0833
 9007W        W24901   0.240   8.293  15.007 -0.0772  0.0648  0.0073
 9008W        W24902   4.703   1.228   0.125 -0.3193 -0.2376  0.2933
 9009W        W24903   8.220   1.027  13.103  0.1833  0.1913  0.0046
 9010W        W24904  15.674   1.175   3.128  0.0432 -0.2334  0.1070
 9011W        W24905  16.757   5.816  12.533 -0.0636 -0.1800 -0.0461
 9012W        W24906  15.563   1.728   1.494  0.0461 -0.1623  0.3268
 9013W        W24907  11.320  15.359   5.311  0.0455  0.1846  0.1879
 9014W        W24908  18.622  11.121   4.875 -0.0505 -0.0201 -0.1177
 9015W        W24909  15.730   2.390  13.331  0.1155  0.3695 -0.1914
 9016W        W24910   5.654  15.362  13.138 -0.1110 -0.1440  0.3304
 9017W        W24911   2.264  14.242   0.409 -0.2052  0.0648 -0.1518
 9018W        W24912   9.653   2.861  10.145 -0.4052 -0.2030  0.0172
 9019W        W24913  13.968  13.286  12.681 -0.0471  0.1471 -0.4821
 9020W        W24914   8.296  11.014  13.235 -0.0097 -0.4614 -0.0097
 9021W        W24915  13.068   5.685   1.667  0.1127 -0.2088  0.0876
 9022W        W24916   8.068  18.319   4.600 -0.0519  0.0034  0.4148
 9023W        W24917  12.216   6.165  13.613 -0.2264  0.0158 -0.0217
 9024W        W24918   2.102  12.799  12.095 -0.0391 -0.0272 -0.0006
 9025W        W24919   7.314  17.213   3.826  0.2853 -0.1662 -0.1600
 9026W        W24920  14.492   2.953   2.933  0.0896  0.1846  0.0906
 9027W        W24921   9.954   3.494  11.825  0.1454  0.2811  0.0540
 9028W        W24922  12.718  11.336   4.073  0.4144 -0.0988 -0.0792
 9029W        W24923  11.219  10.241  14.278  0.0510 -0.1160  0.3360
 9030W        W24924  13.134  16.189   3.082  0.1584 -0.0799 -0.1313
 9031W        W24925   5.381  13.681   2.227  0.1534  0.1981 -0.1940
 9032W        W24926   7.613  11.219   0.466  0.1170 -0.0620 -0.0962
 9033W        W24927  12.621  12.678  12.018  0.3049  0.0366 -0.0817
 9034W        W24928   5.838   7.595   2.502  0.4110 -0.0920 -0.0923
 9035W        W24929   7.519  11.583  13.441  0.4205 -0.1169 -0.1222
 9036W        W24930   4.923   3.413  13.777  0.0419  0.0727 -0.2620
 9037W        W24931  17.629   2.274  14.284 -0.0639 -0.2665 -0.3944
 9038W        W24932  10.351  18.195   4.089  0.0996 -0.1294 -0.0787
 9039W        W24933  17.698  13.505   0.214  0.0970 -0.0356 -0.2420
 9040W        W24934   6.038   7.403   1.009 -0.0127 -0.0127 -0.1406
 9041W        W24935  13.006   5.807  15.062 -0.2926 -0.0916  0.1473
 9042W        W24936  16.913   1.734  12.313 -0.0770 -0.0043 -0.2186
 9043W        W24937  11.441   6.082   1.094 -0.1931  0.0646 -0.2378
 9044W        W24938   4.888  10.027  13.809  0.0850  0.1140 -0.1851
 9045W        W24939  17.459   2.280   4.064  0.3062 -0.0812  0.0969
 9046W        W24940   3.842  16.319   1.925 -0.1025 -0.0407 -0.3565
 9047W        W24941   9.678   9.205  11.722  0.0191 -0.0744  0.0308
 9048W        W24942   9.941   6.093  14.776  0.0064  0.1399 -0.1114
 9049W        W24943   1.503   9.604   2.128 -0.2945 -0.0143  0.0975
 9050W        W24944  10.608   3.135   1.867 -0.1643 -0.0200  0.1094
 9051W        W24945  15.132   9.503   1.011  0.0265  0.1689  0.1785
 9052W        W24946   8.072  18.237  11.319  0.0400  0.1699 -0.1285
 9053W        W24947  10.559  12.673   3.232 -0.2101 -0.0035 -0.1699
 9054W        W24948  11.252   8.148  15.092  0.0058  0.2568  0.2073
 9055W        W24949  15.340   5.407  11.301  0.0437 -0.0400 -0.5143
 9056W        W24950  15.390  17.533   4.992 -0.2290 -0.1138  0.1650
 9057W        W24951   1.178   5.066  14.713 -0.1739  0.0699  0.1536
 9058W        W24952  17.661  15.161   3.644  0.0469  0.2598  0.0222
 9059W        W24953  15.172   2.124  14.326  0.1985 -0.0180  0.2701
 9060W        W24954   9.754  12.073  10.854  0.4686 -0.1553 -0.2640
 9061W        W24955  17.205  11.318  11.804 -0.2608  0.0923 -0.1371
 9062W        W24956   3.721  12.797   2.440 -0.1423  0.4434 -0.1494
 9063W        W24957   0.050   5.346  11.689 -0.2592  0.0465 -0.0614
 9064W        W24958   6.494   3.621   2.895 -0.2734  0.1576 -0.3063
 9065W        W24959   5.943  14.775   1.742  0.2840  0.0024 -0.2109
 9066W        W24960  17.693   0.030  12.159 -0.1108  0.0219  0.2117
 9067W        W24961  15.726   4.894  15.091 -0.2637  0.0823  0.0130
 9068W        W24962   9.226  16.282   0.389 -0.1168 -0.0988 -0.0138
 9069W        W24963   3.396  18.553   4.684 -0.1743  0.0734  0.0543
 9070W        W24964  13.491   0.019   2.245  0.1779 -0.2442 -0.0578
 9071W        W24965   7.397  18.825  11.985 -0.1906  0.0721 -0.0604
 9072W        W24966   2.367   2.654   2.057 -0.0923 -0.3611 -0.2083
 9073W        W24967  18.229  18.368   5.037  0.0600  0.1148  0.1830
 9074W        W24968  13.547   1.191  14.077  0.2911 -0.2909  0.0357
 9075W        W24969  10.740   3.786   1.368  0.0539 -0.0450  0.1451
 9076W        W24970  18.048   0.454   1.397  0.2441 -0.0695  0.0783
 9077W        W24971   6.389  10.963   4.158  0.1623  0.1128  0.0229
 9078W        W24972  16.769  10.829   4.950 -0.1795  0.2888  0.0299
 9079W        W24973   0.543  14.545  10.422  0.0911  0.0127  0.0175
 9080W        W24974   3.988  11.843   2.359  0.1655 -0.3209 -0.3672
 9081W        W24975   5.213  12.246   1.843  0.1825 -0.1009 -0.0210
 9082W        W24976  17.552  10.256  13.142  0.1565  0.3766  0.1705
 9083W        W24977  10.778  10.675   0.598 -0.0057 -0.2645  0.0306
 9084W        W24978   3.856   3.275   4.804  0.0490  0.2519  0.2003
 9085W        W24979  12.388  11.541  13.594 -0.0917 -0.1830 -0.1427
 9086W        W24980  14.911   9.137   1.988  0.1776 -0.0282  0.0446
 9087W        W24981  17.365  14.336   2.242 -0.1819 -0.0991  0.0591
 9088W        W24982  17.610  11.722  15.003 -0.1060  0.0713 -0.1901
 9089W        W24983   8.716   5.282   0.752 -0.1652 -0.1325  0.1106
 9090W        W24984  15.583  15.047  14.223  0.2955  0.1414  0.1574
 9091W        W24985   7.315   6.488  14.104 -0.3713 -0.1034 -0.0742
 9092W        W24986   8.216  16.744  14.756  0.0148 -0.0763  0.1540
 9093W        W24987   7.306  14.128  14.357  0.0102 -0.2101 -0.1713
 9094W        W24988  15.295  10.842  12.893 -0.0672  0.0110  0.1700
 9095W        W24989   7.832   3.110  10.340 -0.0930 -0.1487  0.2516
 9096W        W24990   0.770   6.409  15.028  0.4071  0.4330 -0.0228
 9097W        W24991   2.765   7.268   1.003 -0.0137 -0.1055 -0.0321
 9098W        W24992   4.210   9.822  11.867  0.1207 -0.1248  0.0249
 9099W        W24993   8.631   4.057   2.152  0.0608 -0.2109  0.0721
 9100W        W24994  18.678  11.175   1.455  0.0309 -0.1798 -0.0195
 9101W        W24995  12.129  13.048   5.016  0.0868 -0.0256  0.0312
 9102W        W24996   3.162   3.879   3.398 -0.0758  0.1974  0.0045
 9103W        W24997  13.426  11.791   4.049  0.1816  0.2840  0.1287
 9104W        W24998   1.976  14.805   3.562  0.1017 -0.0458 -0.4751
 9105W        W24999   9.203  18.505   3.275 -0.0787  0.3020  0.1227
 9106W        W25000  12.713  12.473   1.551 -0.0930 -0.2557 -0.0349
 9107W        W25001  14.446   2.326  11.788 -0.1264  0.1529  0.2196
 9108W        W25002   3.160  15.175   5.144  0.2112  0.0876  0.0640
 9109W        W25003   7.881  10.852   2.425 -0.1670  0.1629 -0.4147
 9110W        W25004  13.979   7.265   2.477 -0.1681  0.3349  0.0144
 9111W        W25005   8.387   6.383  13.066  0.1274  0.1116  0.1429
 9112W        W25006  15.487  13.530   4.635  0.2245  0.0529  0.3882
 9113W        W25007  18.819  12.601   1.422 -0.1584  0.1411  0.0788
 9114W        W25008   4.566   3.684  11.662  0.3952 -0.0407 -0.1831
 9115W        W25009  10.051  11.283   1.002 -0.1318  0.2653  0.0503
 9116W        W25010   3.252  13.899   9.629 -0.0436  0.1280  0.0703
 9117W        W25011   1.008  14.627  10.647  0.1976 -0.0353  0.0072
 9118W        W25012  17.883  15.361   0.458  0.1627 -0.2066 -0.2794
 9119W        W25013   5.625   9.250  10.743 -0.1165 -0.3731 -0.3883
 9120W        W25014   8.128   5.780  11.900  0.1962  0.3094 -0.2840
 9121W        W25015   4.470   6.971  14.332  0.2687 -0.2427 -0.0290
 9122W        W25016   0.097   8.751   4.714 -0.1800 -0.3948  0.0094
 9123W        W25017   0.361   8.462   4.367 -0.1029 -0.2572 -0.1279
 9124W        W25018  16.191  14.059  12.866 -0.0785 -0.3090  0.3450
 9125W        W25019  15.637   3.463   3.805 -0.0874 -0.2876  0.2529
 9126W        W25020  14.921  14.243   0.208 -0.0784  0.0822 -0.2081
 9127W        W25021  16.885  17.181   4.845  0.1003  0.1705  0.0566
 9128W        W25022   7.325  14.960  13.799 -0.0699  0.0652 -0.0513
 9129W        W25023  15.137  12.583   2.986 -0.0545 -0.3178 -0.2074
 9130W        W25024  10.386   6.407  12.623 -0.1156  0.0997  0.0268
 9131W        W25025   3.788   8.639  11.830 -0.1952  0.1448 -0.1193
 9132W        W25026  12.697   0.696  12.034 -0.0298  0.0502 -0.0512
 9133W        W25027   4.585  13.868  13.124 -0.0592 -0.0621 -0.0519
 9134W        W25028  15.310  12.610  14.263 -0.1956 -0.3630 -0.1295
 9135W        W25029   0.728  17.678  10.740 -0.2331  0.2623  0.2108
 9136W        W25030   6.000   8.732   2.297 -0.0570 -0.0318 -0.3167
 9137W        W25031  17.206   1.723   3.221 -0.0913 -0.1426 -0.2299
 9138W        W25032   8.348   7.325   4.957 -0.1234  0.2399  0.0600
 9139W        W25033   7.426  17.021  14.549 -0.0328 -0.4063  0.1430
 9140W        W25034   0.283  10.598  15.478 -0.0552 -0.3426  0.3198
 9141W        W25035   8.862   8.976   3.275 -0.0060  0.1591 -0.0649
 9142W        W25036  15.908  12.893  11.482  0.3392  0.1776  0.0894
 9143W        W25037  17.293   0.466   4.882  0.0205 -0.0831 -0.1851
 9144W        W25038   6.545   4.506   4.290  0.0824  0.0198 -0.1915
 9145W        W25039   5.300  11.959  14.035 -0.0138  0.0416  0.0526
 9146W        W25040   5.079  17.336   1.166 -0.0648 -0.1752  0.4364
 9147W        W25041  18.010  12.054  10.773 -0.0133  0.3113  0.2674
 9148W        W25042   6.033  10.343  12.199  0.1918  0.0812 -0.1520
 9149W        W25043  14.370   7.080  10.177 -0.0389 -0.0899 -0.1665
 9150W        W25044  13.424  14.725   0.126 -0.0361 -0.0567  0.2503
 9151W        W25045   5.964   4.143   0.572 -0.0363 -0.0373  0.1068
 9152W        W25046   2.436   2.165   3.484 -0.0796 -0.1387 -0.1765
 9153W        W25047  18.145   0.977   5.322  0.1910 -0.4412  0.1097
 9154W        W25048  16.464  17.998   3.087 -0.2198  0.0398 -0.1299
 9155W        W25049  14.907   8.793  12.590 -0.1207 -0.0020 -0.0768
 9156W        W25050  12.760   0.889  15.453  0.0513  0.0023 -0.3126
 9157W        W25051   3.576  11.387   3.856  0.2784 -0.2697  0.0353
 9158W        W25052   7.135   3.705   0.567 -0.1164 -0.0107 -0.0195
 9159W        W25053  15.792  17.430   3.104 -0.0547  0.1509 -0.0264
 9160W        W25054   9.682  13.091   1.025 -0.0139  0.1243  0.0049
 9161W        W25055  11.857   2.994   1.648  0.0334 -0.1743  0.1181
 9162W        W25056   1.233   9.111   4.269  0.0112  0.1809 -0.2202
 9163W        W25057   0.510   7.230   0.615 -0.1838 -0.0252 -0.0784
 9164W        W25058  12.028   2.684  11.066  0.2454  0.1117  0.0380
 9165W        W25059   2.991  17.537  10.395  0.1490  0.0421  0.2267
 9166W        W25060  17.335  17.259  10.313 -0.0803 -0.0186 -0.0824
 9167W        W25061   3.086   6.344  15.165  0.1484 -0.3342 -0.0020
 9168W        W25062  16.919   0.653  13.376  0.1616  0.0007 -0.0536
 9169W        W25063  12.856   7.153   2.516  0.0837 -0.5080  0.0137
 9170W        W25064  16.025   4.004   9.882 -0.1058 -0.1456  0.0106
 9171W        W25065   6.518  11.513  13.801  0.1438  0.0821  0.0288
 9172W        W25066  11.800  16.334  14.966  0.3032 -0.0745  0.3169
 9173W        W25067  10.467   7.001   5.341  0.1872 -0.2776  0.3220
 9174W        W25068  14.262   2.756  13.532  0.2937 -0.0723  0.0170
 9175W        W25069   2.487  16.008   1.281  0.1372  0.2177 -0.1410
 9176W        W25070  18.877   7.161   0.347 -0.1095  0.0787 -0.3084
 9177W        W25071  16.332   0.507  14.127  0.1408 -0.2073  0.3408
 9178W        W25072  15.494  10.950   4.702  0.0857 -0.3466 -0.3267
 9179W        W25073   7.195  12.133   5.225 -0.0597  0.0759  0.4154
 9180W        W25074  14.005   6.598   1.308  0.1966 -0.0885 -0.1294
 9181W        W25075  18.734   5.973  14.950 -0.1169 -0.2852  0.1669
 9182W        W25076  10.911  12.419   0.987 -0.2844  0.0343  0.1868
 9183W        W25077   8.220  16.585   4.253  0.0373  0.3455 -0.0984
 9184W        W25078  13.928   0.383   2.230  0.1402 -0.0137 -0.0511
 9185W        W25079  16.607  17.575  11.990 -0.0886  0.3154  0.0103
 9186W        W25080   5.363  16.432   3.611 -0.0510  0.2299  0.0653
 9187W        W25081  18.216   6.971   1.686  0.0644 -0.2776  0.1569
 9188W        W25082  17.265   2.852   2.794 -0.1031  0.0297  0.1511
 9189W        W25083  16.458  15.539  11.289  0.0877  0.0542 -0.2511
 9190W        W25084  17.777  16.739  14.464  0.3826 -0.0434 -0.1417
 9191W        W25085   4.645   2.387   5.194 -0.1609  0.1221  0.1273
 9192W        W25086  12.748   1.882  14.002 -0.1975 -0.1147 -0.1415
 9193W        W25087   0.050   5.968  11.286  0.1663  0.0334 -0.0361
 9194W        W25088  17.787  13.205   1.054 -0.2382  0.2594  0.0530
 9195W        W25089  10.186  13.496   5.220 -0.3379  0.2656  0.2671
 9196W        W25090   6.944   3.335   9.327 -0.0447 -0.2408 -0.1467
 9197W        W25091  14.443  13.487   0.489 -0.0922 -0.0252  0.2592
 9198W        W25092   9.460  18.523  14.239 -0.3484 -0.2844  0.1023
 9199W        W25093   6.731   4.419   9.575  0.0586 -0.1688  0.0909
 9200W        W25094  17.099  16.110  15.231 -0.1205  0.2148  0.1948
 9201W        W25095  13.597  17.287  15.261  0.1919  0.1147 -0.3925
 9202W        W25096   0.266   9.208   1.771 -0.0135  0.2635 -0.3017
 9203W        W25097  16.763   8.799  13.793  0.1872  0.3676  0.1846
 9204W        W25098   1.560  12.798  14.009  0.2460 -0.5042 -0.0439
 9205W        W25099   9.491  10.524   0.774  0.3583 -0.1443 -0.2872
 9206W        W25100  10.787   0.146  15.244 -0.0748  0.0671 -0.1511
 9207W        W25101  16.458   0.087  13.064 -0.1526  0.0317  0.1398
 9208W        W25102  16.918   7.108  12.112 -0.5010  0.1422  0.0501
 9209W        W25103  16.850   0.658  11.533 -0.1903 -0.1016 -0.0054
 9210W        W25104   7.222   9.066   3.635 -0.3324 -0.0476  0.0288
 9211W        W25105  15.088  15.098   1.035 -0.3367 -0.0251 -0.0553
 9212W        W25106   3.537  14.547   3.495  0.2360  0.0878 -0.1114
 9213W        W25107   6.939   1.059   5.095 -0.2268 -0.0328 -0.1329
 9214W        W25108  15.101   4.198   5.608  0.1258  0.2171 -0.0783
 9215W        W25109   2.585  12.826   2.438 -0.2551  0.0338  0.2780
 9216W        W25110  16.763  13.744   2.774  0.3515 -0.1561  0.0487
 9217W        W25111   8.614  18.544   0.852  0.0627  0.1000  0.0830
 9218W        W25112   7.579  14.756  13.407 -0.1689 -0.3215  0.1172
 9219W        W25113   0.586   3.323   4.400  0.1947 -0.1760 -0.0517
 9220W        W25114  16.920  10.091  14.808 -0.3232  0.2579 -0.2609
 9221W        W25115   3.670   1.205  14.601  0.3609  0.0160  0.3747
 9222W        W25116  13.653  17.376   2.512 -0.1556 -0.0640  0.1408
 9223W        W25117  11.534   4.926   2.217 -0.0154  0.0778 -0.0219
 9224W        W25118   2.591  14.319  10.471  0.1441 -0.0926  0.0472
 9225W        W25119  18.662   5.267  12.113 -0.0411  0.1009 -0.0433
 9226W        W25120   1.199   2.257   2.020 -0.0338 -0.2619  0.0616
 9227W        W25121   2.208  11.803   2.912  0.0358 -0.3798 -0.1398
 9228W        W25122   8.314  18.668   3.473 -0.0210  0.0203  0.1235
 9229W        W25123  16.963   4.666   2.186  0.1072 -0.0467  0.0651
 9230W        W25124   1.813  12.539   3.215  0.3200  0.0887  0.2012
 9231W        W25125   4.443   0.132   4.560  0.0080  0.3260 -0.3613
 9232W        W25126   2.761  13.323   0.890  0.1799  0.0036 -0.1552
 9233W        W25127   0.164  16.194  14.059  0.1003  0.1814  0.0167
 9234W        W25128   8.858   1.296   5.835 -0.0235 -0.1893 -0.0845
 9235W        W25129  12.556   6.700   3.329 -0.2263 -0.1252  0.0208
 9236W        W25130  17.166   1.799  11.270 -0.1015 -0.3044 -0.0559
 9237W        W25131  17.428   0.289  11.592  0.0265 -0.1392  0.2269
 9238W        W25132  17.344   8.608   4.047 -0.1190  0.2457  0.0049
 9239W        W25133   3.503   8.298   3.845 -0.0093  0.0646  0.2100
 9240W        W25134  17.543   6.116  12.789  0.2479  0.0320  0.0965
 9241W        W25135  18.623   6.405   4.009 -0.2614  0.1660 -0.1280
 9242W        W25136  17.230   8.231   0.765 -0.3589  0.1659 -0.2657
 9243W        W25137  12.584  18.441   1.739 -0.1587  0.1601  0.3573
 9244W        W25138  12.860   7.668  13.241  0.1472 -0.0162 -0.2692
 9245W        W25139  16.245  18.084  13.584  0.3059 -0.2517 -0.0132
 9246W        W25140  15.075   4.701   5.312  0.0388  0.2176 -0.1392
 9247W        W25141  16.270  13.724  12.152  0.2104  0.2701 -0.1494
 9248W        W25142   1.088   4.145   0.814 -0.3186  0.3593 -0.0100
 9249W        W25143  10.908   7.132  12.988  0.0950  0.0135  0.2789
 9250W        W25144  13.207   7.463   3.702 -0.3596 -0.1861  0.0538
 9251W        W25145   5.219  15.569  14.503  0.2118  0.0093 -0.2456
 9252W        W25146   2.217  10.497   1.090 -0.2857 -0.3618 -0.0409
 9253W        W25147   5.227   0.377  11.561  0.2715 -0.1759  0.1737
 9254W        W25148  13.168   0.724   1.236 -0.3410 -0.1701  0.0269
 9255W        W25149  10.950   2.431   0.674  0.1098  0.0326  0.0593
 9256W        W25150  16.837   6.813   1.825 -0.1125 -0.0167  0.2430
 9257W        W25151   8.489   5.525   1.443  0.0671 -0.1808 -0.1808
 9258W        W25152   7.050  15.146  14.234 -0.0851 -0.1396 -0.2097
 9259W        W25153   2.348   5.913  11.809  0.0096  0.0019 -0.1233
 9260W        W25154  18.363   9.778   4.549 -0.0281 -0.2803 -0.3893
 9261W        W25155  12.027  17.573   0.845 -0.0566 -0.0459 -0.2690
 9262W        W25156  14.141  16.499   4.709 -0.2019 -0.0776 -0.2062
 9263W        W25157  17.092  17.067   0.149 -0.2083 -0.3173  0.1392
 9264W        W25158   3.029  10.613  12.931  0.0390 -0.1553 -0.1230
 9265W        W25159  16.621   9.812   1.844 -0.0518  0.2079  0.1349
 9266W        W25160   2.783   3.603  13.991  0.2402  0.0893 -0.2069
 9267W        W25161   0.211   3.692  12.538  0.1507 -0.2235  0.2156
 9268W        W25162   7.797   6.543   3.069  0.6038  0.1503 -0.2961
 9269W        W25163  17.010   1.765  14.127 -0.1525 -0.0253  0.0731
 9270W        W25164  16.873  12.767  15.247  0.1973  0.1753  0.0201
 9271W        W25165   8.910   6.512   4.201 -0.1229 -0.5028  0.2926
 9272W        W25166   9.728  12.770  13.303 -0.2360 -0.0467 -0.0236
 9273W        W25167  16.006  16.158  13.709  0.0218 -0.1766 -0.2253
 9274W        W25168  14.422  18.495  12.300 -0.1095  0.0350 -0.1297
 9275W        W25169   8.439   6.536  11.578 -0.0101 -0.2838  0.1701
 9276W        W25170   4.199  15.420  10.713  0.1915 -0.2460 -0.0849
 9277W        W25171   2.065   9.422  13.547  0.0464  0.1577  0.1212
 9278W        W25172   6.234   6.946  11.588  0.1309  0.6200 -0.2153
 9279W        W25173   3.791   9.993   3.993 -0.0977  0.0957  0.1068
 9280W        W25174  14.098  17.320  10.840  0.1078  0.1144 -0.1510
 9281W        W25175   9.194   6.410  13.068 -0.0515 -0.0077 -0.1476
 9282W        W25176   5.141   5.710  12.819  0.1694 -0.2113  0.1079
 9283W        W25177   4.453   9.776  10.835  0.0042 -0.0949  0.1168
 9284W        W25178  10.266  12.706   5.250  0.4084 -0.2378  0.1288
 9285W        W25179   8.673  16.982  13.610 -0.0988  0.4643 -0.2302
 9286W        W25180   9.702  12.286  14.105  0.3411 -0.1972  0.1709
 9287W        W25181   8.835  15.944   2.361 -0.2761  0.3234 -0.2074
 9288W        W25182   6.549   8.038  13.096  0.1073  0.2140  0.1311
 9289W        W25183   0.382   1.632   2.155  0.3998  0.2564 -0.0110
 9290W        W25184   2.430  15.109  12.587 -0.0932  0.0527 -0.0748
 9291W        W25185   9.564   3.209  14.819  0.0055 -0.1180  0.3004
 9292W        W25186   3.043   9.332   4.340  0.4042 -0.1817 -0.2287
 9293W        W25187  14.590  16.352   5.012 -0.0645 -0.2556 -0.2056
 9294W        W25188   7.689  16.758  11.347  0.0686 -0.1056 -0.1362
 9295W        W25189  10.821   8.692   2.578  0.0569 -0.1801 -0.1020
 9296W        W25190  11.191  13.258  11.117  0.1663  0.2164  0.3912
 9297W        W25191   2.332   5.962  12.736  0.2664  0.1070 -0.0848
 9298W        W25192   9.920   5.927  13.087 -0.2226  0.0767 -0.1505
 9299W        W25193  17.263  18.826   5.102 -0.0225  0.0167 -0.1296
 9300W        W25194  14.524  10.722  14.399 -0.1638  0.1062 -0.3517
 9301W        W25195  16.231   6.276  13.172  0.0488 -0.1236  0.1318
 9302W        W25196  18.863  14.286   0.149  0.3535 -0.0046  0.1522
 9303W        W25197   1.248   8.651  12.816 -0.1298 -0.0597  0.2132
 9304W        W25198  16.724  18.469  14.220 -0.3224  0.0814 -0.2986
 9305W        W25199   8.147  13.939  12.042  0.0186 -0.1350 -0.0840
 9306W        W25200  16.233   5.330  11.046  0.0702 -0.1763  0.0727
 9307W        W25201  15.616   5.674  12.646  0.0256  0.0005  0.0885
 9308W        W25202   5.945   6.372   4.943  0.0541 -0.2267 -0.1729
 9309W        W25203   2.108  15.022  11.808 -0.2489 -0.0724  0.0930
 9310W        W25204  11.374  16.696  13.169  0.0254 -0.2147 -0.0855
 9311W        W25205  17.344   0.743   5.837 -0.1754 -0.1806  0.0610
 9312W        W25206   0.710   3.257  15.371  0.0302 -0.2099  0.0768
 9313W        W25207  17.330  15.091  13.529 -0.1859 -0.0017 -0.0474
 9314W        W25208   3.534   0.662   4.261 -0.2150 -0.0308 -0.0355
 9315W        W25209  17.576  15.368   4.390  0.0560  0.1707  0.1566
 9316W        W25210   3.331  14.828  10.920 -0.0339  0.2763  0.0411
 9317W        W25211   0.583  14.853  12.910 -0.1810  0.1413 -0.0939
 9318W        W25212   5.337  11.385  13.173  0.0373 -0.0445 -0.0540
 9319W        W25213   0.755  10.493   2.068 -0.0826 -0.0144 -0.1319
 9320W        W25214   3.770   5.532   1.251 -0.2734 -0.3012 -0.3122
 9321W        W25215  14.992   7.519   2.766  0.0225 -0.2127  0.0110
 9322W        W25216  13.537  10.841   3.882  0.2479  0.0587  0.1824
 9323W        W25217   4.607  12.819   1.492  0.0663 -0.0030 -0.0512
 9324W        W25218  11.362  15.698   4.316 -0.0914  0.1866  0.1232
 9325W        W25219  10.872  12.166   2.865 -0.1102 -0.1210 -0.1198
 9326W        W25220   5.640   1.886   0.930 -0.0745 -0.1047 -0.0993
 9327W        W25221  11.697   1.462   5.600  0.0527 -0.3033 -0.1958
 9328W        W25222  14.737   7.881   4.164 -0.0161  0.1553  0.3080
 9329W        W25223   8.954   1.161   3.671 -0.1512  0.2200  0.0739
 9330W        W25224  13.305   9.265  12.778 -0.0701  0.0433 -0.0687
 9331W        W25225  10.875   8.254   1.064  0.1766  0.1592  0.0781
 9332W        W25226   5.240   5.813   3.089 -0.1182  0.0792 -0.1520
 9333W        W25227  11.671   4.275   3.982  0.0285 -0.0047  0.1697
 9334W        W25228   2.964   3.870   2.607  0.2174  0.1647 -0.2185
 9335W        W25229  16.908  16.051  11.481 -0.0325 -0.0285 -0.1687
 9336W        W25230   2.454  10.449  11.676 -0.0390 -0.3934 -0.0935
 9337W        W25231   2.028  12.199  10.773 -0.0550  0.2647  0.1098
 9338W        W25232  10.126   7.371  10.844 -0.0511 -0.1123  0.2818
 9339W        W25233   4.512   1.809   1.474 -0.1313 -0.1589 -0.2521
 9340W        W25234  15.224   2.626   0.367 -0.1544 -0.0797 -0.1428
 9341W        W25235   4.595   7.836   3.124  0.1466  0.1592 -0.2028
 9342W        W25236   4.929   0.947   0.445  0.0065 -0.0863 -0.0424
 9343W        W25237   6.202   2.581   9.387  0.3507  0.2297 -0.2736
 9344W        W25238   4.830  15.246   5.735  0.1480  0.0990  0.2485
 9345W        W25239  13.181   5.058  14.979 -0.1556  0.0350  0.0325
 9346W        W25240   1.330   7.263   4.450 -0.0112 -0.3438 -0.0654
 9347W        W25241   0.840  11.893   1.003 -0.2548  0.2671  0.3635
 9348W        W25242  12.402   6.103   4.998 -0.0666 -0.1967  0.0141
 9349W        W25243  15.287  15.605   4.694 -0.0518  0.1197  0.5402
 9350W        W25244  18.245   8.662   3.445 -0.0380  0.0659 -0.0378
 9351W        W25245  15.466   3.959   5.339  0.1249 -0.4606 -0.0970
 9352W        W25246   5.123   4.843  10.716  0.1727 -0.0838 -0.0172
 9353W        W25247   1.307  12.089  11.270 -0.2311 -0.1770 -0.1896
 9354W        W25248   2.084  17.207   9.986  0.0321  0.0150 -0.0263
 9355W        W25249   8.377  17.465   3.672 -0.0336  0.0226  0.1115
 9356W        W25250  16.680   6.556  12.996  0.0674 -0.1345 -0.0275
 9357W        W25251   3.093  18.285   1.275  0.1904 -0.2279  0.1699
 9358W        W25252  12.609   9.649  10.497  0.0387 -0.1213  0.1123
 9359W        W25253  15.454  12.270  12.437 -0.1414  0.1219  0.1483
 9360W        W25254   2.995  11.022   0.575 -0.0152 -0.3370 -0.5490
 9361W        W25255   1.836   2.265   2.564  0.0313 -0.0651  0.3139
 9362W        W25256  13.528   2.129  11.485  0.4107 -0.1181  0.2900
 9363W        W25257   7.957  13.473   1.786 -0.0757 -0.1445  0.0545
 9364W        W25258   1.608   6.474   0.557  0.1834 -0.0586 -0.1205
 9365W        W25259   7.797   5.233   5.923  0.1451  0.1326  0.0775
 9366W        W25260   4.518   4.286   0.001 -0.0661 -0.1517 -0.0618
 9367W        W25261   4.585  16.346  11.787  0.1405 -0.1117  0.2598
 9368W        W25262   5.001  16.738  11.708  0.1679  0.1141  0.2850
 9369W        W25263  18.837   4.080   2.268  0.0679  0.2274 -0.0475
 9370W        W25264   6.016   7.141   1.938  0.0292 -0.1109  0.1691
 9371W        W25265   7.528   5.293   2.963  0.1554 -0.1717  0.1051
 9372W        W25266  11.667   3.217   3.338 -0.0640  0.0285  0.0592
 9373W        W25267   0.392   2.550  12.133  0.2911  0.0826  0.5093
 9374W        W25268   4.588   7.695   5.029  0.1818  0.3347 -0.1278
 9375W        W25269   6.223   0.842   0.454 -0.2004  0.1076  0.1580
 9376W        W25270  18.860   4.783   3.202  0.0609 -0.1585  0.1960
 9377W        W25271  13.626  17.023   3.394 -0.2132 -0.1668 -0.2206
 9378W        W25272  13.787  13.285  13.187  0.0388  0.1711  0.0513
 9379W        W25273   9.298  18.469   5.923 -0.0490  0.2253 -0.0238
 9380W        W25274  14.554  10.288  11.881 -0.2520  0.2397  0.1170
 9381W        W25275   0.360  17.319   3.383 -0.2957  0.2035 -0.0158
 9382W        W25276  18.341  10.275  12.308  0.1027 -0.1208 -0.0069
 9383W        W25277   4.167   4.123   4.278  0.0887  0.4369  0.0464
 9384W        W25278   9.330   3.454   1.779  0.3681 -0.1624  0.3089
 9385W        W25279  10.480   8.296  10.061 -0.0439 -0.4475 -0.1261
 9386W        W25280   7.953   3.618  15.400 -0.0074 -0.3232 -0.2127
 9387W        W25281  16.704  13.820  13.820  0.2106  0.2171  0.2284
 9388W        W25282  16.705  14.922   3.851  0.0688  0.1414 -0.0044
 9389W        W25283   1.083   6.649   0.518 -0.0889 -0.0607 -0.3140
 9390W        W25284  10.009   1.092  14.891 -0.2305 -0.1312 -0.1253
 9391W        W25285  13.943   8.718  11.835  0.2594  0.2207 -0.0290
 9392W        W25286  13.261  13.378  12.185  0.3249 -0.3443  0.0929
 9393W        W25287  18.450  14.885  11.653 -0.1327  0.0870 -0.0216
 9394W        W25288  18.307  11.695  10.459  0.1327 -0.0715  0.0861
 9395W        W25289  11.086  14.986   0.487 -0.2065  0.1234 -0.0657
 9396W        W25290  15.483   8.151   4.391 -0.0616  0.1192 -0.0172
 9397W        W25291  13.492   6.042  14.931  0.0450 -0.0293  0.2194
 9398W        W25292  17.391   8.557  15.116 -0.3431  0.0576 -0.0111
 9399W        W25293  11.136  11.784   2.605  0.0181  0.1003  0.2613
 9400W        W25294  17.460   8.254  11.383 -0.1059 -0.3056  0.3142
 9401W        W25295   6.093   5.481   2.160 -0.0282 -0.0271  0.1275
 9402W        W25296   5.871  13.640   0.936  0.2547 -0.0683  0.1295
 9403W        W25297  10.880  13.560   4.060 -0.1235 -0.1238 -0.1433
 9404W        W25298   3.918  10.974   3.607  0.2459  0.2957 -0.0974
 9405W        W25299   0.728   2.863  12.594  0.0450 -0.1374  0.1900
 9406W        W25300  11.953   5.394  10.896  0.2806  0.1619  0.2667
 9407W        W25301  13.916  14.716  12.983 -0.0195  0.2200 -0.0616
 9408W        W25302   2.664   0.776  10.149 -0.0555 -0.0195  0.0680
 9409W        W25303  10.033   5.122  12.401 -0.0263  0.0084 -0.0657
 9410W        W25304   9.511   7.006   2.730 -0.0021  0.1362  0.3263
 9411W        W25305  16.129   6.604  11.147  0.2064 -0.1394 -0.0222
 9412W        W25306   3.183   7.796   0.433  0.1953 -0.0780  0.1194
 9413W        W25307   1.107   6.503  12.755 -0.1528 -0.0227  0.1123
 9414W        W25308  18.789   0.647  13.071  0.0324 -0.0564  0.4648
 9415W        W25309   0.964  14.227   4.797 -0.2108  0.1341  0.0441
 9416W        W25310  14.388   2.143   1.763  0.2138 -0.2461  0.2972
 9417W        W25311   4.648   8.892  12.215 -0.1915 -0.3349  0.3616
 9418W        W25312   2.070  15.275   4.394  0.1702 -0.2850 -0.0715
 9419W        W25313   6.062   8.684   3.256  0.3524 -0.1398 -0.0602
 9420W        W25314  18.703   1.543   0.013 -0.1062  0.0499  0.1577
 9421W        W25315   9.071  15.401   0.521  0.0397 -0.2213 -0.2787
 9422W        W25316   8.408   1.149  14.386  0.0037 -0.0813  0.1550
 9423W        W25317  17.974  10.797   3.492 -0.1521  0.4284  0.1282
 9424W        W25318  16.619   5.204   3.607 -0.3615  0.3438  0.2380
 9425W        W25319   0.801   1.382   5.675 -0.0331  0.2114  0.2296
 9426W        W25320   8.291   6.038   0.865 -0.2323  0.0466  0.0621
 9427W        W25321   3.714  10.743  12.884  0.3337  0.0900 -0.1141
 9428W        W25322  13.983   7.476   4.708 -0.1063  0.1222  0.0744
 9429W        W25323  13.622  12.217  12.149 -0.2192 -0.2590  0.4672
 9430W        W25324  18.682  14.273  15.098  0.1944  0.2622  0.2322
 9431W        W25325   2.601   6.078   0.885  0.0862 -0.2369 -0.0827
 9432W        W25326   9.061   9.009  14.993  0.0258  0.0424  0.0375
 9433W        W25327   1.963   5.612   1.107  0.0847 -0.2671  0.2764
 9434W        W25328   1.478  10.548  11.659 -0.0163 -0.0344 -0.0684
 9435W        W25329   3.256   0.885   3.337  0.0457  0.0687  0.3287
 9436W        W25330  12.999  12.696  14.097 -0.0931 -0.0523  0.1813
 9437W        W25331   7.154  11.693   1.383 -0.4544 -0.2430 -0.2141
 9438W        W25332   9.214   4.576   0.793 -0.0338 -0.2718  0.1048
 9439W        W25333   1.442  14.095   3.175 -0.3523  0.2095 -0.0245
 9440W        W25334   5.004   7.642  14.610  0.1347  0.1640  0.2693
 9441W        W25335  17.576  12.681   0.362  0.0492 -0.2682 -0.2686
 9442W        W25336   9.201  13.133   1.783  0.4191 -0.0351 -0.0907
 9443W        W25337  14.318  17.727  14.325  0.0188 -0.2128  0.0800
 9444W        W25338  14.610  10.445   3.455  0.0949  0.1672 -0.0676
 9445W        W25339  12.024  14.267   4.356 -0.2742 -0.0701  0.0718
 9446W        W25340  13.313  17.076   5.090  0.0483 -0.3571  0.0088
 9447W        W25341  10.220  14.972  12.620  0.1288 -0.0313 -0.0295
 9448W        W25342   7.503  10.453  12.271 -0.3487 -0.1560 -0.0578
 9449W        W25343   8.942   6.515   0.847  0.4187 -0.2544 -0.2939
 9450W        W25344  14.257   9.103   3.406  0.4290  0.2952  0.0622
 9451W        W25345  11.513  16.088   2.306  0.3108  0.1841  0.0628
 9452W        W25346  10.588   1.686   4.011 -0.0224 -0.0159  0.0208
 9453W        W25347   5.953   5.302   2.858 -0.1285 -0.3625 -0.0447
 9454W        W25348  10.859   1.526   3.493 -0.0684 -0.0304 -0.0622
 9455W        W25349   6.646  12.416  11.843  0.3867 -0.0981 -0.0897
 9456W        W25350   9.274   9.792  12.846  0.1293 -0.3399  0.1222
 9457W        W25351   0.871   7.164   1.922  0.1343 -0.2818  0.0543
 9458W        W25352   1.899   8.458   4.455 -0.0674  0.1961  0.3047
 9459W        W25353   9.980  18.324  12.868 -0.1315 -0.3474 -0.1734
 9460W        W25354  18.632   0.729  14.549 -0.1902 -0.2886  0.0271
 9461W        W25355   1.958   0.987   4.333 -0.0916 -0.1444 -0.1942
 9462W        W25356   9.164   6.399  14.160  0.2627 -0.3932  0.0218
 9463W        W25357  14.102   5.597  11.250  0.1258 -0.0769 -0.3725
 9464W        W25358   7.914  18.473   2.089 -0.0729 -0.3826 -0.3989
 9465W        W25359  14.174  17.454  12.830  0.1169  0.0132 -0.1886
 9466W        W25360  13.287  14.125   2.988  0.1541 -0.1886  0.0328
 9467W        W25361   1.635   2.765  14.120  0.0467 -0.1620  0.4882
 9468W        W25362   3.271   8.156   4.868 -0.1550 -0.0347  0.2167
 9469W        W25363   4.251  10.097   3.972 -0.0425  0.0408  0.0328
 9470W        W25364   8.442   3.173   4.010  0.0739  0.0149 -0.0497
 9471W        W25365  12.123   9.815   0.881 -0.1897 -0.2607  0.0904
 9472W        W25366   1.860   4.085   0.167  0.0243 -0.0821 -0.3699
 9473W        W25367   5.174   4.705  14.805  0.1899 -0.2570 -0.1029
 9474W        W25368   2.131   2.125  11.327 -0.1030  0.0551 -0.0926
 9475W        W25369   6.504  17.864   4.781 -0.0240 -0.1531  0.0431
 9476W        W25370   9.952   6.400   3.545 -0.0638  0.0771 -0.0307
 9477W        W25371   7.655   8.323   2.691  0.2146  0.2358 -0.2409
 9478W        W25372   6.795   8.877  11.673 -0.2248 -0.4870  0.0308
 9479W        W25373  10.988   3.523  10.954  0.4239 -0.1709  0.3382
 9480W        W25374  12.275   6.816   4.252  0.2498 -0.1302  0.1581
 9481W        W25375   5.744  10.854  11.868  0.0339  0.1135  0.1915
 9482W        W25376   5.479  15.423   3.651  0.0212 -0.4087 -0.1839
 9483W        W25377   8.686  15.441   0.938 -0.1271  0.1525  0.0835
 9484W        W25378   4.444  11.134  12.997 -0.1167  0.0282 -0.1241
 9485W        W25379  10.171  13.562  12.770  0.1270 -0.0440 -0.3176
 9486W        W25380  13.703  10.700   1.530 -0.2527  0.1275 -0.1355
 9487W        W25381  14.956   3.043   0.731 -0.2818  0.0964 -0.2753
 9488W        W25382  11.459  17.905  14.493 -0.0631  0.2820 -0.0796
 9489W        W25383   9.403  18.747  15.058  0.0989 -0.1208  0.2605
 9490W        W25384   7.490   8.654  11.002  0.0231 -0.1989  0.0600
 9491W        W25385  18.685  17.703  13.741 -0.0005  0.1422 -0.1140
 9492W        W25386  11.081  13.644  13.511 -0.0929 -0.1066 -0.3187
 9493W        W25387   5.707  14.227   0.577 -0.1247  0.0986 -0.1428
 9494W        W25388   6.759  14.097   0.531  0.2514 -0.4065 -0.0930
 9495W        W25389  16.325  13.244   4.923 -0.2603  0.0051 -0.0432
 9496W        W25390   2.687   1.206  15.255  0.0211 -0.0885  0.0544
 9497W        W25391  17.242   3.743  10.917  0.1502 -0.1041 -0.3309
 9498W        W25392   8.294  15.384  14.619  0.0245 -0.0701  0.2693
 9499W        W25393   8.116   6.105   3.090 -0.1110  0.0129 -0.3558
 9500W        W25394   6.908   3.482  15.128  0.1094  0.0211 -0.2387
 9501W        W25395  17.432  15.340   0.335  0.0034 -0.0827 -0.2228
 9502W        W25396  15.161  16.617  13.344 -0.0493 -0.1143  0.0873
 9503W        W25397   5.984   7.718  11.992 -0.3072 -0.2302 -0.1009
 9504W        W25398   6.255   9.030   1.480 -0.0328 -0.1494  0.0282
 9505W        W25399  14.518  12.850   0.103 -0.0870 -0.0913 -0.0651
 9506W        W25400   5.974   9.358  12.846 -0.0620  0.0661 -0.2850
 9507W        W25401   7.181   3.063   5.385 -0.1774 -0.1969 -0.0429
 9508W        W25402  17.858   2.599  12.435 -0.0836 -0.1099 -0.1511
 9509W        W25403  18.729   7.923   1.298 -0.1206  0.3206 -0.1495
 9510W        W25404   1.435  16.305   4.941 -0.0095 -0.3191  0.2513
 9511W        W25405   1.426  12.453  13.023  0.1409  0.4317 -0.0423
 9512W        W25406  16.844   6.681   4.347  0.0789 -0.2785 -0.1352
 9513W        W25407   0.306   7.835   2.428  0.1516 -0.0418  0.1125
 9514W        W25408   3.330   3.480   4.471 -0.2987 -0.1167 -0.0846
 9515W        W25409  17.754  14.526  11.924  0.2335 -0.2244  0.1163
 9516W        W25410   6.825   3.832  14.818  0.1591  0.1667  0.0219
 9517W        W25411  10.822  11.268  15.356 -0.1034 -0.2894  0.3136
 9518W        W25412  18.398  16.977   4.436  0.2001  0.0106 -0.1198
 9519W        W25413   3.588   7.693   0.896 -0.1582 -0.3177 -0.0529
 9520W        W25414  13.357   4.659   3.123 -0.2942 -0.2271  0.1076
 9521W        W25415   3.399   0.834  13.786  0.0388  0.0431 -0.0655
 9522W        W25416   0.178  14.661  10.872 -0.1771 -0.1888 -0.1231
 9523W        W25417   4.872   6.347  12.661 -0.2421 -0.2981  0.2079
 9524W        W25418   7.957  17.139  14.697 -0.0091  0.2010  0.0302
 9525W        W25419   7.777  16.337   0.096  0.0457  0.1632 -0.2261
 9526W        W25420  14.596   6.424  12.831 -0.1635 -0.3512 -0.2721
 9527W        W25421  18.817   2.391   1.183  0.0849  0.3407 -0.3093
 9528W        W25422  10.910  12.265  15.311  0.3025  0.1392 -0.0617
 9529W        W25423   1.591   4.878  12.222 -0.2729  0.4225 -0.0585
 9530W        W25424   7.368  14.497  12.243  0.0140  0.1353 -0.3935
 9531W        W25425  12.935  16.018  13.000  0.3155  0.1407  0.1059
 9532W        W25426   5.496  18.114  11.477 -0.0362 -0.1346 -0.1239
 9533W        W25427  14.567   7.215   0.600  0.0270 -0.1366  0.0504
 9534W        W25428  11.085   8.036  10.683  0.0930  0.1521  0.0446
 9535W        W25429  13.953   2.033   1.559  0.0303  0.2384 -0.2418
 9536W        W25430   7.774   8.571   0.191  0.1177  0.0892 -0.1388
 9537W        W25431  10.278   6.918   3.702  0.1222  0.0948  0.1180
 9538W        W25432  18.808   5.135  10.711  0.3180 -0.4226  0.3314
 9539W        W25433  11.360  12.215   3.002 -0.0167 -0.1052  0.1806
 9540W        W25434  13.413  16.626   5.414 -0.2614 -0.2666  0.0152
 9541W        W25435  18.198  17.727   0.083 -0.0907  0.0588 -0.2845
 9542W        W25436   6.127  17.359   0.945 -0.3668 -0.0076 -0.0984
 9543W        W25437  14.861  14.864   3.275  0.2818  0.3113 -0.0977
 9544W        W25438   8.891   8.193   2.116 -0.2954 -0.0403  0.1001
 9545W        W25439  11.076   2.738   2.042 -0.2048 -0.1752 -0.1716
 9546W        W25440   1.054   3.369   5.137 -0.0946  0.0248 -0.0179
 9547W        W25441  11.952   2.898  11.504 -0.2815 -0.0418 -0.0587
 9548W        W25442  11.348   2.360   1.690  0.0384 -0.1797 -0.2929
 9549W        W25443   0.666  14.935   4.139 -0.2073 -0.3885 -0.0498
 9550W        W25444   8.794  18.680   5.869 -0.0556  0.0352 -0.0345
 9551W        W25445  10.480   1.632   3.183  0.0106  0.0760  0.2050
 9552W        W25446  16.022   2.515  11.548 -0.1193 -0.2157  0.0091
 9553W        W25447   8.781   9.995   2.895 -0.0959  0.0274  0.0112
 9554W        W25448  14.978   5.712  11.269  0.0196  0.0840 -0.2165
 9555W        W25449  15.716  13.409   1.972 -0.1498 -0.1604 -0.1253
 9556W        W25450   6.708  13.900   2.577  0.1347  0.1847  0.0061
 9557W        W25451   8.382  10.743   4.795  0.2909 -0.0227  0.0817
 9558W        W25452  16.587  15.404   2.215  0.0454  0.0108  0.1663
 9559W        W25453   4.740   1.340  12.505  0.1383  0.1030 -0.3534
 9560W        W25454   4.284   1.307  11.043 -0.0628  0.0972  0.0279
 9561W        W25455   4.772   6.950  10.422 -0.0517  0.0574 -0.4267
 9562W        W25456  15.924   5.609  12.184 -0.2040  0.2210  0.0112
 9563W        W25457   5.006   1.749   4.721  0.0161  0.1893 -0.2658
 9564W        W25458  16.189  13.597  14.250 -0.0810  0.0101  0.0482
 9565W        W25459   4.968   0.120   4.348  0.0585 -0.1875  0.2118
 9566W        W25460  16.693  13.253  15.187  0.2112 -0.1872 -0.1988
 9567W        W25461   1.581   6.751  11.237  0.2612 -0.0206  0.1201
 9568W        W25462  17.183   6.248   2.481  0.1364  0.0625  0.1169
 9569W        W25463  18.212   4.999   9.348 -0.1370  0.4513 -0.1992
 9570W        W25464  17.165   9.303  12.537  0.5318  0.0090  0.0975
 9571W        W25465   1.253  11.953  13.981 -0.2795  0.1499  0.1710
 9572W        W25466   7.671   3.416  14.933 -0.2488  0.0939 -0.0360
 9573W        W25467  16.235  13.184   4.311  0.0071 -0.1538  0.3637
 9574W        W25468   6.227   8.888  13.686 -0.0719 -0.2228  0.0062
 9575W        W25469   4.295   3.533  12.530  0.0806  0.1123 -0.0650
 9576W        W25470  18.759  13.794   0.951  0.2611  0.5029 -0.1467
 9577W        W25471   6.887  15.648  14.349  0.1397 -0.2471 -0.2285
 9578W        W25472   3.007   0.522   3.560 -0.2542 -0.0544  0.4479
 9579W        W25473   6.938   7.649   1.263 -0.0732 -0.0318 -0.3819
 9580W        W25474   2.941  17.142  11.314 -0.1511  0.0601 -0.1572
 9581W        W25475   6.979   8.641  10.843  0.1118  0.1610 -0.2733
 9582W        W25476   1.118  15.460   1.453  0.4005 -0.2075 -0.0385
 9583W        W25477   2.687  17.772   4.529 -0.4075  0.1818  0.0574
 9584W        W25478  18.802  11.022  11.811  0.2148 -0.0111 -0.0442
 9585W        W25479   2.282  10.714  12.307 -0.0618  0.0825 -0.2553
 9586W        W25480  12.809  12.324   2.930  0.1446 -0.2962 -0.1230
 9587W        W25481   7.358   4.293  10.910  0.1227 -0.3374  0.0335
 9588W        W25482   5.204   8.142  14.478  0.1913  0.1295  0.0391
 9589W        W25483  15.520  14.206   3.519 -0.0704  0.2600 -0.1808
 9590W        W25484  17.968  17.205  12.933 -0.2406 -0.0122  0.1160
 9591W        W25485   8.646   4.362  14.896  0.1145  0.1671  0.2827
 9592W        W25486  14.864  18.765   3.084  0.2008 -0.0680  0.0645
 9593W        W25487   8.947  17.642   1.138 -0.1201 -0.1513 -0.2338
 9594W        W25488  10.618   9.939   0.111  0.1578 -0.0541  0.3057
 9595W        W25489  10.569   7.879   2.419 -0.1762  0.2011  0.2300
 9596W        W25490   0.665  15.661   1.522  0.0641  0.0377  0.2154
 9597W        W25491  12.890   5.187  13.136  0.0416 -0.1068  0.0070
 9598W        W25492   0.381  18.785  11.215  0.1372 -0.0936  0.0830
 9599W        W25493   2.500  18.681  13.535  0.2862  0.0259  0.2174
 9600W        W25494  14.700  13.097  13.468  0.1344 -0.0130  0.1788
 9601W        W25495   4.264  11.051   2.639  0.2647 -0.0646 -0.3930
 9602W        W25496  16.252   9.405  14.862 -0.1322  0.4234  0.0033
 9603W        W25497   3.489  15.832  11.722 -0.2799 -0.1320 -0.0008
 9604W        W25498   9.159   0.069  13.347 -0.1679  0.2492 -0.1196
 9605W        W25499  16.828   9.366   1.912 -0.0914 -0.1603 -0.1549
 9606W        W25500   6.678   2.211   5.259  0.0501 -0.1359 -0.0982
 9607W        W25501   0.393  10.086   0.033  0.1663  0.0321  0.2091
 9608W        W25502   1.653  12.486   2.611 -0.0969  0.0276  0.1254
 9609W        W25503  17.117   2.464  11.118  0.0899  0.0270  0.2093
 9610W        W25504   2.985  11.917   3.357 -0.0179 -0.2387 -0.3619
 9611W        W25505  14.328  15.392  12.286  0.0641 -0.2625  0.2088
 9612W        W25506  17.957   7.453  11.144  0.2022  0.0252  0.2348
 9613W        W25507  17.395   7.306  10.388  0.2153  0.4073  0.2898
 9614W        W25508   3.475   3.684  12.561 -0.0080  0.0811 -0.0184
 9615W        W25509  15.163   3.324   3.475  0.2181  0.2787 -0.1931
 9616W        W25510  11.041   7.467  13.403 -0.0945  0.1757 -0.0682
 9617W        W25511  15.916   7.041   2.902 -0.0059  0.0135 -0.0406
 9618W        W25512   3.536   0.759   5.752 -0.4713 -0.3007  0.0214
 9619W        W25513  18.050   0.166   5.676 -0.1963  0.3687  0.3260
 9620W        W25514  10.716   3.106  11.208 -0.0648  0.0670  0.0033
 9621W        W25515   4.374  17.791   3.530  0.3463 -0.3181  0.4471
 9622W        W25516   3.124   4.448  13.794 -0.1110 -0.1940  0.0189
 9623W        W25517  11.160  16.520   2.844  0.0605  0.1523 -0.2354
 9624W        W25518  10.806  18.092   3.597  0.0145  0.2192 -0.1446
 9625W        W25519   7.862   3.104   2.622 -0.2766  0.1241 -0.3300
 9626W        W25520   8.770  12.613   0.419  0.2335 -0.3700 -0.0695
 9627W        W25521   4.036  13.302   3.932 -0.0050  0.2235 -0.1361
 9628W        W25522   2.085   6.631   0.382 -0.4238 -0.0921 -0.2996
 9629W        W25523  18.701  13.569   2.291  0.1116  0.2340 -0.2116
 9630W        W25524  10.935   0.909   2.007  0.1474 -0.0345 -0.0946
 9631W        W25525  15.504   3.450  11.537  0.0719 -0.0276 -0.1037
 9632W        W25526   2.656  13.001  15.041 -0.2857  0.0584  0.0846
 9633W        W25527   4.106  14.130  12.964 -0.0178  0.2621  0.0964
 9634W        W25528   0.219  10.337   2.067 -0.3281  0.0208  0.2243
 9635W        W25529   4.624   0.519   4.192  0.2811 -0.1155 -0.3067
 9636W        W25530   6.502  13.476   3.559 -0.0169 -0.0592  0.0320
 9637W        W25531   7.816  13.119  13.554 -0.1377  0.1034  0.1044
 9638W        W25532   1.030  10.688   3.931  0.0057 -0.0667  0.0901
 9639W        W25533   4.587  11.974   1.421  0.2614 -0.2426  0.3214
 9640W        W25534   6.928   6.525   1.301  0.2140 -0.1484 -0.1407
 9641W        W25535   9.508   2.863   6.002  0.0659 -0.1228 -0.4236
 9642W        W25536   6.511   6.972  12.206  0.0283 -0.0950 -0.0903
 9643W        W25537  11.288  17.242   1.070  0.0522 -0.2098 -0.0776
 9644W        W25538  17.282   1.093   2.490 -0.1282 -0.0160  0.1406
 9645W        W25539  18.372  18.442   3.755 -0.0803  0.0381 -0.1217
 9646W        W25540   0.389   4.112   3.827  0.0219  0.1116 -0.0214
 9647W        W25541  15.161   6.932   1.976 -0.1749  0.1153  0.0752
 9648W        W25542   0.579  11.110   0.954  0.1101  0.0943 -0.2007
 9649W        W25543   4.173   1.379   3.535 -0.2596 -0.1824 -0.1616
 9650W        W25544  11.973   7.972   2.298  0.0801  0.0659 -0.4570
 9651W        W25545   0.855   5.861  14.941  0.4898 -0.2318  0.2105
 9652W        W25546   6.676  11.517  14.434 -0.0152 -0.0395  0.1759
 9653W        W25547   9.743   5.284   0.648 -0.0590 -0.0641 -0.2038
 9654W        W25548   3.517  13.157   4.283  0.0544 -0.2337  0.1656
 9655W        W25549   7.638   6.059   2.944  0.0800 -0.2304 -0.2251
 9656W        W25550  13.073   2.323  14.083 -0.0496 -0.1480 -0.1599
 9657W        W25551   0.170   2.507   3.980  0.2921 -0.4180 -0.1529
 9658W        W25552   1.238  18.416   2.830  0.0464 -0.0641 -0.1367
 9659W        W25553  15.692   4.818   9.586 -0.1797 -0.0769  0.0191
 9660W        W25554   5.288   9.034  15.490  0.0043  0.1264 -0.0883
 9661W        W25555  16.756  12.505  13.443 -0.3708 -0.0581 -0.1901
 9662W        W25556  12.869   2.086   2.382  0.1769 -0.2472  0.0066
 9663W        W25557  13.893   7.335  13.081 -0.3202 -0.1266 -0.1225
 9664W        W25558  13.662  13.983   2.513 -0.2715  0.0991 -0.0538
 9665W        W25559   3.187  12.144   2.830  0.1548 -0.1135  0.1602
 9666W        W25560   9.796   7.347  10.455  0.0065  0.2450 -0.2635
 9667W        W25561  12.045   0.125  14.765 -0.1025 -0.1518  0.3507
 9668W        W25562   3.045   3.922  12.401  0.1460  0.1157  0.0261
 9669W        W25563  17.665   3.788  15.165 -0.0811  0.3719 -0.0121
 9670W        W25564  14.459   5.426  14.649 -0.1005  0.0609 -0.5283
 9671W        W25565  17.724  17.494  14.921 -0.1039  0.0483 -0.1481
 9672W        W25566   3.816   7.992   4.821  0.0640  0.1750 -0.0872
 9673W        W25567  11.317  10.941  13.483  0.4808 -0.0935 -0.1577
 9674W        W25568  16.605  11.862   1.710  0.0586  0.2986 -0.0120
 9675W        W25569   1.342  11.075  14.881 -0.2707  0.1133  0.1734
 9676W        W25570  10.364   1.640   1.980 -0.1012  0.1552  0.0621
 9677W        W25571  11.992   5.658   2.294  0.0542 -0.0439  0.1132
 9678W        W25572  16.468   0.667   2.919  0.0357  0.2792  0.0855
 9679W        W25573  15.469  10.972   3.342 -0.2601  0.2093 -0.1100
 9680W        W25574  13.492   0.851  14.413 -0.0785  0.1969  0.2250
 9681W        W25575   2.395  17.209   5.621  0.0721  0.0217  0.1997
 9682W        W25576  18.702  17.183   1.748  0.1530  0.0262  0.0322
 9683W        W25577  17.230  18.484   3.766  0.1603  0.3960  0.0877
 9684W        W25578   1.533  12.438  10.979 -0.4313 -0.1658 -0.0990
 9685W        W25579  17.299   9.427  14.232 -0.0923 -0.2310 -0.2745
 9686W        W25580   7.556  16.587   3.410  0.0625  0.3774  0.0134
 9687W        W25581  12.566   2.210  11.634 -0.0188 -0.0153  0.1281
 9688W        W25582  10.589   2.785   0.728  0.1874  0.1990 -0.0530
 9689W        W25583   8.704   8.553  11.050  0.0438  0.1356 -0.0812
 9690W        W25584  10.944   1.506   4.473  0.0925  0.3236  0.1958
 9691W        W25585   5.560  14.970   2.157  0.0751 -0.0056 -0.0133
 9692W        W25586   3.504  18.111   1.853 -0.2996  0.0826  0.3650
 9693W        W25587   9.678   6.479   2.118  0.1251 -0.4177  0.2017
 9694W        W25588   5.933  18.817  12.510  0.2498  0.1421  0.0580
 9695W        W25589  12.143   5.690  13.839  0.0373  0.2087  0.1491
 9696W        W25590  13.729   0.831  13.797  0.3169  0.0840 -0.0170
 9697W        W25591  11.632   6.591   2.181 -0.0758 -0.2595 -0.1055
 9698W        W25592  13.678  16.138   5.511 -0.0814  0.0026  0.2362
 9699W        W25593   2.445   5.960  10.927 -0.2997  0.0238 -0.1168
 9700W        W25594  10.112  16.203   1.420 -0.0334 -0.0280  0.3733
 9701W        W25595   5.258  12.107   3.455 -0.0487  0.0597 -0.0298
 9702W        W25596   4.377   1.533   9.677  0.2794  0.1544 -0.1272
 9703W        W25597   9.227   8.823  12.386  0.0885 -0.1515 -0.0298
 9704W        W25598   8.690  17.068  10.746  0.0404 -0.0090  0.0167
 9705W        W25599  16.414  16.393  12.920 -0.1811  0.2029  0.2408
 9706W        W25600   7.887   0.094   9.986  0.1551  0.0484  0.1932
 9707W        W25601  17.925  18.540   1.057  0.1619  0.2587  0.1944
 9708W        W25602  11.183  17.240   5.674 -0.3740  0.3819 -0.3220
 9709W        W25603   5.133  14.643  14.691 -0.2356 -0.1933  0.1105
 9710W        W25604  17.873  10.513   1.224 -0.0861  0.1132  0.0928
 9711W        W25605   0.161  18.218  13.189  0.1044 -0.1875  0.2951
 9712W        W25606   6.002   4.780   4.104 -0.3483 -0.3124  0.0841
 9713W        W25607   7.855  15.483   4.413  0.0873 -0.1916 -0.0541
 9714W        W25608  15.912  15.192   3.753 -0.2608  0.2830  0.3093
 9715W        W25609   4.598   5.495  12.987 -0.0028 -0.1631  0.0285
 9716W        W25610   4.240  14.883   2.377 -0.1260  0.2398 -0.1085
 9717W        W25611   5.286  11.461  15.011  0.0029 -0.1779  0.1345
 9718W        W25612   1.256  18.682   4.949  0.0055 -0.3320  0.0648
 9719W        W25613  17.803   6.501   1.699  0.0173  0.1965  0.2379
 9720W        W25614  17.500  13.083   1.934 -0.1272  0.2711  0.1076
 9721W        W25615   7.670   6.984   2.294 -0.0426 -0.2475 -0.1796
 9722W        W25616  12.431   2.038  14.956  0.2388  0.0279  0.0074
 9723W        W25617   2.978  17.550  11.606  0.1371  0.0596 -0.0989
 9724W        W25618  16.169   9.334  11.322  0.3742  0.1253 -0.1344
 9725W        W25619   4.069  12.980   3.536 -0.0167  0.0309 -0.0678
 9726W        W25620  16.921   2.574  10.311  0.0436  0.0585  0.0699
 9727W        W25621   8.839   9.523  11.182  0.1137 -0.0586 -0.0811
 9728W        W25622  12.559   9.463  14.986  0.3369  0.1829 -0.1675
 9729W        W25623  13.550  18.617  12.423 -0.0828 -0.0882  0.1802
 9730W        W25624  15.193   7.960   3.960 -0.0326 -0.0070  0.2121
 9731W        W25625  16.854   3.400   2.112  0.2203  0.1661  0.2132
 9732W        W25626   7.259  16.745   3.969 -0.0512 -0.0511 -0.3600
 9733W        W25627   3.190   9.342   3.042 -0.0800  0.1086  0.0270
 9734W        W25628  15.597   3.727   3.394 -0.1920  0.0594 -0.1368
 9735W        W25629   6.744  13.867  13.923  0.2922 -0.0649  0.0130
 9736W        W25630  16.532  18.521  12.280  0.0830  0.0848  0.0268
 9737W        W25631  12.524  12.257  15.409  0.1484 -0.0315  0.5809
 9738W        W25632  12.715   5.593  14.288 -0.3066 -0.2956 -0.2542
 9739W        W25633   5.673  12.069   4.397  0.1027 -0.1250  0.4041
 9740W        W25634   3.061   9.062   0.264 -0.1394 -0.3446  0.1123
 9741W        W25635  13.036   5.048   3.156 -0.0538  0.0289 -0.2090
 9742W        W25636   8.614   9.618   0.631 -0.2817 -0.0233 -0.0140
 9743W        W25637   6.374   2.295   1.272  0.1360  0.3269  0.0193
 9744W        W25638  11.836   7.681  13.908 -0.0626  0.1099 -0.0360
 9745W        W25639   8.937  11.414   4.252  0.0151  0.3122  0.1615
 9746W        W25640   0.800   5.332   4.458  0.0545  0.4509 -0.1379
 9747W        W25641  14.958   2.289   4.012 -0.2774 -0.4317  0.0774
 9748W        W25642   6.955  10.130   4.174 -0.1520 -0.0032  0.0548
 9749W        W25643   3.502  15.365   1.434  0.0260  0.0369 -0.1312
 9750W        W25644   7.070   8.145  10.217 -0.0235 -0.1351 -0.2153
 9751W        W25645  15.846  10.260   1.375  0.2395  0.0023  0.0341
 9752W        W25646   4.745   8.417  12.175  0.1287  0.3598 -0.4821
 9753W        W25647   9.164   2.206   4.662 -0.0385  0.1876 -0.0762
 9754W        W25648   0.359   9.050  15.401  0.1211  0.4307 -0.2338
 9755W        W25649  18.615  12.496  13.726 -0.0055 -0.0699  0.3652
 9756W        W25650   5.198  13.352  12.393 -0.0531 -0.1098 -0.1517
 9757W        W25651   5.631  10.530   4.800  0.0682  0.4231 -0.0952
 9758W        W25652   2.882   8.512   2.439 -0.1071 -0.0961 -0.1654
 9759W        W25653   8.384   7.156  11.365  0.1039 -0.1887  0.0464
 9760W        W25654   6.717  14.897   1.729  0.1227 -0.2308 -0.0827
 9761W        W25655   4.651   3.441   3.889 -0.2436  0.0053 -0.3920
 9762W        W25656  10.961   2.782   3.788 -0.2919  0.3077  0.0214
 9763W        W25657  15.713   3.129  11.936 -0.3673 -0.0403  0.0239
 9764W        W25658  11.574  10.280   4.705  0.2647 -0.0643 -0.1019
 9765W        W25659  10.741   6.529  13.637 -0.2319 -0.0692  0.1929
 9766W        W25660   1.657   4.077  12.911 -0.0434 -0.0871  0.1180
 9767W        W25661   1.057   5.659  13.957  0.2482 -0.4299  0.0862
 9768W        W25662   0.934  13.477  15.088  0.1191 -0.0613 -0.0039
 9769W        W25663  12.783   6.249  13.453  0.0234  0.1386 -0.0897
 9770W        W25664  11.631   8.851   2.896 -0.0935  0.3287 -0.1028
 9771W        W25665  18.471   9.669   2.865 -0.1481  0.1667  0.2096
 9772W        W25666  11.207  12.777   4.490  0.0026 -0.0373 -0.1588
 9773W        W25667   8.334   6.151   0.288  0.1372 -0.1500 -0.0463
 9774W        W25668  16.720   6.799  12.442 -0.1916  0.0670  0.1739
 9775W        W25669   9.086  11.320   0.354  0.0801 -0.0131  0.0499
 9776W        W25670   7.871   4.631   0.104 -0.3865 -0.3435 -0.3490
 9777W        W25671  16.341  15.197  11.719 -0.0877  0.0379 -0.0708
 9778W        W25672   7.494  16.434   5.401 -0.1682  0.4433  0.1625
 9779W        W25673  17.257   5.893   3.248  0.1678 -0.0811 -0.0983
 9780W        W25674   4.366   0.961  12.184 -0.2245  0.1482  0.3403
 9781W        W25675  15.064  17.601   1.616  0.2471  0.0987  0.0073
 9782W        W25676   0.054  17.993   3.998 -0.3306  0.0438  0.0496
 9783W        W25677  13.207  16.453  11.343 -0.4897 -0.0998 -0.0391
 9784W        W25678  15.483   5.323  13.142 -0.2388 -0.1688 -0.4382
 9785W        W25679  17.054   4.457  10.838 -0.0195  0.1408 -0.1146
 9786W        W25680  18.168  13.830  10.850  0.2994 -0.0619  0.2189
 9787W        W25681   1.668   7.156   2.684 -0.1531 -0.2008 -0.1210
 9788W        W25682  10.612  11.548  13.936 -0.0382 -0.0313 -0.0229
 9789W        W25683  13.275  16.910   3.784 -0.1021 -0.0201  0.1008
 9790W        W25684  18.799  10.219  12.479  0.1517 -0.2684  0.1417
 9791W        W25685  17.252  10.927  12.196  0.4166  0.0237  0.1252
 9792W        W25686   7.958   2.697  15.387  0.1057 -0.1534  0.0278
 9793W        W25687  13.412  15.915  13.872  0.2252  0.1364  0.1211
 9794W        W25688   6.845  15.099   4.346 -0.4674  0.2060 -0.0700
 9795W        W25689   6.225   7.302  14.082  0.2031 -0.0431 -0.1359
 9796W        W25690   7.811  15.412   2.718  0.0588  0.0685  0.1278
 9797W        W25691  14.919   2.091  13.246  0.0920  0.0797 -0.0724
 9798W        W25692   1.620  17.334  13.642 -0.0024 -0.2273  0.0191
 9799W        W25693   4.083  16.825   0.505 -0.0492  0.2641 -0.1934
 9800W        W25694   4.031   6.772   2.613 -0.0336 -0.2632  0.0422
 9801W        W25695  11.900   2.808  13.215  0.3132  0.0742  0.2368
 9802W        W25696  12.632  15.511   1.019  0.0650 -0.0269 -0.0840
 9803W        W25697  13.610   8.420   5.738 -0.0186  0.0195 -0.4052
 9804W        W25698   2.379   4.525  12.637  0.2500 -0.0238  0.2745
 9805W        W25699   7.109  10.209  15.312  0.0746  0.1817  0.0144
 9806W        W25700  17.797   5.008  15.150 -0.0153 -0.1524  0.0081
 9807W        W25701   3.530   3.376  10.878 -0.0633  0.0462 -0.1540
 9808W        W25702  11.272   5.397  13.813 -0.1231 -0.1696 -0.1815
 9809W        W25703   1.276   2.781  11.819  0.0247 -0.2645  0.0775
 9810W        W25704  15.600   2.737  11.188  0.3777 -0.1195 -0.3290
 9811W        W25705  18.833   8.882   1.583  0.0999  0.0090  0.0759
 9812W        W25706   6.632   0.161  13.490  0.2354  0.2178  0.2254
 9813W        W25707   8.989   7.609  11.235  0.1633  0.1219  0.0313
 9814W        W25708   6.725  18.536   0.182 -0.2088  0.0124 -0.4231
 9815W        W25709  16.632   4.220   2.486  0.1434 -0.0750 -0.0407
 9816W        W25710  18.351  12.351  14.564  0.3825  0.1924 -0.2982
 9817W        W25711   1.899   1.935  14.776  0.0939 -0.1068  0.1486
 9818W        W25712   0.684   1.520  12.184  0.2950  0.3089  0.4131
 9819W        W25713   2.672  18.364  12.626 -0.1587  0.3793 -0.1908
 9820W        W25714   0.809   0.869   0.341  0.0090 -0.0824  0.0800
 9821W        W25715  15.854   4.651  11.436 -0.3288  0.0151  0.2337
 9822W        W25716  14.444  16.506   3.080 -0.2635  0.0428 -0.1306
 9823W        W25717   8.638   5.756   4.075 -0.0869  0.0143 -0.1450
 9824W        W25718   5.966   9.913  13.185  0.0008 -0.3039 -0.1624
 9825W        W25719  16.226  10.748   0.318  0.0267 -0.2919  0.1564
 9826W        W25720   3.600   1.406   0.136 -0.1037  0.4009  0.2820
 9827W        W25721   4.179  17.001   0.024  0.0102 -0.2543  0.0235
 9828W        W25722   9.854  12.233   4.237 -0.0216  0.0458  0.0658
 9829W        W25723  15.475   3.686   4.964  0.0352  0.0322 -0.1300
 9830W        W25724   4.359   0.913   4.003  0.1484 -0.2918  0.1725
 9831W        W25725  11.927  10.352   2.827  0.0348 -0.0046  0.2554
 9832W        W25726  15.016  10.197   3.687 -0.0463 -0.0170 -0.3738
 9833W        W25727   5.275   5.498   4.265 -0.1123  0.2441  0.1830
 9834W        W25728  16.357  10.654   2.588 -0.0665 -0.1832  0.2640
 9835W        W25729   4.327   0.036  11.839  0.1857  0.1121  0.1951
 9836W        W25730  18.247   8.133  14.951  0.2274  0.1722 -0.2213
 9837W        W25731  14.252  17.116   1.566  0.0637  0.3756 -0.1695
 9838W        W25732  11.208  10.100  13.244  0.3463  0.0500 -0.1132
 9839W        W25733  17.985  17.142   1.101  0.0438 -0.0586 -0.0206
 9840W        W25734   1.752  11.404   3.452 -0.1698  0.1762 -0.1058
 9841W        W25735  12.085  15.393  14.522 -0.3034  0.0501 -0.1193
 9842W        W25736   3.636  16.545  11.259 -0.0694 -0.1623 -0.3346
 9843W        W25737  17.032   8.998   1.378  0.1900 -0.0238  0.0628
 9844W        W25738  17.287  14.802  14.719  0.1700  0.0608  0.1802
 9845W        W25739   2.162   9.289   3.248  0.3796 -0.2637  0.0299
 9846W        W25740  12.090  15.704   5.333 -0.0590 -0.2682  0.1404
 9847W        W25741  16.018   5.227   0.784 -0.0389 -0.0633 -0.2304
 9848W        W25742  12.368   8.234   0.109  0.0781  0.0462  0.3558
 9849W        W25743  17.625   1.024  14.316 -0.1455 -0.1164  0.0486
 9850W        W25744   9.135   2.250   5.675  0.0908  0.1444 -0.0430
 9851W        W25745   2.129  12.288   2.948  0.0098  0.2322  0.2391
 9852W        W25746   4.861  14.214  14.714  0.1436  0.0787  0.2225
 9853W        W25747  14.551   6.248   1.145  0.0309 -0.0677 -0.1880
 9854W        W25748  17.921   9.582   1.566 -0.1422  0.1115  0.0838
 9855W        W25749  17.563  14.941  15.179  0.1008  0.1238  0.4284
 9856W        W25750  17.320  14.689   1.864  0.1676 -0.2443 -0.3378
 9857W        W25751   7.395  10.234   0.631  0.2391  0.0590 -0.0843
 9858W        W25752   4.904   7.283  13.544  0.1747  0.1214 -0.1610
 9859W        W25753   8.393   4.389   5.855  0.0090  0.0094 -0.3326
 9860W        W25754   7.541   4.564   5.025  0.2089  0.0828 -0.3820
 9861W        W25755  14.002   0.851  14.273  0.0759 -0.1059  0.0951
 9862W        W25756  17.637  10.381  14.418 -0.2059 -0.3533 -0.5396
 9863W        W25757  14.146  12.614   5.303 -0.0982  0.0799 -0.0671
 9864W        W25758   8.457  13.063  12.331  0.1229 -0.3339 -0.0235
 9865W        W25759  12.933   3.410   4.843 -0.0681  0.1920 -0.1857
 9866W        W25760   5.792  15.058   4.605 -0.3000 -0.0848 -0.2131
 9867W        W25761   9.035  16.317  11.417  0.2324 -0.1717  0.0650
 9868W        W25762  14.887  10.632  11.589  0.1645  0.2475  0.0530
 9869W        W25763   7.182   9.778  12.485  0.3201  0.0960  0.1235
 9870W        W25764   6.221   8.544   5.422 -0.2549 -0.2526 -0.0220
 9871W        W25765   4.981   1.044   2.680  0.1145 -0.0169  0.3771
 9872W        W25766  12.238   4.091   3.250 -0.2413 -0.1429 -0.3287
 9873W        W25767   9.107   8.690   2.114  0.3193  0.0297  0.0905
 9874W        W25768  13.551  14.982   3.595  0.0183 -0.2650 -0.1888
 9875W        W25769  16.214   0.475   1.150 -0.0304  0.0547 -0.0727
 9876W        W25770   9.092   5.864   1.972  0.0268  0.1817  0.1392
 9877W        W25771   0.715  18.881  10.314  0.1079 -0.0066 -0.0873
 9878W        W25772   1.496   3.603  15.076  0.1090  0.1095 -0.2311
 9879W        W25773   1.842   3.192  13.268 -0.2425 -0.1378  0.0564
 9880W        W25774   3.204  13.609   1.739  0.2416 -0.0993  0.2563
 9881W        W25775   8.394   0.355   3.000 -0.2070 -0.0629  0.1521
 9882W        W25776   9.488  17.394  15.036 -0.0760 -0.0821 -0.3305
 9883W        W25777  11.725   0.839  12.951  0.2053 -0.0118 -0.0243
 9884W        W25778  15.744   4.498  12.459  0.2931  0.4257  0.0031
 9885W        W25779  17.596   8.773   2.155  0.1475  0.0679  0.4939
 9886W        W25780   5.931  15.371  11.704  0.0295 -0.0080  0.1065
 9887W        W25781   5.228  10.784  12.006 -0.2718 -0.0892 -0.3199
 9888W        W25782  15.970  10.116   0.182 -0.0788  0.0199 -0.3818
 9889W        W25783  13.347  15.361   2.524  0.0582 -0.2141  0.2812
 9890W        W25784   3.122   1.215   1.208 -0.0124  0.0482 -0.0361
 9891W        W25785   7.564  17.596   5.499 -0.0240  0.1995  0.1596
 9892W        W25786   2.954  16.559  15.024  0.0617 -0.1960  0.2669
 9893W        W25787   5.669  10.985   2.999  0.1177  0.1838 -0.0344
 9894W        W25788  12.847  13.129  15.281 -0.3646 -0.2320 -0.0099
 9895W        W25789   7.295   0.356   3.971  0.2958 -0.0678  0.1383
 9896W        W25790  13.730   6.234  13.032  0.1457  0.1045  0.1711
 9897W        W25791  16.454  16.649  12.403 -0.0891  0.0704 -0.1331
 9898W        W25792   7.069  15.317  12.787 -0.0092 -0.1366  0.2032
 9899W        W25793  13.622  12.225   1.579  0.0733  0.1335 -0.1182
 9900W        W25794   5.394  10.799  13.909  0.2732  0.0869 -0.2297
 9901W        W25795  15.455  11.775   0.011 -0.1091 -0.2891 -0.2566
 9902W        W25796   6.671  11.140  13.483 -0.1825  0.0373 -0.0283
 9903W        W25797   0.034   6.774  11.843  0.2742  0.1803  0.2746
 9904W        W25798   5.176  17.166   2.581  0.0699  0.0416 -0.2741
 9905W        W25799  12.077   4.109   0.635  0.0520  0.0152  0.0705
 9906W        W25800   0.689   7.927   3.795 -0.0429  0.1039  0.0146
 9907W        W25801   8.221   3.787  12.352 -0.1994  0.3999 -0.0522
 9908W        W25802   9.133   5.412   4.784 -0.0622 -0.2158  0.0345
 9909W        W25803  18.853   1.538   1.523 -0.0805  0.3516 -0.1976
 9910W        W25804  10.266   6.545   3.135 -0.0100 -0.2773 -0.1615
 9911W        W25805  16.338   7.178   1.321 -0.2085  0.0074 -0.1007
 9912W        W25806  16.043  14.844  14.124  0.4351 -0.4128  0.1254
 9913W        W25807  17.069  13.460   3.809  0.0173 -0.1260 -0.0414
 9914W        W25808   7.068  13.063   1.635  0.1451  0.3061 -0.2137
 9915W        W25809  16.586   9.010  14.857 -0.0171  0.2508 -0.1583
 9916W        W25810  17.631  15.498  11.084  0.1900 -0.0508  0.0259
 9917W        W25811   3.991  11.114  15.002 -0.3601 -0.4450  0.2659
 9918W        W25812  17.557  17.165  14.612  0.0053  0.6327  0.2695
 9919W        W25813  12.613   2.197   5.005 -0.1032  0.1203 -0.1403
 9920W        W25814   1.653   7.468  11.891  0.1742  0.2022 -0.0153
 9921W        W25815  17.045  10.508  11.368  0.0489  0.1238  0.0333
 9922W        W25816   0.123   8.151   0.229  0.3912 -0.1186  0.0408
 9923W        W25817  12.873   4.386  11.644 -0.0857  0.2740 -0.0965
 9924W        W25818  10.826  11.805  13.538  0.1750  0.0687  0.0315
 9925W        W25819   2.919   0.907  11.338  0.1548  0.1960 -0.0187
 9926W        W25820  13.879   6.901  11.841  0.1619 -0.3125  0.2679
 9927W        W25821  16.020   1.066   5.409  0.0396 -0.0966 -0.2484
 9928W        W25822   3.092   6.595   1.509 -0.1005  0.0934 -0.0639
 9929W        W25823  18.034   1.698   2.925 -0.2945 -0.1117  0.1501
 9930W        W25824  15.711   0.831   1.578  0.1511 -0.2322 -0.1136
 9931W        W25825   5.621   7.435  11.834  0.0439 -0.0269 -0.0800
 9932W        W25826  14.902  14.679  15.290 -0.1248  0.0344 -0.0287
 9933W        W25827  16.781   2.120  13.658 -0.0718 -0.0277  0.2605
 9934W        W25828   4.962  13.428   1.995 -0.2837 -0.1972 -0.2695
 9935W        W25829   5.805   9.181  11.807 -0.2028  0.0847  0.2896
 9936W        W25830  17.764   6.539   0.006 -0.2060 -0.3913  0.1763
 9937W        W25831  17.083   4.395  11.328 -0.0919 -0.4807  0.0861
 9938W        W25832   2.670   3.715   0.446  0.1663  0.4044  0.0759
 9939W        W25833  12.465  17.595   0.542 -0.1351  0.0562  0.4135
 9940W        W25834  17.756  15.394   3.227  0.0666 -0.6053 -0.1929
 9941W        W25835  15.322  15.017   5.644  0.2495 -0.2876 -0.1697
 9942W        W25836  16.478  12.114   3.142  0.3476  0.1587  0.0049
 9943W        W25837  11.592   1.949   5.229  0.3781  0.0325 -0.0265
 9944W        W25838   6.086   6.577   3.226 -0.4331  0.2273  0.2890
 9945W        W25839   6.907  16.048  13.769  0.1444  0.0123  0.0361
 9946W        W25840   6.243   1.914  11.752  0.0020 -0.1135  0.0477
 9947W        W25841   8.036   7.168  14.327 -0.2781  0.1250 -0.1695
 9948W        W25842   7.081   3.430  11.547 -0.1966  0.0007  0.0025
 9949W        W25843  10.362   6.271  14.404  0.1404 -0.0936  0.0294
 9950W        W25844  10.195  12.258  15.238 -0.2859  0.1160  0.2435
 9951W        W25845  13.390  13.334   0.636  0.0237 -0.1924 -0.1713
 9952W        W25846   2.478   4.327  14.512 -0.0410 -0.0812 -0.1943
 9953W        W25847   9.658  17.647  11.736  0.0532  0.0984 -0.1263
 9954W        W25848   5.840   6.216  12.366 -0.1654 -0.1222  0.1462
 9955W        W25849  11.385  16.963   3.033  0.1461  0.1093  0.3785
 9956W        W25850   7.913   3.505  12.653 -0.1949  0.2527 -0.0820
 9957W        W25851   8.236  15.012   5.249 -0.2081  0.0243 -0.0779
 9958W        W25852  14.229  10.022  14.228  0.0620  0.2406  0.0864
 9959W        W25853   6.337   1.798   1.241  0.3213  0.0425  0.4376
 9960W        W25854   1.371  16.502   0.395 -0.2726 -0.1145  0.3393
 9961W        W25855  14.282  11.335  15.053  0.0026 -0.2139 -0.3400
 9962W        W25856  14.219  13.426  13.448 -0.3671 -0.0553  0.0708
 9963W        W25857  18.105   9.486  12.551 -0.0620  0.3156 -0.0085
 9964W        W25858  11.656   6.870  14.385 -0.3025  0.2660 -0.0245
 9965W        W25859  16.120  15.955  11.356  0.2562  0.1916  0.1699
 9966W        W25860   9.197  18.264   5.431 -0.1995  0.1376 -0.3668
 9967W        W25861  13.114   6.488   1.386 -0.2508 -0.3595 -0.2352
 9968W        W25862   3.019   5.072   4.038 -0.0379 -0.0199 -0.0508
 9969W        W25863  18.082   5.274   0.611 -0.1186  0.0612 -0.2283
 9970W        W25864  16.488  13.181   0.107  0.1180 -0.1700 -0.2622
 9971W        W25865   4.973   2.519  10.587  0.1308  0.0784  0.0689
 9972W        W25866  17.595   0.767   0.338 -0.0475  0.0532  0.2120
 9973W        W25867   4.129  12.745  14.432 -0.0012  0.2444 -0.0131
 9974W        W25868   4.644  11.836   0.313  0.1150 -0.0777 -0.1737
 9975W        W25869  13.331   8.311  10.868 -0.0650  0.0892 -0.3514
 9976W        W25870  12.989   6.521  11.010 -0.2075 -0.0368 -0.0761
 9977W        W25871  11.382   6.044   6.177  0.1072  0.1374 -0.0880
 9978W        W25872   0.701  17.355   4.420 -0.0232  0.2006 -0.3264
 9979W        W25873  13.010  10.558  11.563 -0.0688 -0.1376 -0.2879
 9980W        W25874   5.176   3.809  13.887 -0.0779  0.1247  0.1275
 9981W        W25875   9.229  12.278   0.210  0.2332  0.0891 -0.1446
 9982W        W25876   1.589   7.046   2.210 -0.0693  0.0455 -0.1828
 9983W        W25877   1.732   8.923  11.852  0.0545 -0.0808  0.2738
 9984W        W25878  16.374   8.850   3.888 -0.0507  0.0964  0.2558
 9985W        W25879  11.297  14.474  11.099 -0.2414 -0.1303 -0.0168
 9986W        W25880  17.231  11.069   0.138 -0.0135 -0.0867  0.0079
 9987W        W25881   0.099   1.597  11.927  0.5789  0.0376  0.0304
 9988W        W25882  12.390   8.644   0.356 -0.1084  0.0302 -0.0333
 9989W        W25883   0.033  14.842   2.720  0.4241  0.2727 -0.0061
 9990W        W25884  10.963  18.778   4.442 -0.0696 -0.5051 -0.1612
 9991W        W25885   8.831   8.093   3.425  0.0320  0.1962 -0.0210
 9992W        W25886   2.241   3.277   0.276  0.1350 -0.3239  0.4950
 9993W        W25887  17.360  13.914   4.634 -0.0676 -0.1760 -0.4149
 9994W        W25888  16.687   1.792  11.858 -0.1802 -0.1226  0.0323
 9995W        W25889  10.716  18.606  11.290 -0.0655  0.0796 -0.1160
 9996W        W25890  11.276   6.954   0.703  0.1565  0.1723 -0.0377
 9997W        W25891  12.643  15.831   4.232  0.2449 -0.1663  0.0069
 9998W        W25892  16.941   7.364   1.275  0.0405  0.0670  0.1827
 9999W        W25893  15.156   3.677   3.163  0.0989  0.0452  0.0425
10000W        W25894   7.430  10.286  10.954 -0.2572 -0.0907 -0.3109
10001W        W25895   2.358   7.847  12.377 -0.2079  0.4523 -0.2089
10002W        W25896   6.075  18.337  12.511  0.1269 -0.0208 -0.1415
10003W        W25897  14.516   1.693   0.377  0.2141 -0.0831  0.4210
10004W        W25898   6.578  10.709   2.636 -0.2513 -0.1065 -0.0260
10005W        W25899   2.441  15.642   4.706  0.1574 -0.1024 -0.0704
10006W        W25900   1.893  16.166   4.761  0.1307  0.1587  0.4043
10007W        W25901   7.728  12.648   4.618  0.0873 -0.0086 -0.2766
10008W        W25902  17.134   4.992   2.632  0.1333 -0.0275  0.0375
10009W        W25903   8.361  15.499   4.657 -0.0609 -0.1691 -0.0871
10010W        W25904   5.285   5.732   0.516 -0.1409 -0.0449 -0.1970
10011W        W25905   9.682  15.048   3.377  0.0408  0.1272  0.3925
10012W        W25906   3.897  14.650  11.269  0.0425 -0.2366  0.2503
10013W        W25907  17.223   4.326   4.517 -0.0031  0.0095 -0.0950
10014W        W25908  17.563  12.292  12.104 -0.1996 -0.0514 -0.2486
10015W        W25909  16.911   5.344  12.551 -0.0106  0.0269  0.2055
10016W        W25910   8.589   5.031  15.290 -0.1576  0.1224  0.3019
10017W        W25911   5.557   5.923  13.758  0.1762 -0.0546  0.2917
10018W        W25912   1.419  10.227  14.344  0.0231  0.1967  0.0160
10019W        W25913   1.108  14.599   3.922 -0.4345 -0.2221  0.1086
10020W        W25914  11.848  14.534  11.725 -0.0391  0.2242 -0.2364
10021W        W25915   8.487   4.782  10.778 -0.1476  0.0105  0.0242
10022W        W25916  16.275   9.481  10.459 -0.1759  0.0551 -0.0992
10023W        W25917   7.760  15.518   1.008  0.0694 -0.0739  0.1057
10024W        W25918  10.886  12.174   4.791  0.1401  0.4947  0.3989
10025W        W25919  10.102  11.523   5.036 -0.0780  0.4860  0.1491
10026W        W25920   6.172   0.027  13.361  0.2123  0.1712 -0.0659
10027W        W25921  16.033  16.714  13.729  0.0115 -0.0597 -0.2949
10028W        W25922   5.426  15.053   0.374 -0.0854 -0.0314  0.0522
10029W        W25923  16.297  14.119  13.769  0.0379  0.0496 -0.2301
10030W        W25924  17.532   6.158  13.973 -0.2721 -0.0448 -0.0714
10031W        W25925   1.962  15.237   1.756  0.3420  0.2829 -0.2120
10032W        W25926  11.172   8.168   4.528 -0.2192 -0.1395 -0.0701
10033W        W25927   0.729  12.818   0.813  0.0256 -0.0339  0.1469
10034W        W25928   6.977  16.764  13.082 -0.0559  0.2167 -0.0947
10035W        W25929   3.204  15.829  11.230  0.0950  0.1330  0.0579
10036W        W25930   0.662   8.555  12.303  0.0606  0.2316  0.2498
10037W        W25931   7.656  13.691   2.084  0.1937 -0.2237  0.1577
10038W        W25932   7.348   5.935  12.493 -0.1945  0.0573  0.2049
10039W        W25933  10.033   0.143  13.511  0.2375  0.1233 -0.0296
10040W        W25934  16.007  11.458   1.894  0.0048 -0.0364 -0.2358
10041W        W25935   7.280   1.873   1.622  0.4527 -0.2215 -0.4010
10042W        W25936  16.618  12.338   4.578 -0.0006  0.1350 -0.2275
10043W        W25937  13.726   7.657  13.500  0.1822 -0.0867  0.0670
10044W        W25938   5.136  14.179   4.076  0.1334  0.1020 -0.0204
10045W        W25939   1.661  16.041  10.892  0.0599 -0.0781 -0.0113
10046W        W25940   5.999  17.870  13.678 -0.1607 -0.0404  0.0672
10047W        W25941  10.609   4.492   2.413 -0.0510  0.0852 -0.3318
10048W        W25942   2.534   6.695   3.118  0.2302 -0.1961 -0.2121
10049W        W25943   5.157  17.797   0.351 -0.1453  0.2336 -0.0876
10050W        W25944  11.002   5.610  11.731  0.0640  0.2923 -0.1452
10051W        W25945   5.743  11.258  15.115 -0.2660 -0.0351  0.0365
10052W        W25946   7.193  11.117   5.882  0.1162 -0.2822  0.0100
10053W        W25947  15.554  17.845  10.972 -0.1504  0.0775  0.1235
10054W        W25948   0.480  13.159   1.001 -0.1547  0.1858  0.0918
10055W        W25949   8.677   1.957   3.851  0.1974 -0.1794 -0.1409
10056W        W25950  16.924  15.307  13.405 -0.1029 -0.1258 -0.2034
10057W        W25951  10.531  15.840   1.203 -0.0086  0.1455 -0.1223
10058W        W25952   6.013   2.452   4.796  0.0389 -0.0107  0.1956
10059W        W25953  15.069   9.642  11.840 -0.0350 -0.0952 -0.0041
10060W        W25954  12.852  13.622  13.081  0.1779  0.3323  0.1449
10061W        W25955   8.474   6.014  10.935  0.0654 -0.1017 -0.0598
10062W        W25956   4.716  14.955  11.032 -0.0814  0.4585 -0.4118
10063W        W25957  13.479   4.520   4.704  0.0875 -0.1016 -0.3672
10064W        W25958   7.926  10.339  14.685 -0.0361  0.1006  0.0938
10065W        W25959   0.733  17.717  15.206 -0.0071  0.2640  0.0172
10066W        W25960  14.101  14.966   3.451 -0.2455 -0.1724  0.0282
10067W        W25961  11.212  18.735  14.877 -0.0964  0.0557 -0.0356
10068W        W25962   6.906  12.047  15.118 -0.0288 -0.1779  0.0815
10069W        W25963   7.572  10.460   1.937 -0.1052  0.0548 -0.0313
10070W        W25964   0.876  14.057   3.768  0.2445  0.0920  0.0969
10071W        W25965   6.791  14.277   5.386  0.1007  0.0114  0.0092
10072W        W25966  13.485   5.792   4.045 -0.0643  0.1896  0.0337
10073W        W25967  11.224   0.991  12.782 -0.3065  0.2263 -0.1269
10074W        W25968   8.066  15.937   3.609 -0.1462 -0.3521  0.0090
10075W        W25969   2.792  17.538   1.004 -0.0940  0.1912  0.2413
10076W        W25970  17.128  12.511  12.993  0.0443 -0.1142 -0.1096
10077W        W25971   4.222  13.050  15.421 -0.4802 -0.0403 -0.0658
10078W        W25972   4.837  12.509  14.602 -0.3743 -0.0619  0.1721
10079W        W25973   5.162  17.911  11.155  0.1158 -0.0163 -0.0517
10080W        W25974   7.918  17.380   4.417 -0.0474 -0.0445 -0.1987
10081W        W25975  16.296  12.683   4.910 -0.1797  0.2540 -0.0076
10082W        W25976   5.506   3.770  12.161 -0.3378 -0.0893  0.1457
10083W        W25977  12.680  18.526  12.744  0.1174 -0.0245  0.0278
10084W        W25978   4.004  12.118  15.118  0.1052  0.1727  0.0406
10085W        W25979  14.017  12.801  15.476  0.0467  0.2264 -0.0843
10086W        W25980  11.969   8.612   3.207  0.1913  0.1178 -0.0511
10087W        W25981   3.541   7.154  14.271  0.0321  0.0494 -0.2181
10088W        W25982  12.852  14.074   0.379 -0.1568 -0.1227  0.0907
10089W        W25983   8.622  12.826  15.227 -0.2505 -0.3190  0.0590
10090W        W25984   6.619  11.870   3.368  0.1980 -0.1229 -0.2050
10091W        W25985   1.670  16.786   2.090 -0.0148  0.0600  0.3292
10092W        W25986   0.832  12.505   2.805 -0.2002  0.2034  0.1452
10093W        W25987   4.892  10.337   2.857  0.2617 -0.0790 -0.1173
10094W        W25988   6.908  14.411   4.843 -0.1381  0.0043 -0.0383
10095W        W25989   6.245   2.725  13.879 -0.1528  0.2418 -0.1208
10096W        W25990   5.408   6.957  12.096 -0.3831 -0.1325  0.1755
10097W        W25991  11.641  15.371  15.389 -0.1038 -0.2700  0.1374
10098W        W25992   4.843  13.270  14.796 -0.0276 -0.0709 -0.2132
10099W        W25993   1.996   9.748  14.346  0.0068 -0.2534  0.0937
10100W        W25994  13.786   3.750  12.842  0.1805  0.0983  0.1368
10101W        W25995   7.538   1.086  12.791 -0.0772 -0.0085  0.0802
10102W        W25996   6.259   6.322  12.147 -0.2347  0.2311  0.1853
10103W        W25997   9.620   2.969   4.692  0.1510  0.1704 -0.2580
10104W        W25998  17.200   2.716  15.288 -0.2898  0.1587 -0.0732
10105W        W25999  11.912   5.167   0.265 -0.1252  0.1999 -0.0739
10106W        W26000  18.065  10.460  13.104 -0.1975  0.1360  0.2670
10107W        W26001  17.269  14.808  13.939  0.2798  0.1377 -0.0668
10108W        W26002   2.554   5.426  13.189  0.1224  0.2625 -0.0089
10109W        W26003  10.691   2.605  15.189  0.3747  0.1153 -0.0449
10110W        W26004  11.113  12.663   1.640  0.6344 -0.1491 -0.2091
10111W        W26005   6.536  14.816   5.121  0.2327  0.1372  0.0527
10112W        W26006   7.931   1.380  12.872 -0.0065  0.0320 -0.0504
10113W        W26007   8.000   8.804  13.867  0.1083 -0.1553 -0.0537
10114W        W26008   9.708  17.009   1.017 -0.1765 -0.0882  0.0164
10115W        W26009  11.763   3.505   1.335 -0.0060 -0.0411 -0.2152
10116W        W26010   4.530  12.910   4.456 -0.3509  0.1687  0.0515
10117W        W26011  16.303   3.727   0.444  0.0465  0.0229 -0.0121
10118W        W26012   2.408   3.776   2.839  0.3070  0.2675  0.0095
10119W        W26013   2.285  17.112   5.046 -0.1860  0.0886  0.4213
10120W        W26014   2.661   0.558  14.587 -0.0161  0.3627  0.1774
10121W        W26015   7.355   7.808   1.460  0.2823 -0.0338  0.0826
10122W        W26016  17.751   1.611   3.301 -0.1341  0.0860  0.0441
10123W        W26017   4.037   4.588  14.176  0.0025  0.0825 -0.0043
10124W        W26018   0.807   5.480   0.526  0.4145 -0.0834 -0.2278
10125W        W26019  13.063  15.550   1.195 -0.0182  0.0109  0.0571
10126W        W26020   5.288  13.113   2.154  0.2444  0.0772  0.1840
10127W        W26021   6.309  13.223   4.306 -0.1409 -0.2005  0.2217
10128W        W26022   8.168   1.403  13.866  0.0072 -0.0143 -0.0183
10129W        W26023  12.165   1.062  14.897 -0.1641 -0.1028  0.0335
10130W        W26024   2.085   2.791  12.482  0.5594  0.1205 -0.2184
10131W        W26025  18.600   9.106   0.202  0.3454  0.1119 -0.3350
10132W        W26026  17.631   6.704  11.551  0.0743 -0.1081  0.2701
10133W        W26027  11.697  11.774  10.973 -0.0157 -0.1095 -0.2333
10134W        W26028  14.743   6.861   2.243  0.0068  0.0178  0.0372
10135W        W26029  13.251   7.676  10.947 -0.1167 -0.3864 -0.0918
10136W        W26030   1.689  13.959  15.250 -0.1889  0.0176 -0.2617
10137W        W26031  13.201   9.193   1.797 -0.0500  0.3211 -0.0488
10138W        W26032  18.783   8.523   1.289 -0.2388 -0.0481  0.1803
10139W        W26033   8.671   6.448  14.866 -0.1351 -0.2429 -0.2279
10140W        W26034  10.279  18.596  14.697 -0.4249  0.0480  0.0715
10141W        W26035  12.212   4.906   2.704 -0.0933  0.2361 -0.0878
10142W        W26036   8.756  14.776   9.454  0.3254 -0.1318 -0.3212
10143W        W26037   4.179   8.566   0.538  0.2254  0.0776  0.0383
10144W        W26038   1.918   8.080   0.397  0.3744  0.1572 -0.2433
10145W        W26039   9.666   7.730   4.608  0.2126 -0.3519 -0.0341
10146W        W26040  14.282   5.068   0.357 -0.0478 -0.3513 -0.0507
10147W        W26041   1.333  18.654   3.248 -0.1211  0.3629  0.2303
10148W        W26042   1.718  13.996  11.564 -0.1983 -0.1882  0.0434
10149W        W26043  17.748  15.652   3.782  0.2981  0.1801 -0.0519
10150W        W26044   1.403   5.538  12.422  0.0450 -0.2592 -0.2918
10151W        W26045   5.494   9.049   3.906  0.0991  0.1378 -0.1032
10152W        W26046   9.224   0.866   3.365  0.0406 -0.1131  0.0742
10153W        W26047  18.428  11.201   3.742  0.2959  0.0553  0.1931
10154W        W26048  18.845  11.599  14.494  0.0785  0.0403 -0.0297
10155W        W26049  17.327   5.806   2.752  0.2520 -0.0891 -0.1546
10156W        W26050   4.971   3.460  14.789 -0.4038 -0.1402  0.2559
10157W        W26051  16.023  14.336  14.183 -0.1252  0.0395 -0.2247
10158W        W26052   6.966  13.818  15.258  0.1565  0.2638  0.1350
10159W        W26053  18.829  17.961  11.312 -0.2301  0.1828  0.2837
10160W        W26054   3.788  15.100   0.901  0.1831  0.0580  0.1043
10161W        W26055   9.174   8.986   5.136  0.0980 -0.0394  0.1051
10162W        W26056   8.078  11.513   1.726 -0.1254  0.1881  0.2398
10163W        W26057  15.923  14.845  11.831 -0.1338  0.3833 -0.0356
10164W        W26058  13.812  14.695  14.779  0.0702  0.2337  0.1871
10165W        W26059   8.200   9.704   4.422 -0.1652 -0.1318 -0.0270
10166W        W26060   1.512  11.706   1.674 -0.2059  0.1435 -0.2574
10167W        W26061  16.319   6.756   2.690  0.1514  0.2589 -0.1923
10168W        W26062  18.807   7.128   4.440 -0.1481 -0.1711  0.3196
10169W        W26063  13.053  14.904  11.455  0.2047 -0.0830 -0.2182
10170W        W26064   1.436   8.105   1.788  0.1306 -0.0524  0.2862
10171W        W26065   3.034  13.224   1.320  0.1007  0.0650 -0.0147
10172W        W26066   0.541   5.739   3.400  0.2015 -0.0364  0.0818
10173W        W26067  14.165   1.445  11.129  0.2956  0.0106  0.2162
10174W        W26068   7.797  18.117   0.595  0.0241 -0.0832 -0.3225
10175W        W26069   0.104  17.390   0.231  0.2357  0.0999  0.0028
10176W        W26070   6.912  15.915   0.275  0.0034 -0.1436 -0.0691
10177W        W26071   5.281   6.667   1.238 -0.0922  0.0738  0.2926
10178W        W26072  11.268   1.151  13.276 -0.2103  0.4141 -0.0821
10179W        W26073  17.819  10.201  13.580 -0.0516 -0.2314 -0.4046
10180W        W26074  17.024   2.145  10.090  0.1924 -0.4054 -0.2645
10181W        W26075   6.025   0.218  12.095  0.1293 -0.5214  0.2888
10182W        W26076   2.734   8.055   0.493  0.1526  0.2658  0.0423
10183W        W26077   0.183  18.664   1.520  0.2001  0.0058  0.0036
10184W        W26078   4.912   0.828   3.224 -0.1439 -0.2607 -0.1663
10185W        W26079  17.969   2.441  14.828  0.0649  0.0020 -0.1345
10186W        W26080   3.447  10.968   1.856 -0.0535  0.0078 -0.1905
10187W        W26081  13.319  14.937  13.612 -0.3657  0.0826 -0.2759
10188W        W26082   8.073  13.411  13.169  0.1461 -0.2576  0.0496
10189W        W26083  13.496   1.338   2.510 -0.0610  0.0526 -0.0355
10190W        W26084  14.123   7.213  14.230  0.0901  0.0227  0.1360
10191W        W26085   8.001  14.423  13.497 -0.2300 -0.1714 -0.1006
10192W        W26086  15.881   4.423  14.321  0.0446  0.0459 -0.3974
10193W        W26087  12.343   5.718   0.893 -0.0729 -0.1218  0.0491
10194W        W26088   2.526  14.188  15.172  0.3625 -0.3769  0.1134
10195W        W26089   8.691  10.963   4.082  0.1237  0.1733 -0.3920
10196W        W26090  15.177   7.587   5.433  0.2886  0.1664  0.1442
10197W        W26091  12.640  17.950  12.076  0.3329 -0.2447 -0.0560
10198W        W26092   5.996  14.871   9.930 -0.2953  0.1916  0.1608
10199W        W26093  13.968   2.998  14.018  0.0853  0.0137  0.0067
10200W        W26094   3.175  10.302  14.928  0.0933  0.1306  0.2601
10201W        W26095   2.716   8.354   4.149 -0.0657 -0.1439 -0.2996
10202W        W26096   4.449  11.388  11.779  0.1350 -0.1055 -0.2695
10203W        W26097  14.314   2.460   4.093 -0.2528  0.0526 -0.3207
10204W        W26098  14.366   7.685   1.938  0.1937 -0.0910  0.3252
10205W        W26099   0.322   8.058  13.638  0.2794  0.0834  0.3103
10206W        W26100  10.711   4.701   3.442 -0.0018 -0.0888  0.2114
10207W        W26101   9.055  18.343   1.249  0.0556 -0.1687 -0.0681
10208W        W26102  11.906  12.874   2.862 -0.0791 -0.0102  0.2369
10209W        W26103   8.575  13.674   5.541  0.0893  0.0430  0.2014
10210W        W26104   6.786   7.479   0.740  0.2828 -0.2225 -0.0915
10211W        W26105  10.766  17.078   2.487  0.0779 -0.3309 -0.1022
10212W        W26106  14.367   5.695  10.382  0.0651  0.2567 -0.0771
10213W        W26107   2.886   2.109  12.120  0.1858 -0.2639 -0.1173
10214W        W26108  10.801  18.146  13.938  0.3046  0.0534  0.2552
10215W        W26109  12.327  17.925  15.267 -0.1140  0.1855 -0.0915
10216W        W26110  13.743   5.315  12.164 -0.0254  0.1537  0.0201
10217W        W26111   9.076  14.917   0.423 -0.1299  0.1895  0.0066
10218W        W26112  17.855  17.628   1.180 -0.1868  0.0694  0.2464
10219W        W26113  11.325  10.590   3.388  0.1980  0.1424  0.3155
10220W        W26114   4.376  12.736  12.962 -0.0049 -0.1062  0.1926
10221W        W26115  17.863   5.575   2.715 -0.2635  0.0061  0.0201
10222W        W26116   0.433   1.186  14.966  0.1411 -0.0448 -0.1333
10223W        W26117   8.362  17.116  14.371  0.1252 -0.0624 -0.2322
10224W        W26118   8.951   6.585  15.324 -0.2465 -0.2694  0.4620
10225W        W26119  14.342   4.722  13.708 -0.2337  0.4400  0.1265
10226W        W26120  11.752  14.355  14.523 -0.0338  0.0034  0.0591
10227W        W26121  13.841  11.782  12.452 -0.1444  0.0971 -0.3123
10228W        W26122   8.706   2.551   2.400  0.0498  0.0534  0.0752
10229W        W26123  10.920   5.888   1.921  0.1747  0.0336  0.2275
10230W        W26124   0.814   1.187   4.293 -0.0512 -0.1131 -0.1911
10231W        W26125   5.819   9.719  10.951  0.0634  0.2224 -0.3810
10232W        W26126  17.319   2.039  12.263  0.1944  0.2104 -0.0938
10233W        W26127   7.911  16.510   5.166 -0.0928  0.0454 -0.2819
10234W        W26128  18.599  11.307   2.942 -0.0549  0.0087 -0.1596
10235W        W26129   9.450  14.872   5.859 -0.0051  0.0029 -0.1810
10236W        W26130   2.234   0.093   3.410 -0.2495  0.0442 -0.0382
10237W        W26131   0.992   6.086   2.219  0.2131 -0.2748  0.3615
10238W        W26132  12.158  16.827   1.036  0.2966  0.2561  0.1141
10239W        W26133   3.636  16.135  14.684  0.0617  0.0594  0.1392
10240W        W26134  14.817  15.445   2.259  0.2648 -0.1005  0.0336
10241W        W26135  12.785  10.259  13.264 -0.0260  0.0955 -0.0138
10242W        W26136   7.827  13.429  14.426 -0.1878 -0.2186  0.1657
10243W        W26137  10.409   4.526   0.285  0.1691 -0.1443  0.1376
10244W        W26138  13.404  18.769   2.748  0.0338  0.2834  0.0143
10245W        W26139   3.509   4.907  13.058  0.1383 -0.0682  0.0864
10246W        W26140  13.551   4.577   5.620  0.0344  0.0541 -0.1853
10247W        W26141  18.872  14.631   3.290 -0.1554  0.2185  0.1387
10248W        W26142   6.143   9.577  14.672 -0.2347 -0.1513 -0.2995
10249W        W26143   0.875  16.222   4.026 -0.0521  0.1031  0.1391
10250W        W26144   0.971   4.808  13.976 -0.3253  0.0652  0.3329
10251W        W26145   3.748   1.178   3.917  0.1278  0.0260 -0.0030
10252W        W26146  10.662   8.559  12.384  0.0636  0.0180 -0.1184
10253W        W26147   1.504  11.133  12.983  0.4461 -0.4316 -0.0208
10254W        W26148   6.405  11.240   1.601  0.4009 -0.1592  0.3231
10255W        W26149   0.661  15.717   4.763 -0.1712 -0.0782 -0.1078
10256W        W26150  17.610   5.742  13.704  0.0796 -0.0502 -0.0731
10257W        W26151   7.734   0.252   2.064 -0.0327  0.1515  0.3203
10258W        W26152   9.227  14.891   4.669  0.1498  0.0803 -0.0578
10259W        W26153  14.596   9.782  11.672  0.0398 -0.1947  0.0759
10260W        W26154   2.720  13.858  11.642 -0.1207  0.0240  0.1827
10261W        W26155   8.217   1.515  13.256 -0.2906  0.1028 -0.0170
10262W        W26156  18.645  17.979   0.039 -0.0331  0.1200 -0.2691
10263W        W26157  16.109   9.990   3.064  0.1033  0.1178 -0.0979
10264W        W26158   5.597   9.980  13.500 -0.0344 -0.4051 -0.0101
10265W        W26159  14.415   4.870  15.356 -0.1413 -0.3343 -0.2605
10266W        W26160   5.319  10.598  14.461 -0.3804 -0.4599  0.2140
10267W        W26161  13.040   3.807   4.451  0.0661 -0.2248  0.1039
10268W        W26162  14.062  10.116  12.810 -0.0928 -0.1501  0.3254
10269W        W26163   0.895   9.025   2.986 -0.2256 -0.0678 -0.1037
10270W        W26164   9.309   4.873  12.939  0.1355 -0.0259  0.0211
10271W        W26165   2.622   1.706   0.387 -0.0137 -0.0376  0.1196
10272W        W26166   5.976  15.520   1.432  0.2889 -0.1076  0.1631
10273W        W26167   2.261   2.127  15.071 -0.0492  0.4381  0.0050
10274W        W26168   1.365   5.906  10.551 -0.3632  0.4949 -0.4520
10275W        W26169  10.809  16.863   2.975  0.0240  0.0924  0.1890
10276W        W26170  12.718  14.193  13.100 -0.1676 -0.0838 -0.1282
10277W        W26171   2.440  12.794  14.191  0.2879  0.4668  0.2832
10278W        W26172   2.343   9.756  10.425  0.2073  0.2545 -0.1644
10279W        W26173   7.754  16.799   0.016 -0.4456  0.2181  0.1549
10280W        W26174  17.321   9.882   5.130 -0.0340 -0.1366 -0.0074
10281W        W26175  12.532  11.414  14.880 -0.1943  0.2545  0.1061
10282W        W26176  18.057  14.873   3.815  0.1040 -0.1662 -0.2427
10283W        W26177  12.345   1.480   2.012  0.0290  0.3027  0.2193
10284W        W26178   6.530  14.077   3.599  0.0086 -0.1154 -0.4299
10285W        W26179   6.154   4.056  12.992  0.4161  0.1471 -0.1331
10286W        W26180  14.352  14.653   2.997 -0.2918  0.1365  0.0817
10287W        W26181   8.041   9.733  12.323 -0.1813 -0.0961 -0.0019
10288W        W26182   1.290   7.754   0.110  0.3490  0.1092 -0.1814
10289W        W26183   1.269   3.128  14.546 -0.2736  0.0685  0.1038
10290W        W26184  17.223   2.845   3.382  0.2663  0.0639  0.1125
10291W        W26185   9.793  11.742   5.949  0.1452  0.2658  0.0631
10292W        W26186  10.459   3.546  14.027  0.1110  0.1804 -0.2007
10293W        W26187  17.670   7.055   4.839  0.1946 -0.0517  0.0754
10294W        W26188  13.120  17.292  11.647  0.1779  0.0399 -0.0992
10295W        W26189  13.732  16.231   4.670 -0.0319 -0.3783 -0.3403
10296W        W26190  12.537   5.790  14.765  0.1022 -0.0897 -0.0336
10297W        W26191  16.111  11.680  10.546  0.1138 -0.3174  0.3559
10298W        W26192  17.240   8.472   1.329  0.0564 -0.1126  0.0559
10299W        W26193   2.239  12.325   4.298 -0.2390  0.1279 -0.0978
10300W        W26194   0.404   4.002  14.893  0.1724  0.4199 -0.0290
10301W        W26195   1.310   5.298   1.722 -0.1567  0.1585  0.0649
10302W        W26196   3.758   9.293  10.839  0.0914  0.2702 -0.1720
10303W        W26197   6.033  14.119  14.844 -0.0483  0.1100 -0.0088
10304W        W26198  17.786   6.358  14.923  0.0967 -0.0245  0.0856
10305W        W26199  16.540  13.159  12.207  0.4429 -0.0274  0.2738
10306W        W26200   4.651   1.319   1.156  0.2061  0.0410  0.0373
10307W        W26201   4.358  10.226   1.162 -0.1043 -0.4284  0.1162
10308W        W26202   1.644  15.809  11.878 -0.0766 -0.0722 -0.3425
10309W        W26203   5.685   1.339  11.820  0.1284  0.1995  0.1428
10310W        W26204  16.826  10.005  12.170  0.0131  0.2856 -0.1427
10311W        W26205   9.017  16.223  13.857  0.0812  0.0171 -0.1845
10312W        W26206  14.459   4.428  14.608 -0.2035 -0.2095 -0.0353
10313W        W26207   3.089   0.095   3.321 -0.2393  0.0079  0.0626
10314W        W26208   5.654   2.029  15.026 -0.3075  0.0339  0.1138
10315W        W26209   5.674  12.267  12.954 -0.1825 -0.0658  0.0130
10316W        W26210  14.451  15.938  11.505  0.0139  0.2351  0.1631
10317W        W26211   4.891   2.884   0.347 -0.3904  0.0673 -0.3471
10318W        W26212   3.529  14.319   3.012 -0.0638 -0.1181  0.2527
10319W        W26213  12.534   7.580  14.457  0.1277 -0.4284 -0.2535
10320W        W26214  18.575  11.894  14.897 -0.0001 -0.2225 -0.0978
10321W        W26215   8.203   5.863  15.039  0.2030 -0.0652 -0.0558
10322W        W26216  10.164   3.233  13.547  0.1280  0.0085  0.0309
10323W        W26217   3.186   3.574   1.263  0.0376 -0.3713 -0.5093
10324W        W26218   2.877   6.946  14.609  0.0700  0.1100  0.0034
10325W        W26219   9.694  15.979   1.282  0.0304 -0.3342  0.0131
10326W        W26220   1.783   0.473  14.548 -0.2201 -0.2739 -0.0893
10327W        W26221   0.230  11.894  14.154 -0.0218  0.1604  0.0682
10328W        W26222   0.021  16.613  13.710  0.1380  0.0124 -0.0836
10329W        W26223   0.656   0.128   1.664  0.0021  0.1550  0.3799
10330W        W26224  11.810  15.655  11.272 -0.3635 -0.0653  0.2043
10331W        W26225   5.992  17.953   4.300  0.0800  0.0723  0.2167
10332W        W26226  14.938  11.098   1.320 -0.0919  0.3560 -0.1922
10333W        W26227  15.257   2.210   0.735 -0.1014  0.2858  0.1394
10334W        W26228   0.103   9.819  12.683  0.0659 -0.2085 -0.1187
10335W        W26229   2.505   8.995   3.713 -0.0165 -0.1883 -0.0312
10336W        W26230   0.047   7.258  10.581  0.0240  0.0780  0.0158
10337W        W26231   3.283  15.724   4.343  0.1029 -0.0239 -0.2808
10338W        W26232   5.940   4.738  14.632  0.1479 -0.3722 -0.1983
10339W        W26233   4.638   3.914  14.716 -0.1676 -0.1013 -0.2231
10340W        W26234   8.546  14.203   9.802 -0.1324 -0.0280  0.0622
10341W        W26235   2.711  11.015   2.954 -0.0135  0.0239  0.0079
10342W        W26236   2.557  13.017  12.331  0.1647 -0.0268 -0.0832
10343W        W26237   7.255  14.425   0.361 -0.0194  0.2094  0.1387
10344W        W26238  12.604   5.325   0.143 -0.0373 -0.0978 -0.0571
10345W        W26239   6.530   6.051  13.531 -0.2226  0.0020  0.1970
10346W        W26240  16.229  12.877   3.012  0.0749 -0.1036 -0.1515
10347W        W26241  13.783   2.984   1.741  0.1052 -0.2375  0.1450
10348W        W26242  17.650   7.406   4.373  0.1608 -0.0433 -0.0544
10349W        W26243  15.039   5.739   1.920 -0.4249  0.2169  0.0463
10350W        W26244   1.570  16.087   3.238 -0.0244 -0.1448  0.0190
10351W        W26245   1.938  10.265  13.459  0.2114  0.0547 -0.0245
10352W        W26246   4.458   9.586  11.515  0.1584  0.1856 -0.0351
10353W        W26247  12.512   6.979  10.326  0.4276  0.0904 -0.2454
10354W        W26248  11.739   2.575  10.683  0.0739  0.2091 -0.1235
10355W        W26249  14.584   5.553   1.990  0.1441 -0.1537 -0.3546
10356W        W26250   3.786  10.479   0.645 -0.3161 -0.0362  0.1559
10357W        W26251  12.532   1.823  12.600  0.0395 -0.4542  0.0564
10358W        W26252   1.505  15.754   0.791  0.0691  0.2479  0.1438
10359W        W26253   5.953   1.476   1.235 -0.3142  0.1101  0.1448
10360W        W26254  13.317  14.133  13.149 -0.3522 -0.0114  0.1401
10361W        W26255   3.071  18.283   4.001 -0.2322 -0.1261 -0.0080
10362W        W26256  14.520  16.334  11.849 -0.2011  0.1112  0.2893
10363W        W26257   1.255   3.975  11.227  0.1478  0.2758 -0.2194
10364W        W26258   9.199  15.952  14.288  0.3225  0.0542 -0.0014
10365W        W26259   1.633   9.393   4.069 -0.1018  0.0506 -0.0412
10366W        W26260   2.212  13.821  15.397 -0.1237 -0.0850  0.0017
10367W        W26261  13.685   9.836   2.463  0.0508 -0.1649  0.0030
10368W        W26262  14.529   0.453  15.090  0.0543  0.1757  0.1750
10369W        W26263  14.953  12.554  15.048 -0.5032 -0.0868  0.2773
10370W        W26264  17.919   2.007   0.872 -0.0383  0.0078 -0.1649
10371W        W26265   7.973  16.839  11.798  0.0147  0.2168  0.0337
10372W        W26266   9.451  11.174  12.732 -0.0316  0.0014 -0.1798
10373W        W26267  10.463   5.498  10.585 -0.0838 -0.0486 -0.0116
10374W        W26268   6.153   3.344   1.640  0.1034 -0.2132 -0.1666
10375W        W26269  14.516   5.402   1.170  0.2633  0.0520 -0.2784
10376W        W26270  13.295   9.956   3.691 -0.3893  0.2948 -0.2051
10377W        W26271   6.254  11.064  13.704 -0.4717 -0.2962 -0.0507
10378W        W26272   0.680  12.874   1.847 -0.1008 -0.0206  0.2381
10379W        W26273   3.034   8.674   9.801  0.1206 -0.0416 -0.2401
10380W        W26274   1.789   0.731   2.179 -0.1679 -0.1272 -0.1035
10381W        W26275   6.331   9.957   2.011  0.1795  0.3379  0.1956
10382W        W26276   6.263   5.300  10.689 -0.0336 -0.0154  0.0769
10383W        W26277  18.183   7.502  13.431 -0.1719  0.0656  0.2451
10384W        W26278  16.032  16.853   5.196  0.2067 -0.1651  0.0333
10385W        W26279  10.075   2.946   0.427  0.1579 -0.0729  0.1503
10386W        W26280  17.601  14.998  11.157  0.1664  0.0360 -0.1545
10387W        W26281   1.624   9.270   5.168 -0.0130 -0.0128  0.0152
10388W        W26282  13.094  14.855   1.410  0.0817 -0.2246  0.0890
10389W        W26283   3.915   7.550  11.074 -0.0984  0.2620  0.2308
10390W        W26284  15.210   8.984  14.008  0.1034 -0.0674 -0.1472
10391W        W26285  14.315   0.419   1.908  0.1144 -0.1289 -0.2629
10392W        W26286  12.307   0.951   3.851  0.1846  0.1158 -0.4719
10393W        W26287  13.714  11.832  10.950 -0.2219 -0.0226 -0.2235
10394W        W26288  17.554   8.970   4.627  0.1152  0.0745 -0.1086
10395W        W26289  10.813  16.659  14.906 -0.1743  0.3234 -0.0877
10396W        W26290   1.976  17.725  13.739  0.1243 -0.0756 -0.0185
10397W        W26291   2.866   9.513  14.097  0.1185  0.0045 -0.0220
10398W        W26292  15.243   8.698   4.561 -0.0933 -0.3041  0.0372
10399W        W26293  14.409  13.096  14.863 -0.0004  0.1694  0.1019
10400W        W26294  12.795   9.576   1.154  0.2989  0.3134  0.1402
10401W        W26295   0.996  18.546  13.703 -0.0053  0.0879  0.2226
10402W        W26296   5.965   9.828   1.453  0.0047 -0.0464  0.2239
10403W        W26297   1.881   3.736   2.740  0.1721 -0.1384 -0.1111
10404W        W26298   6.144  14.148   3.152 -0.2835  0.0080  0.0025
10405W        W26299   1.542  14.895   2.511  0.2655  0.2152 -0.0479
10406W        W26300   7.118   9.733  13.356 -0.3010  0.0180  0.1198
10407W        W26301   1.766  15.009   1.269  0.1377  0.0298 -0.0838
10408W        W26302   5.374  10.603   4.294  0.0158  0.1032 -0.0372
10409W        W26303   2.668  18.490  10.257  0.1678  0.1474 -0.2267
10410W        W26304   1.151  15.356   0.630 -0.0354  0.0716 -0.2130
10411W        W26305  12.951   5.873  11.818 -0.1422  0.1244 -0.0753
10412W        W26306  15.126   3.448   0.256 -0.1279  0.2836 -0.0435
10413W        W26307  10.540   5.297  14.155 -0.1469 -0.0902 -0.0417
10414W        W26308   8.897  13.586   2.965 -0.0748 -0.0924 -0.0298
10415W        W26309  15.975   9.480  11.778  0.0935  0.0278 -0.1889
10416W        W26310   0.006  17.321   0.758 -0.1366  0.1577 -0.0139
10417W        W26311  10.671   8.279   2.793  0.0492 -0.0317  0.2382
10418W        W26312  15.614  11.246  14.755  0.0286 -0.1056 -0.1403
10419W        W26313   3.281   1.382  10.403 -0.0343  0.1261  0.0863
10420W        W26314   5.003  17.189  12.433 -0.1788  0.2698  0.0191
10421W        W26315  11.044  12.647   4.933 -0.0977 -0.0156  0.3669
10422W        W26316   1.864   5.420  13.289  0.0245 -0.2632  0.0954
10423W        W26317  14.423  10.961   2.738 -0.1193 -0.0864  0.0514
10424W        W26318  16.113   2.451  14.373 -0.0050 -0.0752  0.1497
10425W        W26319   7.817   5.519  12.763 -0.0541 -0.0440 -0.1434
10426W        W26320   7.611   6.134  13.961 -0.0638  0.2139  0.0159
10427W        W26321  15.167   9.487   2.907  0.1487 -0.2178 -0.2406
10428W        W26322   6.707   0.973  12.883  0.1138 -0.0427  0.1211
10429W        W26323   6.150   9.221  10.874  0.2834  0.1668 -0.1673
10430W        W26324   0.341  18.717   5.263  0.2795 -0.0940 -0.1046
10431W        W26325   3.840   9.932   4.797 -0.1689 -0.0791  0.0675
10432W        W26326  12.883  10.884   1.072  0.1117  0.0528  0.4377
10433W        W26327  14.598   4.321   2.951 -0.1987  0.1006 -0.4574
10434W        W26328   0.362   2.144   3.657  0.2719  0.2682  0.2009
10435W        W26329   2.592   0.587  12.876  0.1063 -0.1564  0.0321
10436W        W26330  12.836   6.204   2.269  0.1504  0.0764  0.1514
10437W        W26331   3.096  10.230   1.534 -0.2237  0.1393 -0.1543
10438W        W26332  12.965  15.066   4.584  0.1319 -0.0114  0.0865
10439W        W26333   4.787   6.528  11.524  0.4336  0.1337  0.2805
10440W        W26334  16.233  13.565   0.534  0.1731 -0.0140  0.0817
10441W        W26335  10.661   5.381  13.121 -0.2162  0.1805  0.2186
10442W        W26336   9.841   1.358   6.107  0.2155 -0.1392  0.1294
10443W        W26337   8.112  15.881  13.748  0.1064  0.2413  0.1076
10444W        W26338  12.212  13.056  14.437  0.1095  0.0219  0.1296
10445W        W26339  14.172  17.588   2.523  0.1844  0.1314 -0.0657
10446W        W26340  18.053   0.374  10.825  0.1883  0.0495 -0.0688
10447W        W26341  16.014   7.452   5.250  0.2457  0.0047  0.0834
10448W        W26342  10.409  18.191   3.282  0.1331  0.2423  0.1100
10449W        W26343   4.765  16.285   4.684 -0.2643  0.1505  0.2012
10450W        W26344  18.564  10.854  10.230 -0.1846 -0.1379 -0.1910
10451W        W26345  18.631  14.822  10.707  0.0134  0.2740  0.0249
10452W        W26346  13.774  12.185   4.064  0.1708  0.2566  0.0143
10453W        W26347   5.646   2.376  13.211 -0.0253  0.3391  0.1720
10454W        W26348   1.261   8.899   3.372 -0.0812  0.0036 -0.3836
10455W        W26349   2.758  16.657   2.652 -0.2293 -0.0361 -0.3456
10456W        W26350   2.834  12.565  14.657 -0.0507  0.1112 -0.2530
10457W        W26351   9.781   5.777  11.229 -0.2702 -0.2667  0.1327
10458W        W26352  16.986   3.254   4.443 -0.3130  0.0173 -0.1275
10459W        W26353   2.489   8.845   2.508  0.2812  0.1382  0.3401
10460W        W26354   9.463   0.419  15.293  0.3235 -0.0087 -0.0393
10461W        W26355  14.163  18.561   2.969  0.0281 -0.1255  0.1963
10462W        W26356  11.929  12.829   3.907  0.1291  0.1475  0.0436
10463W        W26357  12.663  16.426  15.168 -0.0474 -0.0661  0.1793
10464W        W26358   9.938  14.601  12.406 -0.0900 -0.1377  0.0038
10465W        W26359   2.172   7.506   0.619 -0.0437  0.1249  0.0547
10466W        W26360   9.617  12.633   0.651  0.3474 -0.0745  0.2303
10467W        W26361  14.214  14.305   1.927 -0.2499 -0.1648  0.0495
10468W        W26362  16.138  12.542   1.314  0.1431  0.1302 -0.1283
10469W        W26363   2.081   2.492  14.267 -0.1139  0.0393  0.0166
10470W        W26364  10.657   4.789  12.939  0.3646  0.0542  0.0711
10471W        W26365   5.313   5.480   1.203 -0.2478  0.0615 -0.0461
10472W        W26366   6.471  13.927  15.149 -0.3210  0.1498  0.0358
10473W        W26367  16.263  16.446   1.204  0.0760 -0.0265 -0.1881
10474W        W26368   3.774   5.335   4.478  0.2533  0.0707 -0.2421
10475W        W26369   0.950   4.865   2.334  0.0000  0.4953  0.0179
10476W        W26370  10.043  14.577   6.587  0.0911  0.0260  0.1910
10477W        W26371  12.816   1.702   3.621  0.3910  0.0328 -0.0853
10478W        W26372  10.054  16.584   2.265  0.1002  0.0829 -0.1535
10479W        W26373   6.135   1.133   1.958  0.1756 -0.1416 -0.2011
10480W        W26374   7.077  10.311  11.361  0.2783 -0.0764  0.0627
10481W        W26375   0.441  10.652   3.914 -0.0154  0.2829 -0.0825
10482W        W26376   3.427   5.511  11.873  0.2665 -0.1072  0.3318
10483W        W26377   3.843  17.833  15.328  0.2871  0.3649  0.0615
10484W        W26378   5.640   2.956  11.027 -0.3583  0.1157  0.0759
10485W        W26379  12.294   9.565   1.367 -0.1137  0.1264 -0.0001
10486W        W26380  12.870   7.105   3.215 -0.0115 -0.1212  0.0473
10487W        W26381  10.161  10.492   1.338  0.3621 -0.1104  0.1195
10488W        W26382  15.644   3.395  13.336  0.1524 -0.0611  0.1392
10489W        W26383   1.372   4.840   0.016  0.0054 -0.1248 -0.2276
10490W        W26384   8.479   0.767  12.659  0.0586  0.0636 -0.0245
10491W        W26385   9.461  15.755   2.516 -0.1826 -0.0786  0.1558
10492W        W26386  12.154  11.576  12.178 -0.0203  0.1317  0.0801
10493W        W26387  16.309   2.829   0.535 -0.1109 -0.0746 -0.1625
10494W        W26388  17.817   4.790   4.431 -0.1260 -0.2065 -0.0779
10495W        W26389   5.777   2.759   5.157  0.0036 -0.0978  0.0233
10496W        W26390   8.759  12.896   1.866 -0.1586 -0.0178  0.3152
10497W        W26391  10.129   9.973   4.664 -0.2163  0.0256  0.0386
10498W        W26392  12.050  11.002  12.016 -0.3355 -0.0217  0.3602
10499W        W26393  14.227   4.497  12.339  0.2787 -0.3291 -0.1821
10500W        W26394   1.320   6.251   0.189  0.1834  0.2370 -0.0723
10501W        W26395  12.714  16.742   0.699 -0.0927  0.0906 -0.1591
10502W        W26396   5.416  16.166  14.357  0.0370 -0.2386  0.0751
10503W        W26397   3.678  15.670   1.787 -0.2894 -0.2116 -0.1721
10504W        W26398  10.090   6.689  14.344  0.0780  0.2229  0.3604
10505W        W26399   8.502  10.039  12.297  0.0762 -0.0726 -0.0127
10506W        W26400   3.323   4.793  12.569  0.1616  0.1454 -0.0265
10507W        W26401   5.787   2.033   9.487  0.1160  0.2143 -0.1086
10508W        W26402   1.541   8.156   1.225  0.0648  0.2627 -0.1898
10509W        W26403   9.386   2.390   2.618 -0.1401  0.0189  0.1189
10510W        W26404   7.257  14.727   2.879  0.0735 -0.1268  0.1191
10511W        W26405  18.443   5.165   3.632  0.0011 -0.1409  0.1595
10512W        W26406   5.195  13.822   3.740 -0.2540 -0.3920 -0.2761
10513W        W26407  11.421   3.844   4.273  0.0001 -0.1346 -0.1250
10514W        W26408  13.795  16.284   1.008 -0.0347  0.0185  0.1032
10515W        W26409  15.901  14.721   3.364  0.3955  0.1524 -0.0219
10516W        W26410  15.384   0.649   3.750 -0.1035  0.1261  0.1422
10517W        W26411  15.135   2.448  13.914 -0.0612  0.1946 -0.1521
10518W        W26412   6.814  17.127   3.860  0.1206  0.3326 -0.0135
10519W        W26413  15.895   8.778  13.659  0.1048  0.0385  0.0264
10520W        W26414  14.399   1.090   4.318  0.1223  0.0750 -0.3696
10521W        W26415  12.470  13.824  11.150  0.1226 -0.2589  0.1389
10522W        W26416   1.998  16.525  14.605  0.3626  0.0982 -0.0145
10523W        W26417   2.806   5.054   1.033  0.0448 -0.1801  0.1315
10524W        W26418   1.923  17.815   1.226 -0.3234 -0.2017 -0.0117
10525W        W26419   8.333   2.936  15.162  0.3651  0.1573 -0.1750
10526W        W26420   7.436   6.023   5.282  0.0977 -0.2593  0.1040
10527W        W26421  14.927  18.353   3.442 -0.2497  0.0524 -0.0308
10528W        W26422  18.416   3.308   2.968  0.0989 -0.0547 -0.3345
10529W        W26423   0.496  18.509   3.777  0.3464  0.3179 -0.1356
10530W        W26424  15.656   5.810   2.640 -0.1764  0.0596 -0.0746
10531W        W26425   8.654   1.441  13.771 -0.1115 -0.4438 -0.0183
10532W        W26426  13.112  10.772   4.717  0.3139  0.0835  0.3337
10533W        W26427   7.289  18.661   3.352  0.0069 -0.2857  0.2117
10534W        W26428   7.220   2.519  12.983  0.0615  0.2181  0.1784
10535W        W26429   1.713  10.600  14.267  0.0784  0.2314 -0.1405
10536W        W26430   4.289   6.871  10.551  0.1982 -0.1667  0.0237
10537W        W26431   8.316  12.417  14.544 -0.1947 -0.0214  0.1319
10538W        W26432   2.880  16.751  13.949  0.1653  0.0063  0.2692
10539W        W26433  12.548   6.428   0.112 -0.0208  0.1814  0.1947
10540W        W26434   9.117  10.452  14.729  0.2723  0.3001 -0.0238
10541W        W26435  17.593   5.484  14.716 -0.3608  0.2827  0.2753
10542W        W26436  11.228   0.557   5.781 -0.0119 -0.0093 -0.1171
10543W        W26437   1.083   0.205  11.324 -0.4960 -0.0939 -0.0239
10544W        W26438  13.489  11.335   1.442  0.2248  0.3932 -0.2685
10545W        W26439  16.699   4.642  11.176 -0.1278  0.1347  0.2019
10546W        W26440   5.553   5.474  10.083  0.2650 -0.1819  0.0234
10547W        W26441   6.184   6.441  10.905  0.1144 -0.2640 -0.1740
10548W        W26442   1.345   1.708   1.897  0.1854  0.0544 -0.0125
10549W        W26443   1.802  18.722   3.420 -0.3308 -0.0152 -0.2379
10550W        W26444  17.608  15.910   1.046  0.1301  0.2138 -0.2818
10551W        W26445  14.251   9.356   0.983 -0.1752  0.0258  0.2748
10552W        W26446  17.405  13.217  12.013  0.1409  0.1772  0.1581
10553W        W26447  18.005   9.881  12.230  0.0328 -0.0697 -0.3169
10554W        W26448   3.654  10.312   9.597 -0.1164  0.1301  0.0204
10555W        W26449   7.212   4.953  10.617 -0.1625 -0.1364 -0.0148
10556W        W26450   7.050   2.990   2.603 -0.1101  0.2475 -0.2296
10557W        W26451   1.614   5.623   4.438  0.4323  0.3845  0.0965
10558W        W26452   2.259  15.411  10.696 -0.1261 -0.0072 -0.1400
10559W        W26453   6.207  11.288  14.118  0.2797 -0.2988 -0.2468
10560W        W26454   4.120  13.741   0.721 -0.2595  0.2707 -0.1063
10561W        W26455   9.044   2.689   4.443  0.1778  0.0615 -0.0671
10562W        W26456  13.824  11.693   1.587 -0.1326 -0.0702  0.0911
10563W        W26457   3.480   0.349   3.475  0.1115  0.3106 -0.1457
10564W        W26458   7.638   0.509  11.727  0.0089  0.0660 -0.2578
10565W        W26459   6.642   5.482   4.440  0.1043 -0.0377 -0.0840
10566W        W26460  17.371  16.416  12.342  0.0984 -0.0621 -0.0798
10567W        W26461  18.623  16.835   2.860 -0.1437  0.0631 -0.2621
10568W        W26462   3.292  13.461   5.251 -0.0774 -0.0144 -0.2949
10569W        W26463   6.001  16.732  11.798 -0.0923  0.1665  0.1778
10570W        W26464   1.400  10.117   2.869 -0.0554  0.0799  0.0056
10571W        W26465  14.641  16.848   4.843 -0.0051  0.1584 -0.0698
10572W        W26466   1.319   3.975  13.235 -0.3392 -0.1322 -0.0459
10573W        W26467  14.177  10.265   1.558  0.1222 -0.1104 -0.2770
10574W        W26468  16.751  16.660   0.047 -0.1537 -0.0202  0.1201
10575W        W26469   7.057  12.327   3.966  0.2185  0.0168 -0.0149
10576W        W26470   9.897   0.622  15.253  0.0423  0.1850 -0.1258
10577W        W26471  16.052  13.734   3.523  0.0854 -0.1298 -0.0662
10578W        W26472  13.450  11.113  13.579  0.3865 -0.1924 -0.0402
10579W        W26473   9.869   8.711  10.280 -0.1678 -0.0659  0.0813
10580W        W26474  11.803  16.326  13.927  0.0595 -0.0837  0.3406
10581W        W26475  12.881   9.470   2.192  0.2303  0.2939 -0.7695
10582W        W26476   5.636  15.765  10.901  0.3693 -0.1649  0.2801
10583W        W26477   5.531  11.618   1.502 -0.2178  0.1071  0.3691
10584W        W26478  17.502  17.988   2.138  0.0728 -0.1025 -0.0116
10585W        W26479   0.125   7.403   5.635 -0.1044  0.2577 -0.1064
10586W        W26480   1.577  12.781   0.526  0.1559  0.1779  0.0266
10587W        W26481   4.045   2.155  13.434  0.0402 -0.2622  0.1018
10588W        W26482   8.568  17.175  15.455  0.1540 -0.0461 -0.0429
10589W        W26483  12.302   9.638  14.504 -0.2580  0.0327 -0.0770
10590W        W26484  14.803   8.631   2.940  0.0380 -0.0247  0.2168
10591W        W26485  15.856  12.159   2.366 -0.1272 -0.1835  0.1752
10592W        W26486   5.761   1.785   2.757 -0.0850 -0.2139  0.1268
10593W        W26487   9.924  14.494   2.885  0.2205 -0.2470  0.1237
10594W        W26488   6.875   9.886  12.870  0.1124 -0.1949  0.1249
10595W        W26489  15.206  13.586   0.134  0.0053  0.1533  0.0925
10596W        W26490  12.056   1.694   2.352 -0.2455 -0.0082 -0.1311
10597W        W26491  16.583  16.746   5.914 -0.0311 -0.0620 -0.3718
10598W        W26492   5.726   6.327  14.012  0.3133  0.4669  0.2676
10599W        W26493   6.795  18.548  11.170 -0.2620 -0.4570 -0.0375
10600W        W26494   0.540   1.669   1.566 -0.1125  0.4191 -0.2470
10601W        W26495   3.729  16.442  13.240  0.0661  0.1091  0.0904
10602W        W26496  17.487  13.415  11.044 -0.1109  0.2405 -0.1193
10603W        W26497   3.461   3.241  13.370 -0.0391 -0.0697  0.1992
10604W        W26498   3.182  18.188  12.913  0.1265 -0.1161  0.0380
10605W        W26499   7.455   3.321   0.454 -0.1106  0.2273  0.1627
10606W        W26500  14.289  14.523  14.106  0.1516  0.0636  0.0297
10607W        W26501  13.294   2.667  11.973  0.2140  0.2933  0.2079
10608W        W26502  13.270  14.568  15.102 -0.1465 -0.0310 -0.0686
10609W        W26503   2.676  17.727   9.512 -0.0099 -0.0428  0.2553
10610W        W26504  11.266  18.882  15.391  0.3650  0.0676  0.0597
10611W        W26505   6.347  17.858  11.077 -0.0452 -0.0354  0.1333
10612W        W26506  12.041   8.308  14.416  0.2648  0.0420 -0.2868
10613W        W26507   8.768   4.914   4.700  0.2580  0.1614 -0.1772
10614W        W26508   7.881  11.708  11.979  0.0479 -0.1286  0.1248
10615W        W26509   5.179  17.761  14.909  0.0296 -0.2269  0.3800
10616W        W26510   2.914   8.451  15.070  0.0129 -0.3726  0.1290
10617W        W26511   2.814   9.726   0.021 -0.0116  0.4848  0.0390
10618W        W26512   9.464  10.838   3.462  0.1690  0.0520 -0.2441
10619W        W26513  17.828   4.208  13.321  0.1130 -0.1143  0.4709
10620W        W26514   1.636   8.418   2.731  0.2056  0.1656  0.0306
10621W        W26515   6.713   5.880  10.730 -0.1734 -0.1328  0.0703
10622W        W26516   4.486  13.714   3.028  0.1828 -0.0807 -0.0520
10623W        W26517  12.188   8.931   0.683 -0.0126 -0.0081  0.0238
10624W        W26518   3.002   3.519   2.186  0.1827  0.0971 -0.2412
10625W        W26519  18.369   0.843   4.882 -0.1479  0.1793 -0.0460
10626W        W26520   4.571   0.923  12.683 -0.1554  0.0830  0.0157
10627W        W26521   4.876  13.516   1.073  0.2159  0.0159  0.0081
10628W        W26522   6.420   4.758  13.519 -0.0244 -0.3297 -0.2766
10629W        W26523  13.343  17.055   1.477 -0.4001 -0.0297  0.1394
10630W        W26524  16.769   5.911   1.121  0.1672  0.0978 -0.0374
10631W        W26525   7.760   8.620  13.474 -0.1335 -0.0006 -0.3040
10632W        W26526   1.930  11.947   3.309 -0.0035 -0.0641  0.3795
10633W        W26527   1.270   7.215  14.075  0.0132  0.4897  0.2069
10634W        W26528   7.184   6.837   2.309 -0.0824  0.1554 -0.1177
10635W        W26529   1.684   6.812  15.089 -0.0828 -0.0036  0.1344
10636W        W26530  17.895  10.809  15.356 -0.2607 -0.0243  0.2283
10637W        W26531  14.582   7.319  15.194 -0.2238 -0.3526 -0.0867
10638W        W26532   2.279   2.373  10.961  0.0961 -0.0279  0.2988
10639W        W26533   4.724  18.346  12.804 -0.2419 -0.0907 -0.0933
10640W        W26534  11.576  14.180   5.997 -0.1635  0.3653 -0.0956
10641W        W26535   6.812   7.031  14.820 -0.0845  0.0048  0.3122
10642W        W26536   0.351   1.567   5.421 -0.4258  0.1564  0.0163
10643W        W26537   2.121   4.828  12.267 -0.1511  0.0046  0.1478
10644W        W26538  11.211  11.715   3.561 -0.2502 -0.2026  0.1501
10645W        W26539   3.744   3.870  14.056  0.3864 -0.0580 -0.0594
10646W        W26540  10.667  14.083   2.565  0.0733 -0.1321  0.2236
10647W        W26541  10.152  17.948  10.584 -0.1393  0.1431 -0.1473
10648W        W26542   2.913   6.107  13.880  0.2884 -0.0144 -0.1563
10649W        W26543   0.068  11.308  14.090  0.0474 -0.1786 -0.2358
10650W        W26544   8.036   4.597  11.102 -0.1384  0.0023  0.0219
10651W        W26545   2.492   3.292   3.787 -0.0778  0.0488  0.2513
10652W        W26546   6.909  11.334  12.580 -0.1008  0.1548  0.2308
10653W        W26547  15.980   2.605  12.543  0.0089 -0.0376 -0.1393
10654W        W26548   5.612   1.779  11.569 -0.4623  0.2222 -0.1301
10655W        W26549  12.874  11.540   0.744 -0.1605  0.1444  0.1153
10656W        W26550   2.818   9.385   3.879  0.0617 -0.1574 -0.3172
10657W        W26551  17.122  11.413  13.592 -0.1183 -0.4959 -0.1182
10658W        W26552  17.196   1.160  14.080  0.0348  0.0561  0.3109
10659W        W26553  11.680   6.465  15.085  0.2210 -0.1645 -0.0546
10660W        W26554   1.469   6.313  10.882 -0.1776 -0.3848 -0.0767
10661W        W26555  17.616  16.728  13.949 -0.0274  0.1439  0.1057
10662W        W26556   2.200  17.681   3.705 -0.1297  0.3393  0.3543
10663W        W26557  11.947  15.953   2.138  0.0906 -0.0531 -0.0476
10664W        W26558  16.107   8.950   4.280 -0.2355 -0.2114  0.3031
10665W        W26559  12.222   7.759  12.535 -0.1174  0.0865 -0.3144
10666W        W26560   0.010  15.266  15.337  0.2344  0.0396  0.1207
10667W        W26561   0.705   0.417  11.815 -0.3952  0.0175  0.0741
10668W        W26562   8.765  14.333  15.371  0.1253 -0.1956  0.1747
10669W        W26563   2.039  14.581  14.060  0.0075  0.1630 -0.1267
10670W        W26564  15.998   5.209   3.384  0.0463  0.1060 -0.4754
10671W        W26565  16.168  11.443   0.245  0.0023  0.0900 -0.0559
10672W        W26566   3.972   1.859   3.924 -0.0641  0.2254  0.3647
10673W        W26567  14.189  18.817  12.651 -0.0721  0.4948  0.3665
10674W        W26568   0.994  13.523  10.915 -0.0829  0.0033 -0.0757
10675W        W26569   1.781   6.677  10.746  0.0324 -0.2569 -0.0241
10676W        W26570   9.286   3.335   2.332 -0.0567 -0.0619 -0.3407
10677W        W26571   0.913   2.359  12.598 -0.2833 -0.1330 -0.2145
10678W        W26572   4.226   3.496  15.264 -0.3114  0.1061  0.2127
10679W        W26573   5.338   4.120  13.484  0.0360 -0.0674 -0.0185
10680W        W26574  13.453  10.067   5.102 -0.0059  0.0228 -0.0336
10681W        W26575   9.396  16.523   3.499  0.0622  0.1545 -0.2886
10682W        W26576   1.273   2.525  13.834 -0.0216  0.0868 -0.2692
10683W        W26577   5.947   5.814   1.786  0.1235  0.0273 -0.3146
10684W        W26578   8.414  15.941   4.433 -0.3349 -0.1984 -0.0483
10685W        W26579   8.583   7.405  10.865  0.0219  0.5467  0.3951
10686W        W26580   1.824  15.632  11.156 -0.1305  0.2997 -0.0121
10687W        W26581   7.230  17.231   2.873  0.0983 -0.0078 -0.0525
10688W        W26582   9.916   9.133   2.185  0.2548 -0.0325 -0.0362
10689W        W26583   9.820  16.206   3.556 -0.0746  0.1142  0.0800
10690W        W26584  11.566   6.531  10.864  0.1140 -0.0347 -0.0284
10691W        W26585   6.321   8.434  11.488 -0.1504 -0.2886 -0.1007
10692W        W26586  13.902   3.384  12.457  0.3863 -0.1799 -0.0470
10693W        W26587   6.845  18.812   2.392 -0.1382 -0.0508 -0.0502
10694W        W26588  11.676   8.792  12.243  0.1323 -0.3109 -0.3723
10695W        W26589  16.811  12.726  12.381 -0.4083  0.0551  0.1435
10696W        W26590  16.728   2.656  13.062  0.1896  0.0117 -0.2457
10697W        W26591  13.281   8.525  15.434 -0.3622  0.1697 -0.0567
10698W        W26592   0.198  17.010   2.037  0.2416 -0.1897 -0.0335
10699W        W26593  10.222   1.022   1.421 -0.0916  0.0663  0.2225
10700W        W26594  15.770   5.452  10.867 -0.0374 -0.0990 -0.0689
10701W        W26595   7.530   1.609  12.718 -0.1258 -0.1241 -0.0805
10702W        W26596   4.668   8.013  12.483 -0.1546  0.1254  0.2220
10703W        W26597   4.309   5.764  14.755  0.1251  0.2019  0.3845
10704W        W26598   4.530   2.537   2.853 -0.1234  0.1258 -0.4018
10705W        W26599   3.982  13.967   0.283 -0.0448  0.0288  0.0391
10706W        W26600   2.900  17.351   3.905  0.0528 -0.2152  0.2768
10707W        W26601  13.728  14.452   3.646  0.0665 -0.3491  0.2508
10708W        W26602   6.088  12.556   4.692 -0.1348 -0.1671  0.2804
10709W        W26603  16.996   8.675   0.931  0.2181 -0.0183  0.0505
10710W        W26604  14.263   4.955   9.332 -0.0860 -0.0305 -0.2704
10711W        W26605   9.310  16.290   5.252  0.2851 -0.1850 -0.1592
10712W        W26606   0.249  14.450   4.662  0.0394 -0.0034  0.2142
10713W        W26607   2.307   3.382  14.548  0.0358 -0.0010  0.2290
10714W        W26608  16.526  18.592  13.561  0.3199  0.1238 -0.0395
10715W        W26609   7.116   5.147  10.184  0.0224  0.0260 -0.1225
10716W        W26610  15.210   2.154  12.052  0.0517 -0.2462 -0.1151
10717W        W26611   1.183   8.514   1.491  0.1063 -0.0259  0.1665
10718W        W26612  18.535  12.762   0.727  0.1336 -0.3545 -0.0279
10719W        W26613   7.680   9.397  13.130  0.4666 -0.1771 -0.4495
10720W        W26614   4.667   3.123   2.716  0.0608  0.3431  0.2043
10721W        W26615   2.351   9.888  13.364 -0.1274 -0.0096 -0.0270
10722W        W26616   8.061  17.402  13.148  0.0403 -0.2645  0.0962
10723W        W26617   1.392   0.625   9.208  0.1740  0.0321 -0.2259
10724W        W26618   3.136  14.231   3.412 -0.1909 -0.0033  0.0812
10725W        W26619  15.625   9.392   3.206  0.1610 -0.1753 -0.0675
10726W        W26620   5.158   8.147  13.962 -0.1517 -0.2129  0.2570
10727W        W26621   6.557  11.544   2.492 -0.0929 -0.0353  0.3242
10728W        W26622   0.644   4.294   1.168  0.0240 -0.3100  0.3193
10729W        W26623  14.116  14.306   4.180  0.1021  0.0578  0.1206
10730W        W26624   3.186  14.735   3.040  0.2541 -0.0271 -0.0329
10731W        W26625  12.620  12.908   3.411  0.1373  0.0260 -0.1684
10732W        W26626   9.825   1.606   1.808 -0.1133  0.1477  0.1940
10733W        W26627   2.833  12.107   1.544  0.1718  0.3689 -0.0974
10734W        W26628  17.758   8.768   3.776  0.1331  0.1798  0.1493
10735W        W26629   9.803   6.814  13.604 -0.0483  0.0534  0.1431
10736W        W26630   0.492  10.898  12.652 -0.0359 -0.0575 -0.0261
10737W        W26631   0.790   5.195  12.820 -0.0614 -0.4145 -0.0426
10738W        W26632   7.347  13.205  10.805 -0.3928  0.4648 -0.1010
10739W        W26633  14.761   7.803  14.211  0.1722 -0.0523  0.2017
10740W        W26634   3.332  17.100   5.186  0.3400 -0.1405  0.1406
10741W        W26635   1.665  13.329   0.616  0.1539 -0.1579 -0.1264
10742W        W26636  12.394  15.157   1.843 -0.0759  0.4014 -0.0013
10743W        W26637  15.455  16.652   3.513 -0.0094  0.0026 -0.0096
10744W        W26638   3.203   2.746   1.052 -0.2051  0.3560  0.3096
10745W        W26639  17.843  14.832  11.554  0.0231  0.0751  0.2362
10746W        W26640   2.397   3.798   4.753 -0.0674  0.1262 -0.1012
10747W        W26641  11.205   1.703  13.301 -0.1615 -0.0940  0.3394
10748W        W26642  14.522  14.620   3.609 -0.1156  0.0854 -0.2327
10749W        W26643  16.946  18.000  15.113  0.1022 -0.1175  0.0783
10750W        W26644   9.502   7.995   5.086 -0.0002 -0.1076  0.1077
10751W        W26645  18.676   5.048   1.334 -0.3729 -0.0361 -0.1351
10752W        W26646   4.297   2.258  11.491 -0.4349  0.2326 -0.2847
10753W        W26647   6.324  11.889   4.960  0.0282  0.4173  0.1261
10754W        W26648  14.020   0.188  15.436 -0.1176 -0.0239  0.2200
10755W        W26649   0.868  15.786  11.158 -0.2654  0.1678 -0.1441
10756W        W26650   0.451   8.730   1.457 -0.0784 -0.1532  0.1635
10757W        W26651  11.347   6.645  11.335 -0.2934  0.2607  0.0911
10758W        W26652   9.880   9.573  15.016  0.2484  0.1064 -0.1480
10759W        W26653   5.680  11.902  13.742 -0.1370  0.0764  0.3192
10760W        W26654  14.973  13.453   1.523  0.0597  0.2535  0.0661
10761W        W26655  17.972   1.746   0.056  0.0516  0.2010 -0.1282
10762W        W26656   7.564   0.791   0.308  0.0877  0.2573 -0.0433
10763W        W26657  11.492   0.581   5.260 -0.4720  0.0335 -0.2001
10764W        W26658   3.161   7.595  12.996  0.1628  0.2889 -0.2107
10765W        W26659   6.809   2.595   1.232  0.2272  0.0568  0.0492
10766W        W26660  16.874   9.028   0.499  0.1284 -0.0986 -0.1143
10767W        W26661   8.410  17.170   1.299  0.1603 -0.0796 -0.0219
10768W        W26662   3.383   7.837  12.517 -0.0979  0.1191  0.0580
10769W        W26663   4.854   2.272  11.971 -0.0695  0.1659 -0.0792
10770W        W26664  17.367   6.695  11.053 -0.0271  0.1620  0.0055
10771W        W26665   7.263  10.171   2.806  0.0254 -0.0609  0.2221
10772W        W26666  15.168  13.899   4.480  0.1343 -0.2267  0.1063
10773W        W26667  15.715  15.366   4.602 -0.2524  0.0165 -0.3059
10774W        W26668   7.677   2.336  12.180  0.0488  0.1038 -0.4125
10775W        W26669   7.008  11.681  14.800 -0.0485  0.2200 -0.2684
10776W        W26670   0.921  15.447   4.046  0.0220 -0.2423 -0.3677
10777W        W26671   1.963   0.464   4.759  0.0230  0.0357  0.1096
10778W        W26672   7.028   1.060  13.239 -0.0400  0.0008 -0.1653
10779W        W26673  12.925   5.361  12.517 -0.0282 -0.0853 -0.1703
10780W        W26674   9.130  10.232  14.142  0.0993  0.0056  0.0733
10781W        W26675   2.713  11.147   4.667  0.0498 -0.2198  0.1429
10782W        W26676   4.672  11.995  11.516  0.0246  0.1507 -0.1307
10783W        W26677  15.522   7.086   2.334  0.3259  0.0144  0.3197
10784W        W26678   2.734   7.839  12.788 -0.2957 -0.4588 -0.0068
10785W        W26679   3.262   1.920  14.310 -0.0473 -0.2357 -0.0728
10786W        W26680  16.777   4.779  14.153 -0.1950  0.1072 -0.0976
10787W        W26681   1.739   7.998  10.177  0.1461  0.1110 -0.0800
10788W        W26682  15.766  14.742  14.531  0.3410  0.3160  0.1097
10789W        W26683  15.890   9.014  11.691 -0.0217  0.1242 -0.1004
10790W        W26684  10.760   4.106   0.173 -0.0852  0.1567 -0.1883
10791W        W26685   8.399   6.026  11.449  0.1534  0.1065 -0.1838
10792W        W26686  12.557   3.021  14.882  0.0276 -0.0008  0.2127
10793W        W26687   3.470  13.391   0.348 -0.0414  0.1539 -0.2274
10794W        W26688   0.649  15.441  13.176 -0.2745 -0.0489 -0.0204
10795W        W26689   3.347  15.374  10.907  0.0676  0.0105  0.0972
10796W        W26690   9.126   6.806   0.482  0.0837  0.0209 -0.0379
10797W        W26691   6.274  15.590  14.415  0.0371  0.1242 -0.0061
10798W        W26692  15.604   1.317   1.764  0.1428 -0.1331 -0.0479
10799W        W26693   0.977  16.667   0.201  0.1547 -0.3534  0.1330
10800W        W26694   2.622   0.145  13.939  0.0175  0.0652 -0.1014
10801W        W26695   7.230   0.359  12.250  0.0937 -0.2344  0.1266
10802W        W26696   7.183  11.551  15.298 -0.1111  0.1240  0.0541
10803W        W26697  13.957  13.095   5.395 -0.1320  0.2080  0.2102
10804W        W26698  18.601  13.543  10.764  0.1065  0.4445  0.1922
10805W        W26699   3.507  12.033  11.984 -0.0522  0.0666 -0.5152
10806W        W26700   5.534   7.904  11.675 -0.1704  0.1249 -0.0576
10807W        W26701   2.016   7.534   3.270  0.0774 -0.0935  0.1415
10808W        W26702   0.882  11.388  10.836 -0.1553  0.0267 -0.3044
10809W        W26703   5.357   9.991   0.362 -0.1457 -0.2342  0.3641
10810W        W26704   0.908  14.632  11.880  0.4891 -0.3949  0.1591
10811W        W26705   5.033  13.960  12.876  0.0360  0.2994 -0.3030
10812W        W26706  11.264  15.252  15.036 -0.1017  0.0577 -0.0083
10813W        W26707   8.655   1.324   1.153  0.2965  0.0252  0.0418
10814W        W26708  18.110   5.824  11.698  0.0629  0.2403 -0.2228
10815W        W26709  16.139  17.940   0.045  0.0763 -0.1239  0.2918
10816W        W26710  18.443  16.662  11.122 -0.1878 -0.0805 -0.5226
10817W        W26711   7.321   0.569   2.308  0.0504 -0.0027  0.2954
10818W        W26712   7.505  13.564  15.049 -0.1519  0.0283  0.1632
10819W        W26713  17.315  14.418   4.710  0.2154  0.1020  0.0926
10820W        W26714   0.164  11.469   1.825 -0.3270 -0.0621  0.0319
10821W        W26715   2.006  14.310   3.690 -0.1666 -0.2519  0.3513
10822W        W26716  17.233   3.674   0.238 -0.0801  0.1807  0.1029
10823W        W26717   4.126  11.753  14.771 -0.4073 -0.1155  0.0512
10824W        W26718  11.749   7.907   1.870 -0.0382  0.0196 -0.1552
10825W        W26719   3.211  13.002  12.145  0.1457  0.0870 -0.0394
10826W        W26720  12.222   8.692  14.175 -0.5073  0.1169  0.0398
10827W        W26721  10.637  15.639  13.071 -0.1167 -0.1720 -0.2574
10828W        W26722   9.594  16.433   2.268 -0.1834 -0.0950 -0.2319
10829W        W26723  10.240  16.586  12.445 -0.0305  0.0215  0.1837
10830W        W26724   3.666  15.481  15.004 -0.1245 -0.0319 -0.1794
10831W        W26725  14.723   7.720  13.195  0.0711 -0.2763  0.2900
10832W        W26726  14.828  17.617  14.194 -0.3784  0.0556  0.1201
10833W        W26727  13.536   1.063   0.385  0.0261 -0.0404 -0.0188
10834W        W26728  14.909  18.032  11.689 -0.3582 -0.0657 -0.0879
10835W        W26729  12.942   1.545  13.570  0.1948 -0.1984 -0.0642
10836W        W26730  15.360  10.196  11.188 -0.0438 -0.1140 -0.3558
10837W        W26731   1.793   9.976   2.011 -0.4330  0.0784  0.0114
10838W        W26732   1.300  15.038   0.301  0.3090  0.1947 -0.1208
10839W        W26733   3.096   8.541  13.008  0.1293 -0.1417  0.3248
10840W        W26734   1.243  14.378   1.010  0.1560  0.1649  0.3136
10841W        W26735   1.199  11.617  14.974  0.0806 -0.0955  0.1921
10842W        W26736  13.689  16.168  10.720  0.1917 -0.0348  0.0294
10843W        W26737  13.298   2.095  14.486 -0.2591 -0.0848 -0.0567
10844W        W26738   8.525   0.079  12.503  0.0915  0.0394  0.0077
10845W        W26739   8.597  16.142  11.642  0.0616 -0.0524  0.0575
10846W        W26740  13.170   5.835  14.577 -0.0346  0.2007 -0.1201
10847W        W26741  17.943   0.741  13.481 -0.2101  0.0106  0.4638
10848W        W26742  11.181  10.706  11.351 -0.5524  0.0584 -0.1055
10849W        W26743  11.030  17.568   0.293  0.0732  0.1659  0.1476
10850W        W26744   2.257   9.455  14.035  0.0807 -0.2483  0.2455
10851W        W26745  13.610   9.564   4.835  0.2890  0.1394 -0.0106
10852W        W26746  10.554  14.003  10.767  0.0056 -0.0457  0.1271
10853W        W26747  14.359  15.969   4.759  0.1839  0.1071 -0.1112
10854W        W26748   5.936   0.425  14.157  0.1130 -0.0223 -0.1209
10855W        W26749   4.005   1.698  13.638  0.1744  0.1136  0.0248
10856W        W26750   6.204   3.481  15.342 -0.0759  0.1814 -0.0332
10857W        W26751  14.254  14.457  14.572  0.0984  0.2087  0.0525
10858W        W26752  18.779  18.194   1.382  0.1365 -0.2853  0.0632
10859W        W26753  17.612  16.113  12.667 -0.0424 -0.2198 -0.0549
10860W        W26754   5.157   4.200   2.487  0.1295 -0.0550 -0.2658
10861W        W26755   9.203   9.201  12.061  0.1889 -0.0255 -0.0783
10862W        W26756  18.558  16.207  12.478 -0.1574 -0.3919  0.0858
10863W        W26757  16.668   8.883  14.288  0.1890  0.0295  0.0969
10864W        W26758   7.007   7.267  13.883 -0.1326  0.1109 -0.1390
10865W        W26759   4.572   3.802  13.974  0.0891 -0.0608 -0.1335
10866W        W26760  11.235  15.849  13.327  0.0772 -0.1061  0.0554
10867W        W26761  14.421   2.852   0.849 -0.1436  0.1815 -0.0197
10868W        W26762  14.590  14.219  15.155 -0.1400 -0.1000  0.1421
10869W        W26763   3.116   0.502   3.042 -0.2083  0.1063  0.1860
10870W        W26764  18.482  16.729  12.357  0.2760 -0.0151 -0.0927
10871W        W26765  17.753  18.292  12.971 -0.1474 -0.0810  0.4123
10872W        W26766  17.168   4.207   0.413  0.0384 -0.3566  0.1009
10873W        W26767  13.165  16.779  11.702  0.2897  0.0890 -0.4045
10874W        W26768  13.929  13.394   0.534 -0.3432  0.0630 -0.2432
10875W        W26769  14.591  17.060   1.096  0.0068  0.2677  0.2804
10876W        W26770   4.056   3.599  10.735  0.1220 -0.0391 -0.0788
10877W        W26771   6.551  11.604   5.288 -0.0176  0.1168 -0.1919
10878W        W26772   9.651   9.094  12.225 -0.0738 -0.0747  0.1318
10879W        W26773  14.751  15.175  14.848  0.0920 -0.1639  0.3130
10880W        W26774   5.833  18.360   1.143 -0.1733 -0.1392  0.0901
10881W        W26775  17.753   9.914  10.805 -0.0456 -0.2245  0.0329
10882W        W26776   2.430   5.612   1.146  0.2232  0.2016  0.2134
10883W        W26777   2.084   8.835  15.404  0.0482  0.1580  0.0844
10884W        W26778  13.497   6.640   2.542 -0.1530 -0.0718 -0.0092
10885W        W26779  13.927  13.804  12.833  0.1976 -0.0947  0.2973
10886W        W26780   3.280   9.498  11.646 -0.2783 -0.1391  0.1655
10887W        W26781  13.391   9.301  14.959  0.1028  0.1144  0.0469
10888W        W26782  14.626  10.142   5.788  0.0671 -0.1145  0.1615
10889W        W26783   7.983   6.854  11.319 -0.0428 -0.4394  0.2681
10890W        W26784  18.552   6.004   3.259 -0.0555  0.2145  0.0719
10891W        W26785   6.570   3.415  11.505 -0.2124  0.0894  0.2139
10892W        W26786  16.223  13.111  13.708 -0.2609 -0.4407 -0.0344
10893W        W26787  12.494   6.218   2.664 -0.0551  0.3520 -0.3413
10894W        W26788  18.234  13.900  12.557  0.1065  0.2296  0.2743
10895W        W26789   4.162   9.663   0.310  0.0483  0.1885 -0.0060
10896W        W26790   3.458   5.854   0.829  0.2005 -0.0050 -0.0366
10897W        W26791   9.262  14.665  14.131 -0.1067  0.1634  0.1861
10898W        W26792   5.835   8.329  11.804  0.3229  0.0307  0.2679
10899W        W26793  14.112  15.571   5.967 -0.0139 -0.2351  0.3632
10900W        W26794  10.309   6.176   4.757  0.4259 -0.0872 -0.3997
10901W        W26795  14.716   7.666   4.650  0.0075 -0.0471  0.1947
10902W        W26796  16.082  10.457  15.361 -0.0823 -0.2833 -0.2152
10903W        W26797   9.632   7.805   5.538  0.0327 -0.0086  0.2431
10904W        W26798  18.342   2.428   2.545  0.1822  0.0307  0.0421
10905W        W26799  10.250  17.555  14.346  0.0592 -0.1327  0.0472
10906W        W26800  11.554  13.752  14.464 -0.1314 -0.0740 -0.1985
10907W        W26801   9.505   3.060   5.554 -0.1509 -0.1451 -0.0618
10908W        W26802   9.378  14.706  13.525  0.0913  0.0929  0.4073
10909W        W26803   5.930   2.107  12.911 -0.1990 -0.1787  0.0072
10910W        W26804  13.642   6.433  10.102  0.0838  0.2172  0.0596
10911W        W26805   1.242   3.973   3.477  0.0021  0.1015  0.1665
10912W        W26806   9.328   1.252  14.022 -0.0356 -0.1164  0.0306
10913W        W26807  15.307   9.085   0.688  0.1557 -0.2024  0.0876
10914W        W26808  18.133   4.495  12.378  0.0501  0.2921  0.0656
10915W        W26809  17.107   9.155  10.934  0.1285 -0.2379  0.5035
10916W        W26810   4.617   4.046  13.135  0.0263  0.0194 -0.0553
10917W        W26811  15.629   7.589   2.287  0.1670  0.1040  0.1370
10918W        W26812   6.118  14.437  13.698 -0.4532  0.0502 -0.0132
10919W        W26813   9.765  14.660   3.957  0.0174 -0.0254  0.1498
10920W        W26814   3.249  16.291  11.765  0.0352  0.2178 -0.1099
10921W        W26815  11.236   3.145  12.735  0.0221 -0.0813 -0.2101
10922W        W26816   9.561   1.726  11.236 -0.1065  0.1450 -0.1996
10923W        W26817  17.935  14.366  14.442  0.0504  0.2766 -0.0087
10924W        W26818  15.477   0.280   5.335 -0.2785 -0.1227 -0.0461
10925W        W26819   1.417   8.821   2.937 -0.0393  0.0392  0.1215
10926W        W26820  18.372   2.675   4.795  0.1140  0.0168  0.1292
10927W        W26821   7.017  18.137   1.913 -0.0130 -0.1357 -0.1327
10928W        W26822   3.418  13.284  15.060  0.3302 -0.1610 -0.0841
10929W        W26823  15.712  11.860   1.874 -0.1921 -0.0581  0.2565
10930W        W26824   2.296  11.612   9.433 -0.2089 -0.4219  0.2382
10931W        W26825   8.933  16.698   0.434 -0.1333  0.0656 -0.0215
10932W        W26826  14.019   3.850   2.650 -0.2573 -0.3087  0.3534
10933W        W26827   2.621   5.000   5.294 -0.1493  0.3370 -0.2149
10934W        W26828   6.442   1.876   4.099 -0.0835 -0.2083  0.1310
10935W        W26829   1.952   7.843   0.918 -0.5467 -0.0076 -0.0589
10936W        W26830   5.442  14.526  12.924 -0.1650 -0.1125  0.0102
10937W        W26831   5.387  15.863  11.857  0.3040 -0.0401 -0.3509
10938W        W26832  14.325  18.097  12.617 -0.0981  0.0487  0.2563
10939W        W26833   8.503  15.555  13.652  0.0991  0.1764 -0.1747
10940W        W26834  15.992  15.778   6.141  0.2415  0.0455 -0.2236
10941W        W26835   7.693   5.450   1.713 -0.1425 -0.3219 -0.4315
10942W        W26836  14.615   1.836   2.859  0.0904 -0.0802 -0.2018
10943W        W26837  17.546   6.680  13.084 -0.1261  0.2456  0.1159
10944W        W26838   7.812  13.026   5.469 -0.3255 -0.1333  0.2184
10945W        W26839   5.812   2.595   4.077 -0.2507  0.3456 -0.4155
10946W        W26840  12.465  17.256   2.621  0.1463 -0.1887  0.0383
10947W        W26841  15.885   0.999  11.234 -0.1379  0.2510 -0.1285
10948W        W26842  16.755  16.839   4.009 -0.1053 -0.2166 -0.1762
10949W        W26843  17.272   5.840  10.692  0.0139  0.5393 -0.2203
10950W        W26844  17.689   4.615   9.355  0.2556  0.1695  0.0323
10951W        W26845  17.986   8.191   4.716 -0.2704  0.2957  0.3607
10952W        W26846  17.706   9.844   2.819 -0.0241 -0.1929 -0.1706
10953W        W26847  18.156  10.506   0.393  0.1466 -0.4455 -0.0530
10954W        W26848  16.073   1.136   0.065 -0.0654  0.0783 -0.0807
10955W        W26849  10.028   9.232  14.577 -0.0371 -0.0733 -0.1461
10956W        W26850   4.755   9.910   4.701 -0.1483  0.1985 -0.1011
10957W        W26851   6.191  14.931   2.680 -0.2605  0.1538 -0.0949
10958W        W26852   3.614  12.385  10.568 -0.1488  0.0272  0.0769
10959W        W26853   7.969   3.315   0.317  0.0849  0.1224  0.0042
10960W        W26854   9.889  17.337  13.645 -0.1525 -0.1894  0.1099
10961W        W26855   0.535   9.506   0.832 -0.2342  0.1674 -0.2090
10962W        W26856  15.096   7.967  14.518 -0.3744 -0.3764 -0.0652
10963W        W26857   9.792   6.947  11.625  0.0891  0.0561 -0.4068
10964W        W26858   8.853  12.276  10.533  0.0522 -0.1054 -0.0473
10965W        W26859   8.535  15.918   4.926  0.3442 -0.1309  0.1147
10966W        W26860   8.317  16.922   3.520  0.1482 -0.0990  0.2152
10967W        W26861  11.546   6.436  13.021  0.1376  0.1906 -0.3461
10968W        W26862  12.315   5.488   4.354 -0.1071 -0.4599  0.1721
10969W        W26863   8.069   6.454   2.261 -0.1259  0.1304  0.0742
10970W        W26864   7.360  13.378   4.432  0.1771 -0.0303  0.2458
10971W        W26865  16.153  13.458  13.317  0.0618  0.1131 -0.2121
10972W        W26866  12.844   0.989   0.887 -0.3644 -0.1694  0.1112
10973W        W26867   6.375  11.460   4.107 -0.3087 -0.0674  0.0098
10974W        W26868  10.806   9.272   0.470  0.1100  0.2415 -0.3878
10975W        W26869   9.498  14.534   3.317  0.1638  0.2916  0.1278
10976W        W26870   6.468   2.186  10.948  0.2559  0.1389  0.0121
10977W        W26871  11.619   5.793   3.085  0.2024  0.0014 -0.2201
10978W        W26872   7.225  17.853  13.503  0.0276 -0.0009  0.3869
10979W        W26873  13.311   1.535   3.806  0.0794 -0.0617  0.1433
10980W        W26874  13.262   4.092  14.921  0.4038 -0.1602  0.2403
10981W        W26875   1.047  13.900   9.479 -0.1321  0.0343  0.0116
10982W        W26876  10.759  18.108   5.061 -0.1883 -0.1389  0.1258
10983W        W26877   1.875   4.024  15.191  0.2657  0.0076  0.3647
10984W        W26878   1.229  18.415  10.547 -0.1196  0.5447  0.0153
10985W        W26879  18.192   9.308   0.451  0.0108 -0.1373 -0.1914
10986W        W26880   9.677   5.872  12.618  0.1939 -0.2539 -0.0265
10987W        W26881  16.343  18.149   0.664  0.1726  0.0944 -0.2924
10988W        W26882  12.085   5.901   4.688  0.1446  0.0926  0.3792
10989W        W26883  13.025   4.701   3.503  0.2201  0.1358  0.0136
10990W        W26884  17.274  15.245  14.873  0.0962 -0.1416  0.1355
10991W        W26885   4.502   9.880  14.587  0.3228  0.0055 -0.1351
10992W        W26886   4.072   9.131   2.887  0.1649 -0.0803 -0.0195
10993W        W26887   8.454   1.147  12.343 -0.3190  0.0583  0.0231
10994W        W26888  10.410  11.494  12.881 -0.3889 -0.0190 -0.3407
10995W        W26889  14.308  13.346  11.497  0.1813  0.1371 -0.3006
10996W        W26890   0.745  16.701  14.113  0.1397  0.2839  0.0954
10997W        W26891  10.061   9.901   2.130  0.2819 -0.1487  0.1265
10998W        W26892   9.832  12.511   5.395  0.0911  0.1444 -0.1249
10999W        W26893  11.818  17.208  11.145  0.0553  0.2988 -0.1403
11000W        W26894  16.912   3.377  15.089  0.3163 -0.0298  0.3892
11001W        W26895  18.852   6.374   3.114 -0.3037 -0.1023  0.0397
11002W        W26896   7.468  12.658   4.025 -0.2604  0.3923 -0.0556
11003W        W26897  14.185   2.838   4.439 -0.2511 -0.0487 -0.0642
11004W        W26898   3.565  13.820  14.459 -0.0075  0.1503 -0.0644
11005W        W26899  18.610   2.462  11.991 -0.0139  0.0841  0.5685
11006W        W26900   1.113  12.296  11.832 -0.3076 -0.3798 -0.0987
11007W        W26901   0.982   5.974   3.326  0.0938 -0.0227  0.1011
11008W        W26902   1.028   5.818   4.595  0.0033  0.0860  0.1362
11009W        W26903  12.524  11.987   0.698  0.2678 -0.1156 -0.0625
11010W        W26904  18.331   9.630  11.391  0.2784  0.2617 -0.2709
11011W        W26905   0.798  17.520  13.117  0.1391 -0.2244  0.0912
11012W        W26906   6.706   4.661  14.578  0.0535  0.0850 -0.2211
11013W        W26907  12.485   8.994  13.283  0.1911 -0.0317 -0.0995
11014W        W26908   1.867  17.229   4.756 -0.0627 -0.1772  0.0810
11015W        W26909   1.294  17.646   2.322  0.1500 -0.3271 -0.2458
11016W        W26910   0.565   7.397  10.533  0.0604  0.1242 -0.1090
11017W        W26911   9.390   3.279   1.332  0.0465 -0.2116  0.2332
11018W        W26912  13.899  10.718   4.666  0.5248  0.1149  0.1645
11019W        W26913   5.090   6.171  13.151  0.0547 -0.1148 -0.2999
11020W        W26914   5.579   3.353  13.181  0.0761 -0.0434  0.0591
11021W        W26915   8.820  15.306   0.065 -0.1617  0.2154  0.0458
11022W        W26916  15.273   0.511   4.222 -0.0344 -0.0367  0.1897
11023W        W26917   0.461   4.878   3.295 -0.3433 -0.3803  0.0808
11024W        W26918   0.626   7.681  11.611  0.0469 -0.0491 -0.1016
11025W        W26919   7.183  13.133  15.094 -0.2921 -0.1356 -0.2728
11026W        W26920   0.758  17.855   5.169 -0.2163 -0.0408 -0.0849
11027W        W26921   8.673   0.307   4.208 -0.2407  0.0666 -0.1755
11028W        W26922   9.505   7.312   3.718 -0.0586  0.0551  0.1085
11029W        W26923   2.629   8.590  11.093 -0.0223 -0.1288 -0.1197
11030W        W26924  16.997   2.694   1.472 -0.2749 -0.0587 -0.2780
11031W        W26925  11.470   9.324  15.172  0.0188  0.0151 -0.2204
11032W        W26926   4.448   4.228  10.423 -0.0048  0.0497 -0.0368
11033W        W26927  15.182  14.957  14.868  0.3072 -0.2283 -0.0440
11034W        W26928  16.862   4.844   1.727  0.1358  0.1278  0.0045
11035W        W26929  13.609   3.727   2.923 -0.1052 -0.0594 -0.5458
11036W        W26930  13.804   6.850   4.787 -0.2178 -0.2425  0.0325
11037W        W26931  15.978   3.080  10.868 -0.1737  0.0305  0.0232
11038W        W26932   1.030  14.744   1.318 -0.1190 -0.0177  0.4286
11039W        W26933  16.260  16.548   2.764  0.0594  0.4162  0.4108
11040W        W26934  17.612   4.493   0.455 -0.1910 -0.1197 -0.0217
11041W        W26935  17.753  14.159  15.268 -0.1843 -0.2031  0.4243
11042W        W26936   8.029  17.638   3.973 -0.1645  0.0682 -0.4231
11043W        W26937  15.386   5.369   1.846  0.0599  0.1244 -0.2116
11044W        W26938  10.123  18.564   1.872 -0.0001 -0.2420 -0.0969
11045W        W26939   7.281   6.237   3.930 -0.0021  0.2476 -0.0638
11046W        W26940  17.987  17.907   3.053  0.3445 -0.1665  0.0563
11047W        W26941   5.120  16.058  13.653  0.1541  0.0793  0.0621
11048W        W26942   7.509  10.380  11.786 -0.4724 -0.2768  0.0373
11049W        W26943   1.735  11.792   0.815  0.2743 -0.2550  0.1678
11050W        W26944   7.226   3.022   3.285 -0.2226 -0.4967 -0.0456
11051W        W26945  12.829  12.307   3.792 -0.1714 -0.0106  0.2114
11052W        W26946  12.945   3.382   0.266  0.1853  0.1867  0.5061
11053W        W26947  11.921   5.998  14.229 -0.2465 -0.2852  0.0651
11054W        W26948  17.990   2.747   3.807 -0.0332  0.2463 -0.0002
11055W        W26949  15.109   8.840   3.550 -0.0805  0.0794 -0.0842
11056W        W26950  12.471   8.700   3.360 -0.0459  0.3446 -0.0941
11057W        W26951   7.044   9.759   2.575  0.0592 -0.2198  0.4143
11058W        W26952   3.135  16.742   5.550 -0.1492 -0.0138 -0.2756
11059W        W26953   7.438   5.675   4.188 -0.4415 -0.1831 -0.1117
11060W        W26954  12.812  18.387  13.697  0.0936 -0.0960  0.0336
11061W        W26955  11.076   5.070  14.879  0.0027 -0.1765 -0.2609
11062W        W26956   1.456   5.756   3.400  0.4907  0.1480 -0.0047
11063W        W26957  10.892  13.062   5.780  0.0584 -0.2800  0.1701
11064W        W26958   9.588  10.761  11.303 -0.0754  0.0407  0.1379
11065W        W26959   0.248  15.157  11.819 -0.3170  0.1369  0.0631
11066W        W26960  10.126  11.236   1.554 -0.0391 -0.1853 -0.4013
11067W        W26961  17.969   4.341   0.780 -0.0414 -0.1885 -0.0039
11068W        W26962   1.003   1.487   0.884  0.2328  0.1446 -0.1535
11069W        W26963   6.336   5.587  13.526 -0.0296  0.0055 -0.2773
11070W        W26964  12.469   9.400   1.914 -0.1428 -0.3098  0.1826
11071W        W26965   9.847   0.780   3.869  0.2770 -0.1364 -0.0598
11072W        W26966   6.963  16.138   2.002  0.0004 -0.0484  0.1136
11073W        W26967   4.964  13.746  14.057 -0.0359  0.2397 -0.2559
11074W        W26968   7.890   5.876  13.591 -0.1821 -0.0906  0.0532
11075W        W26969  17.142   2.337   3.624  0.0116  0.1943  0.1114
11076W        W26970   6.776   8.373  13.373 -0.1063  0.1479  0.1437
11077W        W26971   6.792   8.767   2.564 -0.0552 -0.0167 -0.0238
11078W        W26972   1.123  10.986   2.742 -0.2361 -0.2544 -0.1517
11079W        W26973   0.418   2.820   0.376 -0.1761  0.3754 -0.2068
11080W        W26974  12.797   0.210   2.329 -0.0207  0.0249  0.0720
11081W        W26975   9.889  15.713   4.283  0.0959 -0.2216 -0.3083
11082W        W26976   8.566  10.268  10.966 -0.1277 -0.3047  0.1412
11083W        W26977  18.286   3.441   1.507  0.1634  0.0434  0.0561
11084W        W26978   3.916   8.835   0.094  0.2609  0.0631 -0.1343
11085W        W26979  13.733   0.078   3.751  0.3054  0.0811  0.1742
11086W        W26980   9.446  10.966  15.184  0.3229  0.0071 -0.1216
11087W        W26981  16.877   5.485   0.451  0.2902 -0.1567  0.2007
11088W        W26982   4.939  13.543  10.153 -0.0449  0.3115  0.0066
11089W        W26983   4.510  15.267  11.966 -0.1163 -0.3454 -0.1376
11090W        W26984   3.731   3.005  11.292 -0.1022 -0.0636  0.1652
11091W        W26985   0.993   5.707   5.116  0.0593 -0.0664  0.0138
11092W        W26986   3.300  16.697   0.299  0.0839  0.2535  0.3630
11093W        W26987   2.802  18.071  14.132 -0.1861 -0.2456 -0.0769
11094W        W26988  17.852  12.533   2.355  0.1881 -0.0623 -0.0282
11095W        W26989  16.568   0.480  11.978 -0.1836 -0.0945  0.2445
11096W        W26990   4.420   4.566  11.731 -0.0518 -0.2931  0.2343
11097W        W26991  13.573  17.606   0.243  0.1539 -0.1938 -0.0452
11098W        W26992  11.701   4.832   1.201  0.0301  0.1268 -0.0047
11099W        W26993  13.544   8.481   1.196  0.1272  0.0266 -0.2416
11100W        W26994  10.207  11.950  11.080  0.1464  0.0960  0.1418
11101W        W26995   4.068   9.666   0.867 -0.1725 -0.0417  0.0398
11102W        W26996  15.337   8.109  14.984 -0.0600  0.1275  0.5071
11103W        W26997   0.361  16.414   3.188  0.0179  0.3995  0.0896
11104W        W26998   7.897   1.949  11.898  0.3115  0.2557 -0.0734
11105W        W26999   3.267   1.612  13.420  0.1591 -0.0918  0.0993
11106W        W27000   5.666   3.615   5.058 -0.0919 -0.0517  0.0748
11107W        W27001  15.439   4.879  11.305 -0.0328 -0.2642  0.1747
11108W        W27002   8.404   8.324   0.804 -0.0094  0.3637  0.2857
11109W        W27003   1.695  12.801  15.333  0.0501 -0.0118  0.3505
11110W        W27004   0.836   4.879  11.463  0.0417 -0.1082  0.0957
11111W        W27005  16.190  13.099   1.996 -0.0051 -0.2303 -0.0949
11112W        W27006  15.194   9.678  12.336  0.2109 -0.3851 -0.3335
11113W        W27007  18.813   3.816  10.458  0.1482  0.0757 -0.2536
11114W        W27008  18.553  13.453  11.652  0.0075 -0.1705 -0.0432
11115W        W27009  10.202   5.563  15.204 -0.1264  0.3209 -0.3486
11116W        W27010   8.248   0.413  12.361  0.0314  0.0036  0.0555
11117W        W27011   9.770   8.341   3.840  0.4289 -0.0102 -0.0532
11118W        W27012  12.748   5.098   3.630 -0.3383  0.1959  0.3226
11119W        W27013   2.835   3.983   5.423 -0.0198 -0.2063  0.1488
11120W        W27014   4.542  11.005   2.228  0.3723 -0.3353 -0.0272
11121W        W27015  12.667   2.636   4.673  0.1447  0.2809  0.0604
11122W        W27016  12.795  14.904   4.006  0.0333 -0.1377  0.0375
11123W        W27017   9.702   5.701   0.429  0.4296 -0.0593  0.0599
11124W        W27018   1.670   2.579   2.157 -0.0628 -0.0005 -0.2374
11125W        W27019   0.311   1.510   3.976 -0.2117 -0.0469  0.2604
11126W        W27020  13.083   1.076   5.439  0.1679 -0.1587 -0.0673
11127W        W27021   5.835   9.652   3.325  0.1806 -0.1823  0.1313
11128W        W27022  13.096  12.756   0.561  0.0891  0.0432 -0.0586
11129W        W27023   0.125   0.712   1.553 -0.0955  0.2658 -0.0336
11130W        W27024  10.199   6.692   0.689 -0.1468  0.1142 -0.1885
11131W        W27025  12.991   5.072  14.214 -0.1882  0.4033  0.0323
11132W        W27026   5.929  13.877   0.339 -0.1022 -0.1378  0.2573
11133W        W27027  12.543  13.227  10.904  0.0555  0.1527 -0.0906
11134W        W27028  11.329   0.206  11.982  0.0154 -0.0345 -0.0437
11135W        W27029   1.245  10.502  10.376 -0.3158  0.2332  0.0644
11136W        W27030   3.848  11.010   0.509 -0.2958  0.2955 -0.1808
11137W        W27031   9.303  10.274  13.569 -0.1983  0.0550  0.1023
11138W        W27032   5.261  18.087   2.095 -0.1450  0.2379 -0.1490
11139W        W27033  16.704  15.107   2.631 -0.0674 -0.1893 -0.2287
11140W        W27034   5.872   3.606  12.880  0.0245  0.0766  0.1768
11141W        W27035  13.209  18.713  11.950  0.0392 -0.0936  0.2007
11142W        W27036   8.094   0.301   2.388  0.0658 -0.2895  0.0959
11143W        W27037  10.719   8.780  15.001  0.0555 -0.0537  0.1143
11144W        W27038   7.781   7.715  12.747 -0.1076  0.3748  0.1316
11145W        W27039   0.732   2.287   2.856  0.0975  0.0844 -0.0988
11146W        W27040   2.401  14.560   2.711  0.0859 -0.3083 -0.3969
11147W        W27041  15.808   0.708   5.132 -0.2498 -0.1980 -0.1123
11148W        W27042   1.248  11.601  11.100 -0.0939  0.0775 -0.1888
11149W        W27043  18.835   7.169  13.060 -0.1283  0.0773 -0.0039
11150W        W27044  16.547   1.769  11.321 -0.0884 -0.1178 -0.0047
11151W        W27045  11.745  13.373   3.985 -0.2286 -0.2401  0.1966
11152W        W27046  13.626   1.161   4.753  0.3834 -0.1201  0.4171
11153W        W27047  18.040   3.534  12.240 -0.1371 -0.1061 -0.1146
11154W        W27048  11.402   4.512  12.271 -0.0857  0.0363 -0.0044
11155W        W27049   3.673   4.608   3.936  0.2938 -0.3045 -0.0928
11156W        W27050  14.602  13.164   4.721  0.0054  0.1827  0.0050
11157W        W27051  13.454  11.054   3.368 -0.2666  0.0139  0.0016
11158W        W27052  11.813   9.155   1.466  0.3225 -0.1327  0.1882
11159W        W27053  18.676   8.204  14.013  0.0568  0.2064 -0.1014
11160W        W27054  10.681   9.582  11.419 -0.0509  0.0222 -0.0245
11161W        W27055  17.282   4.673  12.103  0.2112 -0.0303  0.0063
11162W        W27056   6.752   3.125   3.169  0.0958  0.0586  0.3425
11163W        W27057  16.640  14.686  11.043 -0.0817  0.1511 -0.2317
11164W        W27058  18.136  16.910  10.791 -0.2339 -0.1439  0.2494
11165W        W27059  17.733  12.160   0.603 -0.0018  0.1589  0.0264
11166W        W27060  16.004  13.557  12.585 -0.1640 -0.1498  0.2749
11167W        W27061  17.499  16.803   9.923  0.2857 -0.2513  0.2713
11168W        W27062   0.687  18.052  11.449  0.1472 -0.3256 -0.0122
11169W        W27063  16.152   6.783  13.624  0.2021  0.0522  0.3450
11170W        W27064   4.264  13.977   3.446 -0.0092 -0.0086 -0.3626
11171W        W27065   8.120  13.912   0.217 -0.0053  0.2229 -0.1031
11172W        W27066  17.242  11.586   4.405  0.2365 -0.1593  0.0151
11173W        W27067  18.209  11.878   0.604  0.2996 -0.1053  0.2223
11174W        W27068  10.339   2.925  14.040  0.1943 -0.3742  0.2382
11175W        W27069   5.640  16.900   1.755  0.3800 -0.1441  0.0492
11176W        W27070   6.963  17.455   3.527 -0.2076  0.0320  0.3563
11177W        W27071  11.716  12.199  14.892 -0.1816 -0.0592  0.1449
11178W        W27072  11.974   3.915   1.162 -0.0087 -0.1538 -0.1060
11179W        W27073   9.797   0.019  12.744 -0.1234 -0.2005 -0.1299
11180W        W27074   8.431   0.016   0.591  0.0689 -0.2811  0.0270
11181W        W27075   8.840  10.591  12.640 -0.0260 -0.0018 -0.0868
11182W        W27076  11.494   3.112   0.563  0.0433  0.1778 -0.2006
11183W        W27077  10.610  13.823   5.205  0.1002  0.4491  0.3815
11184W        W27078   3.561   6.795   1.307 -0.3939  0.1184 -0.0270
11185W        W27079  10.838  11.352   2.224 -0.3185 -0.0637 -0.1325
11186W        W27080   5.568  17.637   3.810  0.1748  0.1618  0.3345
11187W        W27081   8.579   6.769   4.801  0.1905  0.2105 -0.0639
11188W        W27082  12.185   5.511  11.353 -0.0632  0.0416 -0.2048
11189W        W27083   3.194   8.397   4.348  0.1501  0.0966  0.0412
11190W        W27084  15.473  12.486   4.125 -0.3825 -0.0803 -0.0269
11191W        W27085   4.063   4.082  10.678 -0.0546 -0.3088 -0.0329
11192W        W27086  14.680   3.339  14.226 -0.0628  0.1890 -0.2859
11193W        W27087   9.979   1.239   3.776 -0.0233  0.2516  0.0392
11194W        W27088   5.036   3.064   1.378 -0.4310  0.1126 -0.0548
11195W        W27089   8.314  14.475   0.139 -0.0964  0.0436 -0.1451
11196W        W27090  12.389  10.411  14.753  0.0419  0.1450  0.2923
11197W        W27091  16.462  10.040  14.562  0.3485  0.1839  0.1475
11198W        W27092   4.605  12.382   0.536 -0.0190 -0.0900 -0.1844
11199W        W27093   6.888   0.945  11.221  0.0884  0.0740  0.0062
11200W        W27094  14.356   0.400  13.269  0.2559 -0.1727 -0.0070
11201W        W27095   7.669  11.683   1.230 -0.1007 -0.1552  0.0226
11202W        W27096   6.485  13.497  14.169  0.0381  0.0634  0.1410
11203W        W27097   7.929  12.258   2.242  0.1556 -0.1877 -0.0911
11204W        W27098  15.571  11.653   3.050 -0.3591 -0.0105  0.0184
11205W        W27099  10.522  12.648   2.765 -0.1087 -0.1575 -0.2096
11206W        W27100  14.791  12.680   4.874 -0.1613  0.0921  0.0859
11207W        W27101  11.897  15.761   1.670  0.0411 -0.1605 -0.1890
11208W        W27102  12.970  14.612   2.186 -0.1910  0.0279 -0.1008
11209W        W27103   8.608   1.097   5.358 -0.0671 -0.4497  0.1790
11210W        W27104   6.433   2.089  12.978 -0.1297  0.1189  0.3514
11211W        W27105  12.526   6.559  12.157 -0.0778  0.1556 -0.3608
11212W        W27106  11.995  15.701   0.092 -0.0204 -0.3015 -0.0470
11213W        W27107  18.135  13.025   0.740 -0.1836  0.1147  0.2074
11214W        W27108   3.361   5.718   2.051  0.0516 -0.1495  0.0967
11215W        W27109   5.699  13.642  14.635 -0.0170  0.1678 -0.0352
11216W        W27110  14.146   2.784  15.305  0.3439  0.0643  0.1187
11217W        W27111   5.589   1.748   0.145 -0.2603 -0.0096  0.1124
11218W        W27112   8.882   4.776   0.467  0.1262 -0.0099 -0.1027
11219W        W27113  17.351  10.668   1.831  0.0560  0.0355 -0.4115
11220W        W27114  10.929   0.455  10.736  0.1985 -0.0023  0.0443
11221W        W27115  18.654  18.173   0.724  0.0493  0.1506 -0.0848
11222W        W27116  18.508  13.701   6.162 -0.2675 -0.3151 -0.4907
11223W        W27117   0.790  14.304   2.271  0.1602  0.1881 -0.3771
11224W        W27118  16.415   9.623  10.922  0.1554 -0.0709  0.0042
11225W        W27119   0.391  14.921   4.609  0.0229 -0.0101  0.2540
11226W        W27120  11.266   3.436   2.160  0.2709 -0.3988  0.1204
11227W        W27121  11.021  16.981  12.698 -0.1183  0.1261 -0.2733
11228W        W27122  15.504  18.844   0.138 -0.3812  0.0317 -0.3391
11229W        W27123   5.193   2.602  13.742 -0.0042 -0.3591 -0.1559
11230W        W27124  18.643   0.013  12.535  0.1578 -0.1884  0.0555
11231W        W27125   5.740   7.865   1.131  0.2192  0.1691  0.2424
11232W        W27126  11.329  17.669  12.216 -0.1207 -0.1572  0.3890
11233W        W27127   8.667   8.045   1.613 -0.2326 -0.1394 -0.0644
11234W        W27128  17.242   1.196   5.609  0.0182 -0.1548  0.4282
11235W        W27129  16.918   6.730  15.247 -0.2648  0.2008  0.1234
11236W        W27130   6.316  11.846   0.155 -0.0742  0.1297  0.2185
11237W        W27131  11.940   2.894   4.428  0.2291  0.0497  0.4213
11238W        W27132   3.635   9.184  11.799  0.0931 -0.4022 -0.1704
11239W        W27133  10.085   3.744  12.248 -0.0364 -0.0558  0.2021
11240W        W27134   9.295  15.108   0.833 -0.0975  0.2013 -0.0371
11241W        W27135   7.768   4.980   4.774  0.2219  0.0893  0.0711
11242W        W27136   6.071   3.397   4.760  0.1671  0.0962 -0.2446
11243W        W27137  11.525  18.318   2.468  0.2608 -0.1284  0.2069
11244W        W27138  15.070   9.868   4.199 -0.0096  0.1305 -0.1393
11245W        W27139   1.953  15.604   4.737  0.0703  0.2477  0.3160
11246W        W27140   3.618  15.629   4.708  0.0044 -0.0203  0.0443
11247W        W27141   4.939   2.593  11.598  0.1947  0.0542  0.1160
11248W        W27142  18.173   3.282   0.212  0.2206 -0.5908  0.0272
11249W        W27143  16.416   9.812  11.766 -0.1490 -0.1186 -0.1199
11250W        W27144   7.056   5.172  13.004  0.1579 -0.3500  0.0488
11251W        W27145  13.260  18.214  13.566 -0.1460  0.1487 -0.1645
11252W        W27146   9.165  13.736  11.380  0.2428  0.0443 -0.2262
11253W        W27147   9.089   7.359   3.986 -0.6066 -0.0900 -0.1353
11254W        W27148  15.266  15.395   4.185 -0.3953  0.0634 -0.3344
11255W        W27149  14.257   3.407   1.062  0.0553 -0.0980  0.0183
11256W        W27150  18.774   1.825   4.247 -0.3468  0.2902  0.1672
11257W        W27151  18.459  10.735   3.581 -0.4362 -0.0462 -0.0092
11258W        W27152  18.433  14.270  10.735  0.1669  0.3127  0.0782
11259W        W27153   6.721   7.846  12.648  0.0750  0.2172  0.1087
11260W        W27154   1.698  11.647   2.907 -0.2022 -0.0838 -0.0442
11261W        W27155   4.583   7.318  13.131 -0.0640  0.0626  0.0485
11262W        W27156  17.942  11.076   2.416  0.0770 -0.1497  0.0352
11263W        W27157   2.742   9.424  11.718 -0.1164  0.0536  0.1243
11264W        W27158   1.584  11.851  14.428  0.0035  0.1928  0.2187
11265W        W27159   2.452  14.381  14.278  0.1535  0.0096 -0.0194
11266W        W27160   8.918  11.157  13.505  0.0339  0.0901 -0.0054
11267W        W27161   3.241  11.270   3.404 -0.1405  0.3553  0.2456
11268W        W27162   2.607  16.136   0.753  0.0852 -0.1078  0.0415
11269W        W27163  15.326  10.574   2.505 -0.1522 -0.1222 -0.2607
11270W        W27164  13.883   5.335   5.207  0.4892 -0.1171  0.1136
11271W        W27165   0.585   9.249   2.198 -0.2786 -0.0446  0.3608
11272W        W27166   6.933  11.894  11.084  0.3443 -0.0282 -0.3588
11273W        W27167   4.661  10.271   3.679  0.0862 -0.1036 -0.4808
11274W        W27168   9.997  13.500   2.535  0.0922 -0.1076 -0.1424
11275W        W27169  10.721   0.017   4.026 -0.2012 -0.2768  0.0020
11276W        W27170   5.743  15.831  13.075  0.2594  0.1894 -0.2869
11277W        W27171   1.302   7.836  13.351 -0.0045  0.1772 -0.0004
11278W        W27172  16.541  18.437   1.501 -0.0628  0.1558 -0.2161
11279W        W27173   7.175  18.226   0.010  0.0494  0.2332  0.2268
11280W        W27174   4.267  18.098   3.129 -0.1512 -0.0688 -0.0093
11281W        W27175  18.448   7.293  10.828  0.0412  0.0085  0.1127
11282W        W27176   3.047  12.540   4.115  0.0284  0.0359 -0.0633
11283W        W27177  10.139  10.661   0.519 -0.2466  0.3819  0.2298
11284W        W27178   5.087  16.459  14.717  0.0918 -0.3239  0.2427
11285W        W27179  12.415   7.258  10.704  0.2524 -0.2072  0.2067
11286W        W27180   9.754  17.630   4.678 -0.2190 -0.0146  0.0107
11287W        W27181   0.309   0.018  10.594 -0.3790 -0.0351  0.2346
11288W        W27182   1.896   6.811  13.271  0.2301 -0.2068 -0.2504
11289W        W27183  14.880   7.737  13.697  0.0833  0.1846 -0.0898
11290W        W27184   3.676  13.839  12.877 -0.1320  0.3291 -0.2067
11291W        W27185   0.599  13.115   3.522 -0.0638  0.0846 -0.1031
11292W        W27186  15.670   4.598   1.284 -0.0248  0.2444 -0.1149
11293W        W27187  11.966  18.108   2.670  0.0934  0.0080  0.0030
11294W        W27188   8.706   2.093  14.321  0.0719 -0.0157  0.2171
11295W        W27189   5.476   1.120  10.828  0.1264  0.4828 -0.0835
11296W        W27190   4.095   9.248  15.365 -0.3405  0.1690  0.0654
11297W        W27191  12.458  13.713   4.013  0.0407  0.1155  0.3213
11298W        W27192  14.574   9.331   9.637  0.2415 -0.0857  0.0935
11299W        W27193   3.947  15.661  14.625  0.1668 -0.1507 -0.2501
11300W        W27194  12.659   3.388   1.659  0.0615  0.2380 -0.1916
11301W        W27195   7.959  12.678   4.169  0.1272  0.1699  0.3279
11302W        W27196  13.434  10.949  11.976 -0.2546 -0.0133  0.1351
11303W        W27197  16.148   3.756  12.137  0.0364 -0.0007 -0.1634
11304W        W27198   6.214  12.164  12.217 -0.0604 -0.2478 -0.0074
11305W        W27199   5.152   6.430   2.893 -0.0420 -0.2326  0.3797
11306W        W27200   3.884  17.449   0.298  0.0437 -0.0098 -0.4070
11307W        W27201   3.743   9.771  15.428  0.1334  0.1744  0.1083
11308W        W27202  15.985  12.156   4.868  0.1209  0.0054 -0.3317
11309W        W27203   2.169  10.901   1.980 -0.0056  0.1041 -0.0083
11310W        W27204   7.888  11.672   0.415  0.1703  0.1021  0.0718
11311W        W27205  18.404  11.283  14.302  0.0228  0.2920 -0.0038
11312W        W27206  13.303  17.240   0.513  0.0582  0.0818  0.1271
11313W        W27207   1.241   8.273   3.510  0.2006 -0.1399 -0.0900
11314W        W27208   5.646  17.804   0.365  0.0224 -0.2762 -0.2392
11315W        W27209  11.924   1.316   3.937  0.0742  0.0455  0.1889
11316W        W27210   9.480   3.138  11.331 -0.3046 -0.1982  0.2732
11317W        W27211   8.621   2.057   3.254 -0.2158 -0.0815 -0.1979
11318W        W27212  15.210   1.053   3.979 -0.0773 -0.3381 -0.1595
11319W        W27213  11.236   2.530  12.823 -0.2396  0.0786 -0.3128
11320W        W27214   3.726  15.673  12.619 -0.1294 -0.0740 -0.0446
11321W        W27215   3.860   6.049   2.969  0.1743 -0.0014 -0.1179
11322W        W27216  10.067  13.520   4.060 -0.2295 -0.2682  0.1600
11323W        W27217  16.373  14.063   2.756 -0.1508 -0.3074  0.1588
11324W        W27218   1.956   6.607   2.017  0.2913 -0.2697  0.0291
11325W        W27219   0.355  14.335  15.255  0.1965 -0.1663  0.1611
11326W        W27220   9.773   0.595   1.855  0.2349 -0.1223  0.0353
11327W        W27221   9.197   7.664   4.844  0.6103 -0.0291  0.2104
11328W        W27222   9.483   6.710  12.300  0.1283 -0.1278 -0.0769
11329W        W27223  18.517  14.090   5.922 -0.2143 -0.1245 -0.0585
11330W        W27224  14.418   7.912  15.416 -0.2139  0.3225  0.1020
11331W        W27225   7.331  13.436  13.451  0.0981 -0.1264 -0.2232
11332W        W27226   9.979  10.766   5.208 -0.1258 -0.2123  0.1645
11333W        W27227   3.606   3.996   1.352 -0.1182 -0.1555 -0.0430
11334W        W27228   4.573   5.440   1.333 -0.0233  0.3091 -0.1960
11335W        W27229  18.550   2.470  13.283  0.3742  0.0222 -0.0923
11336W        W27230  16.757   7.540   3.013 -0.0300  0.1805  0.0042
11337W        W27231  16.147   1.275  14.556  0.0710 -0.1992  0.1387
11338W        W27232  12.245   6.592   4.760  0.2661 -0.0100  0.0727
11339W        W27233  12.027  18.256  11.861  0.1604 -0.0911 -0.1835
11340W        W27234   7.361   5.866  14.955 -0.1873  0.0460 -0.2232
11341W        W27235   3.027  16.345   0.512  0.3427  0.4612 -0.1405
11342W        W27236   0.172   8.204   9.939 -0.0117 -0.1682  0.1524
11343W        W27237  15.631   5.398   5.040  0.0581  0.1980 -0.0309
11344W        W27238  14.267   8.431  10.534 -0.2225 -0.1357 -0.0808
11345W        W27239  14.571  10.146   4.004 -0.2200 -0.3523  0.0813
11346W        W27240   8.100   4.805  15.037  0.0869  0.0879  0.0806
11347W        W27241   6.641   6.718  15.210  0.1677  0.0362  0.3379
11348W        W27242  16.838  18.013   0.516 -0.0773  0.0854  0.3282
11349W        W27243   0.825   9.082   1.513  0.0566 -0.1037  0.0388
11350W        W27244   7.634  10.326  13.282  0.0369  0.0068  0.4403
11351W        W27245   8.048   6.355  11.788 -0.1571  0.0466  0.0745
11352W        W27246  18.690  13.686  13.542  0.1035  0.0656  0.1368
11353W        W27247   8.486   9.533  12.527  0.4654  0.2453 -0.0794
11354W        W27248  12.975  16.780  13.311 -0.0648 -0.1769  0.1687
11355W        W27249  12.729  18.115  13.064 -0.2764 -0.3771 -0.2304
11356W        W27250  11.148   1.114  13.791  0.1172 -0.2135  0.3209
11357W        W27251  13.874  13.176   1.360 -0.3194  0.0415  0.2686
11358W        W27252   7.920   8.712  12.007  0.1631 -0.0052  0.0220
11359W        W27253  10.071  14.222  14.142 -0.2484  0.2227 -0.1089
11360W        W27254   6.122  15.171  13.015 -0.1999 -0.2973 -0.1740
11361W        W27255   4.063   7.101   0.608 -0.1125 -0.0213 -0.4078
11362W        W27256   5.145   2.459   2.207  0.1414  0.1467 -0.1837
11363W        W27257  15.516  11.660  14.480 -0.1259  0.4043  0.2913
11364W        W27258  10.752  17.273  14.227 -0.0121  0.4403  0.0179
11365W        W27259  12.630   7.011  14.358 -0.0547 -0.2512  0.1103
11366W        W27260  17.016  18.231  13.284  0.1008  0.3005  0.1013
11367W        W27261   6.522  16.654   1.440  0.0374 -0.0539 -0.4846
11368W        W27262  18.762   8.780  14.866  0.1096  0.1882  0.0937
11369W        W27263  11.709  17.770  11.854 -0.1467 -0.0692  0.2265
11370W        W27264  15.875   8.786   3.872 -0.4746 -0.1745  0.0172
11371W        W27265   8.246  11.888  11.615  0.0151 -0.1110  0.2199
11372W        W27266  14.446   9.366   1.779 -0.0465 -0.0603  0.0924
11373W        W27267   1.033   2.774   3.692 -0.1774 -0.2750  0.1472
11374W        W27268  15.831  10.168   5.264 -0.1952 -0.0314  0.0185
11375W        W27269  17.825   3.286   1.628 -0.1895 -0.1269  0.0678
11376W        W27270  13.784   4.860  14.377 -0.0306 -0.0926 -0.1292
11377W        W27271   7.900   8.989  14.310 -0.0349 -0.0550 -0.0223
11378W        W27272   4.950  11.219   3.598 -0.1581 -0.2202  0.0568
11379W        W27273  17.302   8.378   1.953 -0.0305  0.2191  0.0576
11380W        W27274   5.778   9.786   2.546 -0.2699 -0.1454 -0.0729
11381W        W27275  15.586  12.807  13.852  0.0687 -0.3986 -0.1304
11382W        W27276   3.570   2.489  12.231 -0.3887  0.0869  0.2495
11383W        W27277   9.756   8.036   0.203 -0.2443  0.0325  0.1885
11384W        W27278   9.800   3.224   1.662 -0.1214  0.0703 -0.2012
11385W        W27279   2.221  13.581  13.811 -0.0715 -0.1501  0.2085
11386W        W27280  13.162  17.569  14.997 -0.2313  0.1348 -0.0114
11387W        W27281  18.080  13.132  13.189  0.0343  0.0616  0.1665
11388W        W27282  16.041   2.516  15.232  0.0573 -0.2468  0.0330
11389W        W27283   0.844   1.687   1.989  0.3533 -0.1177 -0.4378
11390W        W27284   4.590  15.404  15.285 -0.0419  0.2264  0.5002
11391W        W27285   1.676   4.640  11.138 -0.1858 -0.2960 -0.1067
11392W        W27286   6.610   4.462  10.224 -0.0135 -0.0017  0.1271
11393W        W27287  17.530  18.717  14.359 -0.2642  0.0943 -0.3064
11394W        W27288  12.558   1.234  13.330 -0.0560  0.0500  0.2194
11395W        W27289  13.866   5.610   3.034 -0.0631  0.1534  0.0792
11396W        W27290  17.355  17.238  15.216  0.0044 -0.0784  0.0487
11397W        W27291   3.593   3.024   1.164  0.3940  0.0353  0.0925
11398W        W27292  12.131   3.517  12.720  0.0977 -0.0426  0.0384
11399W        W27293   9.450  18.851  14.581 -0.2507 -0.0286  0.3832
11400W        W27294   7.117   9.401  12.140 -0.0551 -0.0403 -0.0338
11401W        W27295  16.448  11.105   4.596 -0.0616  0.0630 -0.0229
11402W        W27296   3.110   1.724   3.435  0.0230  0.0040 -0.0227
11403W        W27297   9.726  10.148  11.820  0.3384  0.1402  0.1382
11404W        W27298  13.176  12.019   0.314  0.0486 -0.2212  0.3879
11405W        W27299   7.611   4.283  14.655  0.1785  0.1881  0.1318
11406W        W27300  15.260   4.322   2.192 -0.0465 -0.1527 -0.0130
11407W        W27301  13.278  15.082  12.764 -0.1721 -0.2496 -0.0938
11408W        W27302  13.827  10.870  14.062 -0.0564  0.0397  0.0193
11409W        W27303   9.518  18.743   4.275  0.0817  0.1156 -0.3498
11410W        W27304  13.863   5.018   1.421 -0.2081  0.2565  0.1378
11411W        W27305   6.029   0.168  15.424  0.1747  0.1477 -0.1781
11412W        W27306   6.567  13.426  13.323 -0.1735  0.5148  0.0636
11413W        W27307   2.856   2.768  15.222  0.1236 -0.4603  0.0266
11414W        W27308   9.330  14.745  14.620  0.1079 -0.1856  0.1067
11415W        W27309  14.536  12.096   2.070 -0.0135 -0.0048  0.0841
11416W        W27310   4.611   6.441   0.788 -0.1933 -0.0826 -0.2124
11417W        W27311   7.355   4.309  13.548 -0.1090 -0.0197 -0.0672
11418W        W27312   2.796   2.637   1.373  0.3065 -0.3651  0.0692
11419W        W27313  17.717   5.684  10.986  0.0913  0.0849 -0.4245
11420W        W27314  11.643   1.742  12.143  0.2387  0.2521 -0.1179
11421W        W27315   4.189   2.506   4.085  0.0982 -0.1434  0.2681
11422W        W27316  14.122   6.750  15.322 -0.1027  0.0094 -0.2312
11423W        W27317  14.981  18.070  14.606  0.0626  0.1403 -0.0908
11424W        W27318   0.366  14.363  13.760 -0.1374 -0.2032  0.1618
11425W        W27319  15.078  18.699   5.503  0.3742 -0.1228 -0.4712
11426W        W27320  17.436  10.241  11.722  0.0502 -0.2768 -0.1135
11427W        W27321  17.184   7.877  13.413  0.1082  0.2607  0.2844
11428W        W27322   9.212  14.449  15.165  0.2113 -0.1365  0.0862
11429W        W27323  17.033   9.438   0.058 -0.0229 -0.1283 -0.0272
11430W        W27324   9.537  17.175   3.054  0.1671  0.0154  0.1624
11431W        W27325  15.388  16.051   4.824  0.0209 -0.1186 -0.0463
11432W        W27326  17.368   8.314  12.820  0.4745  0.0034  0.1838
11433W        W27327   7.059   6.523   3.538 -0.1416 -0.0532 -0.1442
11434W        W27328   4.066  12.695  10.805 -0.1176  0.1171  0.0184
11435W        W27329  14.529  13.653  14.314  0.1965  0.1206  0.1313
11436W        W27330   4.354  17.253  11.411 -0.1187 -0.2129 -0.0101
11437W        W27331  14.228   0.004  13.842  0.1743  0.0715  0.0069
11438W        W27332  14.419   0.375  12.784 -0.1667 -0.1104 -0.1659
11439W        W27333   4.020  17.186   2.859  0.0712 -0.0294  0.4188
11440W        W27334  15.340  11.010  13.867 -0.1283  0.0123  0.1127
11441W        W27335  12.403  14.929   4.374  0.0249 -0.1275 -0.0554
11442W        W27336   2.443   0.955   5.002 -0.0510  0.1476 -0.0142
11443W        W27337   4.953  16.920   2.189  0.1131  0.3964  0.2858
11444W        W27338  11.618   9.451  12.905 -0.0700 -0.1652 -0.1169
11445W        W27339   7.711  10.836  12.587 -0.0479 -0.2155  0.1606
11446W        W27340  13.969  17.512  14.963  0.1980 -0.0698 -0.0594
11447W        W27341   3.244  15.585   3.540 -0.3593 -0.1860  0.1454
11448W        W27342  10.545  16.627  15.386  0.2130 -0.2694  0.0485
11449W        W27343   4.685   4.650  10.630  0.2864 -0.1768 -0.1936
11450W        W27344   7.735  13.768  13.329  0.0294  0.0826 -0.0373
11451W        W27345  12.035  11.398   3.283 -0.0365  0.1516 -0.0006
11452W        W27346  11.143   6.696  14.024 -0.4261 -0.3208  0.0883
11453W        W27347   8.533  11.088   5.153  0.2042  0.0177  0.0690
11454W        W27348  16.552  18.225  15.105  0.1965 -0.0896 -0.1793
11455W        W27349  11.881  12.165  12.294 -0.0183  0.0458 -0.2796
11456W        W27350   1.161  18.551  14.542 -0.2292  0.2796  0.1114
11457W        W27351  12.876  18.362   0.577  0.2573  0.2117 -0.1348
11458W        W27352  12.467   2.012   3.672  0.2332 -0.2991  0.0103
11459W        W27353  14.371  11.493  14.101 -0.0176 -0.1165  0.3819
11460W        W27354   8.482   6.548  11.012  0.0656  0.0667 -0.1326
11461W        W27355  14.140   2.185   4.490  0.3443  0.0935  0.1576
11462W        W27356   1.676  15.468  15.241 -0.0928  0.1592 -0.0854
11463W        W27357   5.753  14.768  15.367  0.1616  0.1779 -0.0425
11464W        W27358  18.444   7.971   4.615 -0.0039 -0.2029 -0.0182
11465W        W27359  15.339  11.801  10.605  0.0352  0.2345  0.1655
11466W        W27360  12.334   2.346  12.604 -0.1574 -0.0546  0.1577
11467W        W27361  13.778   2.600  14.889  0.1764 -0.0825  0.1993
11468W        W27362  16.297   4.997   4.340  0.0429  0.2995 -0.1897
11469W        W27363  15.013  14.250  14.945  0.0361  0.0425 -0.1526
11470W        W27364   2.939   2.028   0.201 -0.4094 -0.0698 -0.3206
11471W        W27365  13.540  18.665  10.812 -0.2172  0.0374  0.3218
11472W        W27366  10.415   3.900   3.290 -0.1350 -0.0930 -0.0396
11473W        W27367  16.697  12.871  11.357  0.3490  0.0590 -0.2041
11474W        W27368   9.235  13.226  10.665 -0.0562 -0.2054  0.1820
11475W        W27369  13.656  12.566  11.238 -0.1406  0.0048  0.4073
11476W        W27370  16.814  18.035   5.072  0.3220  0.0800  0.0001
11477W        W27371   8.574   5.598   3.612  0.1026  0.1160  0.2691
11478W        W27372   1.548   2.545   0.259  0.1722 -0.0685  0.0846
11479W        W27373   7.515   1.453  13.236  0.0851  0.1275 -0.1128
11480W        W27374   7.653   4.962   1.651  0.1201  0.2534 -0.2040
11481W        W27375  15.357  13.160   4.226 -0.0818 -0.0066 -0.0382
11482W        W27376   1.376   4.905  13.575 -0.2538  0.1635 -0.2473
11483W        W27377  13.374   4.671  14.109 -0.2302  0.1667  0.0889
11484W        W27378  10.304   9.458   0.526 -0.0739 -0.0822  0.2155
11485W        W27379  11.717  15.922  13.413  0.0758 -0.2276 -0.1416
11486W        W27380  11.485   7.250   3.435  0.0233  0.2965 -0.0812
11487W        W27381  12.279  18.057   5.433 -0.0265  0.1080 -0.3657
11488W        W27382   3.832   0.478  13.122  0.0999 -0.0119 -0.0889
11489W        W27383  12.921  11.293  13.613  0.1282  0.2716  0.3164
11490W        W27384   6.698   8.341  11.050  0.1014  0.1095 -0.0391
11491W        W27385  16.804   2.210   4.041  0.0897 -0.0219  0.0520
11492W        W27386   5.019  12.581   2.709 -0.1287 -0.0262  0.1417
11493W        W27387  15.633  14.798   1.667  0.0348  0.4544  0.1896
11494W        W27388   0.590   3.623   2.511  0.0658 -0.0133  0.1458
11495W        W27389   6.475   3.999   4.263  0.2265  0.2928 -0.0695
11496W        W27390   6.196  11.320   1.140 -0.2152  0.0593  0.3103
11497W        W27391  16.159   1.437   3.879  0.0283 -0.1678 -0.0813
11498W        W27392   9.359  18.330  14.724 -0.0235  0.1154 -0.2530
11499W        W27393  11.686  11.716   1.270 -0.2511  0.2730 -0.2082
11500W        W27394   5.264   3.956   4.278 -0.1003  0.2656 -0.6458
11501W        W27395  15.430   8.131   2.132  0.0634 -0.0420  0.2855
11502W        W27396   3.798   7.400  13.901 -0.0825  0.0989 -0.1085
11503W        W27397  16.454   9.401  13.219 -0.1725  0.1734  0.3598
11504W        W27398   7.627   0.666  15.216 -0.1480  0.0783  0.1646
11505W        W27399  17.577   4.452  12.519 -0.0198 -0.0535 -0.0141
11506W        W27400  18.177  13.790   2.256  0.3303  0.3066 -0.2447
11507W        W27401   7.599   7.096   0.770  0.0275  0.1232  0.2190
11508W        W27402  12.669   7.019   4.564 -0.0175 -0.3326 -0.1330
11509W        W27403  16.445   2.277  12.807  0.0919 -0.0434 -0.1882
11510W        W27404   6.437  18.261  13.465 -0.3539  0.0037  0.1776
11511W        W27405  14.279   4.024   1.936  0.2990  0.3834  0.0291
11512W        W27406   7.133   3.438  10.801  0.1018 -0.1965 -0.0680
11513W        W27407  11.832   4.489   2.039  0.4254  0.0245  0.2191
11514W        W27408  10.163   3.669  10.668  0.0939  0.2228 -0.2513
11515W        W27409   2.560   7.140   2.724  0.1696 -0.0441  0.5100
11516W        W27410   8.808  10.551   0.307  0.3310 -0.0257  0.1197
11517W        W27411   2.627   9.469   2.835  0.4153  0.1422  0.2283
11518W        W27412   1.082  10.301   0.978 -0.0589 -0.2188  0.1680
11519W        W27413  13.417  10.529  11.247 -0.0062  0.1733  0.1361
11520W        W27414  15.148   3.107  11.101  0.1757 -0.2541 -0.0270
11521W        W27415   3.131  11.234   4.105  0.0462  0.1139  0.0559
11522W        W27416   1.818  15.276  13.598 -0.3316 -0.1727 -0.3099
11523W        W27417   4.859   1.069   4.118  0.0280 -0.0946  0.1320
11524W        W27418  11.474  16.881   1.410 -0.1119 -0.0074 -0.1615
11525W        W27419   2.559   9.252  11.314 -0.2502  0.1609 -0.2286
11526W        W27420   0.950  17.536  13.990  0.2915  0.1774  0.1965
11527W        W27421   9.936   4.883   0.392  0.0712  0.2505  0.0754
11528W        W27422  18.000   1.547  11.542  0.0227 -0.0107  0.0934
11529W        W27423  14.915   6.853  14.235  0.1833 -0.1916  0.0623
11530W        W27424   0.769  13.175  11.701 -0.0177  0.1677  0.0910
11531W        W27425   4.647   6.017  12.968  0.0005 -0.1512  0.0897
11532W        W27426   7.341  12.775   0.072 -0.2722  0.3548 -0.0202
11533W        W27427   5.737   7.621  10.833  0.0618 -0.2352 -0.0106
11534W        W27428  11.678   4.308   5.158  0.1942 -0.3624  0.1190
11535W        W27429  10.191  16.876   5.102 -0.0999  0.0595 -0.1700
11536W        W27430  14.319   4.103  12.927 -0.2454  0.0182 -0.5495
11537W        W27431   3.149   0.417   4.049 -0.2221  0.3130  0.1318
11538W        W27432   8.229  18.168  14.413  0.1484 -0.0683 -0.1725
11539W        W27433   0.200   6.363  13.858 -0.1032 -0.0180  0.1293
11540W        W27434  16.663  15.424   0.064  0.4244 -0.0712  0.1857
11541W        W27435   9.373  14.016  12.805  0.2593 -0.1770  0.2716
11542W        W27436  11.316  14.273   4.123 -0.0175 -0.0909 -0.0995
11543W        W27437  12.945   3.547  12.344 -0.2127 -0.1914 -0.2371
11544W        W27438   2.104   5.990  11.339 -0.0951  0.1613 -0.0049
11545W        W27439  18.025  15.868  11.172  0.0167 -0.4040  0.0334
11546W        W27440   2.162  18.413  14.487  0.2622  0.1554  0.0683
11547W        W27441  12.572   4.994   4.110 -0.1332  0.0772  0.0738
11548W        W27442   3.953   7.556  14.677 -0.3931  0.0144 -0.0057
11549W        W27443  16.745  15.838  12.847  0.0904  0.0656 -0.1898
11550W        W27444  10.169   3.093   3.774  0.0718 -0.0102  0.0396
11551W        W27445  15.523   7.716  12.395  0.0326  0.1914  0.0321
11552W        W27446   8.834  15.404   3.129 -0.2488  0.3921 -0.2678
11553W        W27447   3.060   2.480   0.106 -0.1950 -0.0215  0.0688
11554W        W27448   2.314  17.083   0.551  0.0842 -0.1968 -0.1900
11555W        W27449  16.445  12.070   5.614  0.2606 -0.0165  0.1200
11556W        W27450  12.225  16.277  13.090  0.1768 -0.0658  0.0810
11557W        W27451  14.973  18.007  10.326  0.0351 -0.0264 -0.2302
11558W        W27452  12.546   6.943  12.681 -0.0717  0.2822 -0.1657
11559W        W27453   3.632   3.887   4.473 -0.0086  0.4275  0.3236
11560W        W27454  15.455   0.829  14.125 -0.3127 -0.3740  0.0316
11561W        W27455   3.431  18.595  11.942 -0.0836  0.0699  0.1065
11562W        W27456   9.768   5.993   5.106 -0.1994  0.1251 -0.1240
11563W        W27457   6.280   4.129   2.227 -0.0316 -0.0123  0.0200
11564W        W27458  16.211  17.253   1.060  0.1831 -0.1435 -0.0437
11565W        W27459  16.212   2.054   1.694 -0.1821  0.3318 -0.0893
11566W        W27460  17.683   2.552  13.063 -0.0200 -0.2108 -0.2190
11567W        W27461  11.741  10.716   4.492  0.1216 -0.3079  0.1190
11568W        W27462  14.005   7.640   1.555 -0.0939 -0.1097 -0.2267
11569W        W27463   6.820  17.104  10.939  0.1542 -0.0079  0.4850
11570W        W27464   8.081  11.371   1.221  0.0417 -0.1419  0.0932
11571W        W27465  12.943  12.204   2.392  0.1064  0.1480  0.0282
11572W        W27466  12.294  15.506   5.750 -0.1561 -0.2248 -0.1746
11573W        W27467  16.164   3.166   1.627 -0.3480 -0.2028  0.2138
11574W        W27468   2.763   5.923   0.462 -0.1967 -0.2598  0.1464
11575W        W27469  11.531  17.320  12.526  0.1198 -0.1194 -0.1410
11576W        W27470  15.504  11.484  13.702  0.2386 -0.0026  0.0297
11577W        W27471   6.263   3.264   2.338  0.0545 -0.1611 -0.3011
11578W        W27472  14.110  11.150   9.477  0.1285  0.0095 -0.1601
11579W        W27473  13.525  12.104   0.730  0.2475  0.0674 -0.0441
11580W        W27474  13.623   8.779   4.983  0.3271 -0.0444 -0.4175
11581W        W27475  10.763   8.136  15.220 -0.3945  0.1770  0.1157
11582W        W27476   7.981   7.345  13.067  0.1434 -0.0733 -0.0739
11583W        W27477  11.532   9.831  15.126  0.1163 -0.3082 -0.1106
11584W        W27478   7.633  16.049  12.086  0.0366  0.1130  0.0717
11585W        W27479   8.718  16.099   2.900  0.1803 -0.0826 -0.3857
11586W        W27480  12.850   7.551  10.619  0.2521  0.0900  0.2932
11587W        W27481   4.217  13.333  12.227 -0.0943  0.1936  0.2157
11588W        W27482   3.783   4.377   5.239  0.2155 -0.1553 -0.1379
11589W        W27483  18.412   5.950   1.703 -0.1830 -0.1637 -0.1502
11590W        W27484  15.788   6.573  13.909 -0.0692 -0.2562 -0.2369
11591W        W27485   2.445   0.701  11.153 -0.0852  0.1340 -0.1265
11592W        W27486   1.899   7.355   2.008  0.0221 -0.5987 -0.3099
11593W        W27487   0.379  17.503   3.905 -0.1141 -0.3443 -0.2390
11594W        W27488  18.093  11.901   4.253 -0.1855 -0.2091  0.1469
11595W        W27489   4.978   8.727   2.122 -0.0668 -0.2120  0.0638
11596W        W27490   4.886   8.230   2.510  0.2823 -0.3885  0.3723
11597W        W27491   0.253   2.749  14.675 -0.3466  0.2685  0.0289
11598W        W27492   7.655   9.121  11.919 -0.2574 -0.0370  0.1058
11599W        W27493  18.576   5.596  14.166 -0.1401  0.3929  0.0744
11600W        W27494   5.322   2.225  15.419 -0.0465  0.0174 -0.0671
11601W        W27495  11.680   8.513  13.020 -0.1283  0.2419  0.1205
11602W        W27496   6.998   1.738  12.352  0.3730 -0.2338 -0.1349
11603W        W27497   4.174  16.316   0.435  0.1462 -0.0446 -0.2337
11604W        W27498   2.251   9.649   0.690 -0.0530 -0.0171  0.1523
11605W        W27499  10.834   1.950  10.140  0.0180 -0.1034 -0.0558
11606W        W27500   7.975  12.425  14.131 -0.3645 -0.0929  0.0432
11607W        W27501  14.340   3.446   4.750 -0.2190  0.0371  0.3156
11608W        W27502  17.711  17.626   5.349 -0.0245  0.2553 -0.0440
11609W        W27503   0.930  13.929   0.251 -0.0890 -0.0619  0.0837
11610W        W27504  17.690  11.857   4.564  0.2211 -0.2048  0.1737
11611W        W27505  12.053   2.280   0.068  0.2166  0.2593 -0.0560
11612W        W27506  12.175   8.202   1.839 -0.3484 -0.2737 -0.0348
11613W        W27507  15.491  18.651   1.685  0.1881  0.3947 -0.1205
11614W        W27508   2.918   1.387  11.366 -0.1863  0.1158 -0.5216
11615W        W27509  10.615   0.059   4.707 -0.2921  0.0177 -0.1370
11616W        W27510   8.662   2.571  14.280 -0.0854  0.2884  0.1097
11617W        W27511  11.478  13.466   0.359  0.1715 -0.3025  0.0683
11618W        W27512   9.846  10.882   1.874  0.1442 -0.0269  0.1875
11619W        W27513   9.891  12.273   3.270  0.5495 -0.0247 -0.3323
11620W        W27514   7.826   7.927   1.846  0.2694  0.2360  0.0768
11621W        W27515  18.386   6.148  11.439  0.1687 -0.1961  0.0344
11622W        W27516  18.342   3.947  14.986  0.4796  0.0550 -0.1461
11623W        W27517   4.314  15.485  14.913  0.2655 -0.2856 -0.0382
11624W        W27518  14.030  17.445  12.312  0.1844  0.0026  0.2528
11625W        W27519  12.152  17.020   5.426  0.0307 -0.3584  0.0112
11626W        W27520   2.436   2.634  12.913 -0.2510  0.3009 -0.1139
11627W        W27521  18.855   2.770   5.846  0.1416  0.2787 -0.2015
11628W        W27522   5.660  16.913   2.652 -0.2089 -0.1291 -0.1347
11629W        W27523  17.087  12.997   4.153 -0.0373 -0.2223 -0.2114
11630W        W27524  13.922  18.267   4.846  0.0924  0.3092  0.1841
11631W        W27525   9.170   1.089  11.930  0.0658  0.0294  0.3757
11632W        W27526   3.947  17.737   4.945 -0.3803  0.3163 -0.0858
11633W        W27527  16.278   8.103   0.339 -0.0696 -0.2274  0.2760
11634W        W27528  16.596   5.301   1.530 -0.5088 -0.2956  0.1250
11635W        W27529   0.939   5.622  12.700  0.3849 -0.0688 -0.3232
11636W        W27530  13.612  18.796   1.071  0.1850 -0.1056  0.0778
11637W        W27531   7.788  13.213   2.270 -0.3736  0.1100  0.0628
11638W        W27532   0.500  11.064  11.748 -0.1158  0.1479 -0.0320
11639W        W27533  18.796   9.493   3.334  0.2409 -0.0939 -0.1570
11640W        W27534   4.261  15.590   1.000  0.1094  0.0743 -0.4357
11641W        W27535  13.715  15.607   1.621 -0.3252 -0.0749 -0.0086
11642W        W27536  10.470   7.485   0.582 -0.1058 -0.0872 -0.2518
11643W        W27537  18.493  15.268  12.758  0.0971 -0.2093  0.0786
11644W        W27538   9.230   5.589  13.773  0.2648 -0.0664  0.1238
11645W        W27539  11.444  12.412  13.147 -0.0465 -0.0351 -0.0683
11646W        W27540  15.339  14.478  13.586 -0.0664 -0.0605  0.2170
11647W        W27541   8.275   7.663   1.195  0.0346 -0.0217  0.1218
11648W        W27542  18.679  16.695   1.889  0.3569 -0.1175  0.3469
11649W        W27543  16.531   5.724   3.734 -0.0072 -0.0276  0.0915
11650W        W27544  13.161  10.894  10.366  0.1517  0.1210  0.0034
11651W        W27545  18.127  18.761   0.072  0.1347  0.1268  0.0649
11652W        W27546   9.956  12.443   2.728 -0.2811  0.1715  0.0265
11653W        W27547  17.697   0.408  11.213  0.0400  0.1063 -0.0677
11654W        W27548  10.316  14.161   4.237  0.0433 -0.1478 -0.0305
11655W        W27549  18.710   0.659   1.139 -0.0329 -0.3574 -0.0844
11656W        W27550  10.465  18.567   4.368 -0.2937 -0.2180  0.0366
11657W        W27551   4.897   3.926   0.087  0.2126  0.1904 -0.2791
11658W        W27552  16.179  10.767  13.801  0.1069  0.1448  0.2565
11659W        W27553   1.229   2.879   4.558  0.1254 -0.0720 -0.3748
11660W        W27554  16.148   2.201   1.203 -0.5475 -0.0033  0.0023
11661W        W27555  10.897   8.322  11.990  0.0232 -0.2260 -0.2920
11662W        W27556   0.334   3.553   0.724 -0.0239 -0.1290 -0.0249
11663W        W27557  11.323   2.724  14.236 -0.1506 -0.0111  0.1619
11664W        W27558   0.277   9.352   0.430  0.2581 -0.0822  0.0134
11665W        W27559   7.175   7.976  14.747 -0.0342 -0.0019  0.1340
11666W        W27560  18.833   2.872  13.384  0.2098  0.2244 -0.5166
11667W        W27561  17.591  10.399  11.067 -0.0223  0.1721  0.0006
11668W        W27562  13.652  18.751  11.763  0.1221 -0.1384  0.1011
11669W        W27563   5.188   3.209  10.948 -0.2806  0.2267 -0.1091
11670W        W27564   4.981   4.182  10.650 -0.0283  0.4748 -0.4060
11671W        W27565   6.439   9.505   0.761 -0.1502 -0.1627  0.0156
11672W        W27566  12.060   7.617  14.933  0.1366  0.2484  0.0010
11673W        W27567   5.845   1.417   5.208  0.1072 -0.2019  0.0688
11674W        W27568   5.224  13.734   4.440  0.0022 -0.0827  0.0317
11675W        W27569  11.437   4.117  12.699 -0.3948  0.0580 -0.2778
11676W        W27570   7.427   8.345  15.487  0.1912  0.0224 -0.0271
11677W        W27571  16.280  14.365   2.004  0.0111  0.2092  0.0282
11678W        W27572   9.561   2.962  12.406 -0.0357  0.0225  0.1567
11679W        W27573   2.754   9.365   0.542 -0.1350  0.2038 -0.1877
11680W        W27574  18.183  13.478  12.249 -0.3286 -0.0412  0.2804
11681W        W27575   7.247  13.368   0.056 -0.2448  0.3033 -0.2585
11682W        W27576  14.714  17.568   3.381 -0.0275 -0.2831  0.1109
11683W        W27577   7.578   3.008  13.851  0.1059  0.0205 -0.1363
11684W        W27578  12.487  18.762   2.985  0.1573 -0.0044  0.0432
11685W        W27579  10.885   5.421  11.252  0.0295  0.1620 -0.0807
11686W        W27580  12.772  15.367   4.993 -0.2803  0.1273  0.0656
11687W        W27581  16.111  13.979   4.882  0.0227  0.1147  0.3836
11688W        W27582  13.810  15.159  12.873  0.3487  0.0620 -0.0875
11689W        W27583  10.381   1.266   5.664 -0.0679 -0.1230 -0.0738
11690W        W27584   1.553  14.136   4.554 -0.2393  0.1764 -0.0378
11691W        W27585   4.151   3.052  12.539  0.0426 -0.1889  0.1930
11692W        W27586  17.204   8.416  14.146 -0.2258 -0.1373 -0.0167
11693W        W27587   4.267   3.052  14.416  0.0363  0.0388 -0.0255
11694W        W27588   3.633  10.763  15.296  0.1606 -0.2457  0.1369
11695W        W27589   1.463   5.810   3.896  0.0401  0.1972  0.1851
11696W        W27590  12.909  11.804   4.989  0.2921  0.0707  0.0427
11697W        W27591  14.619   4.124   3.481  0.2431 -0.0025  0.0218
11698W        W27592  17.383  10.801   4.223  0.2024 -0.4255  0.2437
11699W        W27593   8.168   9.437   1.499 -0.0800 -0.3002  0.2108
11700W        W27594  10.559  13.887   1.737 -0.0497 -0.1366 -0.0953
11701W        W27595  18.355   2.191  13.673 -0.2534  0.1679  0.1652
11702W        W27596   5.301  12.585  13.041  0.0108  0.2557 -0.1446
11703W        W27597   5.501  10.250   2.622 -0.3551  0.0910 -0.0739
11704W        W27598   4.069  15.712  11.103 -0.1024  0.2664  0.2062
11705W        W27599   6.800  10.245   4.625  0.2082 -0.2476 -0.1238
11706W        W27600   4.664  13.351  11.249  0.1163 -0.1729  0.1190
11707W        W27601   5.969  18.098   2.004  0.0285 -0.1282  0.0814
11708W        W27602   6.531   6.454   1.680  0.1704 -0.3796  0.0677
11709W        W27603   0.700  10.043  14.004  0.2016 -0.0505  0.1708
11710W        W27604   6.575   7.654   3.876 -0.1337  0.0350  0.0867
11711W        W27605   6.301   0.702  14.846  0.0518 -0.1295 -0.1184
11712W        W27606  17.479  16.364   3.335  0.1871 -0.1286 -0.2032
11713W        W27607   1.384   1.480  10.367 -0.2466  0.1312 -0.0728
11714W        W27608  10.519   4.011  12.251 -0.0635 -0.0044  0.1442
11715W        W27609  17.250  12.026   2.064  0.0422  0.0386  0.2621
11716W        W27610  15.586   2.897   2.317 -0.0940 -0.2646 -0.0804
11717W        W27611   5.471   7.002  12.612 -0.1485 -0.0600  0.1962
11718W        W27612  17.825  10.866  12.091 -0.0836 -0.1461 -0.0360
11719W        W27613   9.270   1.691   4.361 -0.2932 -0.1767  0.1758
11720W        W27614   6.902  14.681   1.293 -0.0989 -0.2865 -0.1008
11721W        W27615   6.962  18.431  10.621 -0.3184 -0.2610 -0.1185
11722W        W27616   8.201  10.523   0.233  0.0868  0.2992 -0.1360
11723W        W27617   4.218   4.974  11.979 -0.2656 -0.0369  0.1360
11724W        W27618   5.553  12.861  11.070 -0.1013 -0.0442  0.2610
11725W        W27619   6.640   4.491   1.424 -0.3365  0.0393 -0.0624
11726W        W27620  13.880   6.272   2.098  0.3451  0.1161 -0.1276
11727W        W27621   4.875   5.987   0.689  0.0078 -0.2697  0.0014
11728W        W27622   9.698  18.800   3.223  0.0648 -0.1684 -0.0290
11729W        W27623   7.559  18.324   2.975  0.3946 -0.2500  0.2092
11730W        W27624   9.614   4.003   3.668  0.3107 -0.0652  0.1959
11731W        W27625   0.025   4.064  14.452  0.0123 -0.0346  0.1848
11732W        W27626  17.093   5.147   0.806  0.0508 -0.0567 -0.0701
11733W        W27627  13.604  10.701   2.877 -0.2101 -0.5855  0.1955
11734W        W27628   7.028  14.799   3.813 -0.5218 -0.2205 -0.2237
11735W        W27629   4.033  10.208   2.510  0.1320  0.4059  0.4328
11736W        W27630  10.144   8.159   3.415 -0.2684 -0.1292  0.0834
11737W        W27631   3.657  15.670   4.053 -0.0902  0.0599 -0.3639
11738W        W27632  15.778  10.586   0.370 -0.2271  0.0863  0.1984
11739W        W27633   2.017   6.342  12.526  0.2292  0.1503  0.1094
11740W        W27634   9.938   2.484  14.300  0.0303 -0.2226  0.2430
11741W        W27635  18.430  15.958   5.881 -0.0217 -0.4191 -0.1581
11742W        W27636   4.533  10.750  12.742  0.0423  0.0833 -0.0504
11743W        W27637  11.921  18.080   0.949  0.1689 -0.1026  0.0747
11744W        W27638  10.050   2.881   2.756  0.4011  0.3398 -0.1081
11745W        W27639   8.116  14.738   5.713  0.1095 -0.0064 -0.0783
11746W        W27640   2.358   8.491   5.413  0.0145 -0.1325 -0.2009
11747W        W27641  11.722  15.453   5.041 -0.1355 -0.1950  0.3706
11748W        W27642   4.525   5.800  11.932  0.0679  0.1470  0.3107
11749W        W27643   3.808  16.708  10.804  0.1508  0.0828  0.1777
11750W        W27644  17.573   4.727   2.393 -0.0235 -0.2370 -0.0444
11751W        W27645  14.664   8.152  11.581  0.3224  0.0434 -0.2435
11752W        W27646   9.195   7.647  13.412 -0.2876  0.1301  0.0841
11753W        W27647   8.211   6.081  13.996 -0.1315 -0.2024  0.0116
11754W        W27648   1.471   3.098  13.635  0.0588 -0.0132 -0.3237
11755W        W27649   0.897  17.245  11.510  0.0797  0.3729  0.2344
11756W        W27650  14.585   5.399  11.721 -0.0035 -0.3948  0.2032
11757W        W27651   4.711  18.635  14.693  0.1462 -0.3935  0.3828
11758W        W27652   0.148  18.751   2.056  0.3110 -0.0450 -0.3192
11759W        W27653   4.144  12.881   0.382 -0.1295  0.1316 -0.2058
11760W        W27654  18.583   7.057   2.215 -0.0393  0.3133 -0.4333
11761W        W27655   6.573  15.273  15.233  0.0663  0.3788 -0.0911
11762W        W27656  15.125  11.868   2.762 -0.4482  0.3204  0.1189
11763W        W27657   5.505   4.147   4.681  0.1021 -0.1085 -0.0130
11764W        W27658   7.052  13.567   0.593  0.0639  0.1572  0.2516
11765W        W27659  16.538  17.674   1.097  0.0505 -0.0192  0.1426
11766W        W27660   6.774   0.422   2.307 -0.3747  0.1616  0.1343
11767W        W27661  14.933   0.479   0.624 -0.0474 -0.0526 -0.2289
11768W        W27662   7.215  10.340   2.304 -0.0121 -0.2645  0.0984
11769W        W27663  14.004  15.767   1.192  0.1756  0.3164  0.0783
11770W        W27664  14.633  12.396   2.997  0.0738  0.2486  0.1485
11771W        W27665  12.647   5.984   4.048  0.0042 -0.1816 -0.1266
11772W        W27666   0.966   1.257  11.754  0.0642  0.2976 -0.5004
11773W        W27667  15.545   9.592   4.162  0.0105  0.0539 -0.3064
11774W        W27668  10.947   6.745  11.556 -0.0197 -0.0825 -0.0647
11775W        W27669  12.002  11.575   4.661  0.1779 -0.0274 -0.0374
11776W        W27670   9.510  13.965  13.371  0.0865  0.0457  0.0404
11777W        W27671  14.086   9.666  10.720  0.5284 -0.1654  0.1377
11778W        W27672  12.397   4.090  10.642 -0.2467  0.2484 -0.5317
11779W        W27673  16.749   7.967  10.903  0.2142  0.0502 -0.1858
11780W        W27674  10.462  15.394  11.604  0.0455 -0.3171  0.3227
11781W        W27675   1.540   8.901  13.883  0.3876  0.2204  0.1683
11782W        W27676   8.248   0.326  14.419 -0.1325  0.2742 -0.0310
11783W        W27677   7.796   5.897   0.991  0.3527  0.0141 -0.1009
11784W        W27678   0.828  11.243  14.493 -0.0866 -0.2430 -0.0391
11785W        W27679  13.160  15.667  14.865  0.4003  0.1014  0.0575
11786W        W27680  18.610  15.382   4.814 -0.1902  0.0318 -0.0234
11787W        W27681  13.691  17.593  12.902 -0.3324  0.1226  0.0676
11788W        W27682  12.719  10.781  13.419 -0.1079 -0.0737 -0.1215
11789W        W27683   1.658  18.306  15.456  0.1581  0.1906 -0.3527
11790W        W27684   3.619  12.293   2.294 -0.2524  0.4852  0.1347
11791W        W27685   1.020  13.168   3.892 -0.0014  0.4075  0.2883
11792W        W27686  10.608  13.440   4.824  0.2788  0.0461  0.2459
11793W        W27687  14.525  12.925   3.932  0.1632  0.1364 -0.0174
11794W        W27688   1.005   9.059   3.743 -0.3809  0.0111  0.2125
11795W        W27689   0.213  15.187   4.104  0.0018  0.1126 -0.0132
11796W        W27690   2.197   5.356  10.094 -0.2387  0.0851  0.1628
11797W        W27691   1.181  11.179   0.437  0.1434  0.0111 -0.0971
11798W        W27692  12.910  10.908  14.341  0.1102 -0.0572  0.0016
11799W        W27693  14.866   5.808  13.549 -0.2769  0.0147  0.1615
11800W        W27694   7.873   6.736  12.256  0.0989 -0.2245 -0.0186
11801W        W27695   2.799  12.468  12.976  0.2338 -0.2318 -0.2905
11802W        W27696   2.190   1.516  11.750 -0.3059  0.0262 -0.0982
11803W        W27697   6.585   3.508   1.928  0.0469 -0.0355  0.0553
11804W        W27698  18.778   2.517  13.769 -0.2012  0.0346  0.0996
11805W        W27699   9.255  14.228   2.186  0.2077 -0.1243 -0.2641
11806W        W27700  13.669   4.267  11.140 -0.3156  0.1864 -0.0999
11807W        W27701   7.694   7.726   5.517 -0.0645  0.0465 -0.1228
11808W        W27702   5.004  12.202  12.873 -0.1714  0.0248 -0.1162
11809W        W27703   4.197  10.912   4.855  0.2903 -0.2025  0.3105
11810W        W27704   4.717  11.500  11.365 -0.0495  0.2673  0.0567
11811W        W27705   4.538  17.437  12.287  0.1011 -0.0371 -0.0297
11812W        W27706   1.385   4.769   0.967  0.0680 -0.0149  0.0953
11813W        W27707  16.199   6.485   5.586  0.3143  0.2723  0.0002
11814W        W27708  16.628  16.342   4.248 -0.1887 -0.2208 -0.0307
11815W        W27709   1.280  13.088  15.184  0.0750  0.2628 -0.0959
11816W        W27710  13.250  17.476   4.205 -0.0364 -0.1638  0.0805
11817W        W27711   4.868   8.064   1.014  0.1239 -0.1036  0.0001
11818W        W27712  14.977   8.409  14.812  0.0824 -0.2867  0.0192
11819W        W27713  11.021   7.782  12.410  0.3489 -0.0748 -0.3702
11820W        W27714  17.900  17.162   5.065 -0.1080  0.0092 -0.0677
11821W        W27715  16.171   5.626  14.993 -0.2426 -0.2140 -0.1981
11822W        W27716  16.819   2.116  13.124 -0.0254 -0.2310  0.1889
11823W        W27717  11.423  15.469  13.579  0.2757  0.2384  0.0505
11824W        W27718  16.482   0.884   5.220 -0.1372 -0.0610 -0.1557
11825W        W27719   8.114  16.877   2.998 -0.3193  0.0126 -0.1164
11826W        W27720  10.655   7.963  13.366  0.0281  0.1976 -0.0423
11827W        W27721   8.128   7.786  10.260 -0.2131 -0.2103 -0.0220
11828W        W27722  10.565  18.061   4.591 -0.0405  0.0492 -0.0476
11829W        W27723  13.058   9.713  11.197  0.0203 -0.0474 -0.0686
11830W        W27724  13.439  13.696  14.895 -0.0774  0.1086 -0.5129
11831W        W27725   7.498   8.634   3.724  0.2129 -0.2328  0.1699
11832W        W27726  15.051   4.950  14.679  0.3427 -0.0417  0.2481
11833W        W27727   1.405   3.330   2.952 -0.1133  0.0459  0.1820
11834W        W27728  14.847   8.759   2.478  0.2620 -0.0150 -0.1772
11835W        W27729  18.387   2.628  14.092 -0.0212 -0.0667 -0.4071
11836W        W27730   7.792   5.238   0.261 -0.1889 -0.1198 -0.2153
11837W        W27731   9.270   4.903   4.804  0.0134  0.3350  0.2980
11838W        W27732  15.973   0.468   0.720  0.0678  0.3873  0.0109
11839W        W27733  18.450  16.730  11.595 -0.0984  0.0786  0.2269
11840W        W27734  14.998  13.398  11.250 -0.0547  0.2904  0.0299
11841W        W27735   8.248  11.084   2.795  0.1141 -0.0842  0.0460
11842W        W27736   3.818  17.727  12.057 -0.0746 -0.1867 -0.3950
11843W        W27737   7.708   7.249  11.558 -0.2299 -0.2334  0.0310
11844W        W27738  15.262   4.950  13.577 -0.2186  0.0254 -0.1187
11845W        W27739  13.050  14.108  14.865 -0.4283 -0.2039 -0.0415
11846W        W27740   1.365  18.073   5.904 -0.2409 -0.1370  0.1028
11847W        W27741  17.784  11.434   4.760 -0.2631 -0.1477  0.2102
11848W        W27742   5.620  17.784   2.950 -0.1210 -0.0923 -0.1379
11849W        W27743   3.740   9.981  13.618  0.2914  0.1862 -0.1287
11850W        W27744  15.554   7.586   1.246  0.0421 -0.1095 -0.3918
11851W        W27745  14.899   0.482   3.016  0.0984 -0.1689 -0.0182
11852W        W27746   2.397  11.506   1.113 -0.0513  0.0174 -0.1120
11853W        W27747  12.465   0.078   3.452  0.0289  0.1094 -0.2234
11854W        W27748  11.424   7.575   4.397  0.2158  0.1684 -0.1558
11855W        W27749  16.708   3.807  12.284  0.1178  0.0760  0.0959
11856W        W27750  18.460   5.556  14.793 -0.2132  0.1658 -0.1838
11857W        W27751   9.931  15.825   0.554 -0.1987  0.0901  0.1349
11858W        W27752  16.885  15.334  12.860  0.2933  0.0214  0.0539
11859W        W27753   8.097  16.415  13.883 -0.1699  0.1561 -0.0539
11860W        W27754   3.058   3.834   5.007  0.1516  0.0854  0.1581
11861W        W27755  15.824   5.742   0.464  0.2080  0.0047 -0.0872
11862W        W27756   3.410  16.593  14.775 -0.0566  0.1750  0.5419
11863W        W27757  14.607   2.823  10.964  0.2021 -0.0931  0.1351
11864W        W27758   1.036   7.764   2.805  0.1299 -0.0444  0.0725
11865W        W27759   5.101   1.848  11.713 -0.2078  0.0180  0.0190
11866W        W27760   6.516   5.781   3.893 -0.1890  0.1762  0.4352
11867W        W27761  17.945   3.876   0.876  0.3516  0.0752 -0.1306
11868W        W27762   2.602   2.588  14.379 -0.0868  0.2757  0.2065
11869W        W27763   7.836   2.935   3.181  0.0535  0.1975 -0.0950
11870W        W27764   5.184   5.519  11.797 -0.1739 -0.0937  0.1123
11871W        W27765  16.651   6.363   0.431 -0.0868 -0.0420  0.0605
11872W        W27766  14.989  15.646  12.336 -0.2945 -0.0321  0.4482
11873W        W27767  17.173  15.245  15.440  0.2074 -0.1024 -0.1021
11874W        W27768  14.886  11.420   5.118 -0.0652  0.0906 -0.0662
11875W        W27769   8.043   7.360   0.548 -0.0665  0.3768 -0.0292
11876W        W27770  13.370   3.037   4.970  0.0794 -0.0174  0.3196
11877W        W27771  17.183  15.326  11.226 -0.2159 -0.0576 -0.1837
11878W        W27772   3.994  16.011   0.851 -0.1685 -0.3476 -0.1133
11879W        W27773  16.344   1.770  14.555 -0.0340  0.1255  0.0009
11880W        W27774   0.625  17.575  11.708  0.2261 -0.0734 -0.0506
11881W        W27775   7.448  11.520   2.823  0.0704 -0.2202 -0.1023
11882W        W27776  16.894   7.964   4.785 -0.1710 -0.0377 -0.0780
11883W        W27777   4.169  18.151  10.874  0.4163  0.1221 -0.0167
11884W        W27778   1.612  14.055   1.546 -0.1179  0.2155  0.1919
11885W        W27779   2.891   3.837   1.790  0.0366 -0.2773 -0.0912
11886W        W27780   3.756   3.985  12.903  0.1270  0.0726 -0.1355
11887W        W27781  18.454  15.422  15.133  0.0829  0.0667 -0.0083
11888W        W27782  16.719   1.671  12.776  0.4486 -0.3366 -0.4328
11889W        W27783  18.141   8.542   2.530  0.2913  0.0836 -0.1678
11890W        W27784   7.553  15.419  13.024 -0.1638 -0.2959  0.0383
11891W        W27785  10.021  16.559  11.010  0.2079 -0.1090 -0.0291
11892W        W27786  17.205   0.663  14.322 -0.0795  0.2194  0.1085
11893W        W27787  18.244   6.562   0.856 -0.0476 -0.0896 -0.1063
11894W        W27788   6.919   6.034   3.614  0.1499 -0.1919 -0.2149
11895W        W27789  18.270   7.372   2.083  0.0978  0.2571 -0.4544
11896W        W27790   3.018   1.878   2.048 -0.0666 -0.1371 -0.2574
11897W        W27791   6.706   1.797   2.365 -0.0931  0.1914 -0.0610
11898W        W27792  14.923   6.975   0.406  0.0461  0.0326  0.2285
11899W        W27793   6.325  16.798   5.116  0.1433  0.0641 -0.2841
11900W        W27794   1.664  18.100   2.662  0.1739 -0.1908 -0.0266
11901W        W27795   5.765   6.801  14.939  0.1188  0.0058  0.0805
11902W        W27796  18.556   1.758   5.705  0.1914 -0.1861  0.0719
11903W        W27797   0.402  18.108  10.640  0.1919  0.2727 -0.1187
11904W        W27798  13.886  15.853  13.935 -0.1283 -0.1164  0.2610
11905W        W27799  14.267   1.742   0.932 -0.2100 -0.1031 -0.3387
11906W        W27800   6.449   6.730  10.034 -0.4504  0.1941 -0.2906
11907W        W27801  17.705  11.652   0.769  0.1605  0.0909 -0.3350
11908W        W27802  15.972   0.293   5.385 -0.3440  0.1656 -0.1657
11909W        W27803   5.191  10.608  12.534 -0.0672  0.0292  0.1556
11910W        W27804   0.824  10.575  10.757 -0.0666 -0.3003 -0.2078
11911W        W27805   2.765   3.730   3.694 -0.3579  0.0400 -0.4742
11912W        W27806   5.293   6.104   2.172 -0.0537 -0.1952  0.0885
11913W        W27807   1.074  13.384   2.439  0.0366 -0.1282  0.0477
11914W        W27808  16.883  10.620  15.092  0.0783 -0.0249 -0.0808
11915W        W27809  14.341  18.342  11.777  0.2230  0.1133 -0.1206
11916W        W27810  12.808  16.747   3.718  0.1638 -0.0015  0.1069
11917W        W27811  15.002  18.547   5.027  0.0449  0.0807  0.0534
11918W        W27812  11.599  14.924  15.250  0.1450 -0.0379 -0.1581
11919W        W27813   9.246  11.121   5.601 -0.0953  0.0292 -0.0731
11920W        W27814  18.692  15.615   0.225 -0.1616  0.0032 -0.1239
11921W        W27815   2.705   7.668  13.884 -0.1493  0.2421  0.0535
11922W        W27816  11.194  18.052   1.004  0.1523  0.0532 -0.2315
11923W        W27817   5.624  12.481   3.620  0.1566  0.1428 -0.1522
11924W        W27818  11.142  13.246   0.926 -0.0348  0.1544 -0.3103
11925W        W27819  10.229  12.087   0.242  0.1742 -0.6913 -0.0196
11926W        W27820  15.111  14.197   5.713 -0.4470 -0.1806 -0.2133
11927W        W27821   1.086  12.336   0.584 -0.2390  0.1166  0.3770
11928W        W27822   6.083   4.606   2.301 -0.0387 -0.0488  0.1183
11929W        W27823  16.626   8.660   3.118  0.2192  0.2543 -0.1084
11930W        W27824   8.969   4.408  14.392  0.0488  0.2716 -0.0041
11931W        W27825   4.932  15.098  13.514 -0.0763  0.1494 -0.1582
11932W        W27826  17.495   3.848  11.393 -0.0191  0.0056  0.0685
11933W        W27827  16.452  12.099  15.467 -0.1255  0.1099  0.0124
11934W        W27828   4.786  14.409   1.090  0.0111 -0.3066  0.0985
11935W        W27829   0.328   2.389  11.463  0.0068 -0.0774  0.1036
11936W        W27830  16.253   8.950   5.265  0.0617  0.0837 -0.1156
11937W        W27831   7.506   4.623  15.024 -0.1640 -0.2925 -0.0413
11938W        W27832   4.879  15.464  12.675  0.4383 -0.1832  0.1030
11939W        W27833   8.057   1.425   3.486 -0.1841  0.1539 -0.2251
11940W        W27834   9.462   0.749   4.291 -0.2392  0.0538  0.3731
11941W        W27835   0.390  16.889   2.467 -0.1046  0.0092  0.1392
11942W        W27836   3.044  11.216  14.762  0.0527  0.0461  0.1058
11943W        W27837   0.885  12.158   1.546 -0.1121 -0.1121 -0.4441
11944W        W27838   9.919  13.676  13.394  0.1415 -0.0925 -0.1641
11945W        W27839  16.431   5.043  12.359  0.1193  0.1629 -0.1027
11946W        W27840   0.481  10.479   1.609  0.2430 -0.1219  0.1050
11947W        W27841  11.958  15.355  12.882  0.1320 -0.2318 -0.2371
11948W        W27842  14.277  13.368   5.599 -0.0962 -0.1651 -0.2791
11949W        W27843  16.614  17.184   3.688  0.3316  0.0383 -0.0489
11950W        W27844   9.730   6.233   0.245 -0.0639  0.2723  0.1381
11951W        W27845   8.969   0.731   4.025 -0.0669  0.0223  0.0912
11952W        W27846  14.077  12.642  13.447 -0.1429  0.0249 -0.1631
11953W        W27847   2.482  15.223  14.299  0.1901 -0.0785 -0.0613
11954W        W27848  18.450   1.351  14.091  0.4719 -0.0816 -0.0215
11955W        W27849  14.748  10.649  13.058  0.0354  0.2774 -0.2885
11956W        W27850  13.796  10.322  10.921  0.1663  0.1192 -0.1001
11957W        W27851   4.945   1.988   2.168 -0.3284 -0.0198  0.2058
11958W        W27852  11.447  16.623  14.753 -0.0464  0.1570 -0.0429
11959W        W27853  11.186   4.705   1.436 -0.0526 -0.1099 -0.1660
11960W        W27854   4.847   2.719   9.812 -0.0910 -0.0147  0.2271
11961W        W27855  13.404  16.574   4.406  0.1874  0.0618  0.0792
11962W        W27856   5.452   4.488   2.912 -0.0758  0.2895  0.1711
11963W        W27857   1.285   2.217  11.745  0.1714 -0.2093 -0.2051
11964W        W27858  14.449  18.030  12.140 -0.0126  0.2312 -0.0662
11965W        W27859  17.083   6.875  10.676 -0.0898 -0.1221  0.0002
11966W        W27860   1.670   7.716  13.017  0.0304  0.0541 -0.0292
11967W        W27861  13.454  18.400   2.316  0.0576 -0.0265 -0.1982
11968W        W27862   0.132  17.681   2.797  0.3077  0.2275 -0.3488
11969W        W27863   6.545  18.527   2.114 -0.0857 -0.0314  0.0197
11970W        W27864   8.782   8.855  14.247 -0.0361 -0.0054  0.3086
11971W        W27865   7.413   8.335   3.232 -0.2694  0.2133 -0.3081
11972W        W27866  17.333   4.163  11.813 -0.0493  0.0195 -0.0904
11973W        W27867  15.724  16.246   0.956  0.2895  0.1382  0.0971
11974W        W27868  12.393   3.145   4.661  0.0443  0.0644 -0.0743
11975W        W27869   7.912   8.424   1.148 -0.0168  0.1791 -0.1773
11976W        W27870  12.928  17.624   2.910 -0.0930  0.1654  0.0407
11977W        W27871  18.379  14.108  14.629  0.0059  0.0319 -0.0631
11978W        W27872   2.502  16.687  11.409  0.1408  0.0316  0.2070
11979W        W27873  13.552  14.933  11.619  0.1371 -0.3539  0.4826
11980W        W27874  13.512   8.757  14.754 -0.0404 -0.0739  0.2464
11981W        W27875   0.773   1.542   2.870 -0.0518 -0.0023  0.1112
11982W        W27876  16.811   1.226   1.277 -0.2459  0.1416  0.0722
11983W        W27877  16.619  18.406   3.469  0.1057  0.0668  0.1435
11984W        W27878  11.581   4.032  14.031 -0.1594  0.0972  0.2635
11985W        W27879   3.156   7.242   3.682 -0.1090 -0.1481  0.0372
11986W        W27880  11.977   4.928  12.658 -0.1259 -0.0977 -0.0706
11987W        W27881   0.714  11.798  12.520 -0.0729 -0.5619  0.1505
11988W        W27882  10.401   7.636  11.702 -0.1910  0.2253 -0.1180
11989W        W27883   5.804   3.223   0.633  0.1876  0.1606 -0.2087
11990W        W27884   4.393   6.163  11.543  0.0567 -0.3081 -0.3116
11991W        W27885   4.307  16.336  12.665  0.1080 -0.0050 -0.0137
11992W        W27886   9.889   4.010  14.548  0.1195  0.1173 -0.1264
11993W        W27887  17.658   7.882   3.684 -0.1139  0.0021  0.2191
11994W        W27888  16.045  16.421  11.496 -0.0262 -0.0031 -0.1943
11995W        W27889   1.477   9.522   1.128  0.1593 -0.1465  0.1032
11996W        W27890  10.033  17.865   3.197  0.0594  0.0072 -0.2402
11997W        W27891   4.507   8.527  14.293 -0.0283 -0.1102 -0.0569
11998W        W27892  17.469  11.289  14.674  0.0613 -0.6529 -0.0241
11999W        W27893   8.593   9.598   3.238 -0.1238 -0.4249 -0.2053
12000W        W27894  16.783  13.922   3.794 -0.0183 -0.0781  0.0923
12001W        W27895   3.811  10.602   5.274  0.3351  0.2221  0.3005
12002W        W27896  14.516   4.512   4.445  0.1857 -0.0440 -0.0486
12003W        W27897  13.091  11.707   4.499  0.1833 -0.1491 -0.0730
12004W        W27898  10.182   2.922   1.606 -0.0915 -0.2817  0.1762
12005W        W27899   2.326  12.238  12.127  0.2849  0.0430  0.2167
12006W        W27900   0.378   9.244   4.853 -0.1703  0.1730 -0.2504
12007W        W27901  15.448  11.496   4.287  0.1175  0.2215  0.1130
12008W        W27902  14.686   4.242   2.140 -0.0068 -0.0531  0.1809
12009W        W27903   4.804   9.666   2.446 -0.1683 -0.0250  0.2590
12010W        W27904  13.937   1.002  12.857  0.0064 -0.2162 -0.0477
12011W        W27905   9.131   7.557  14.009 -0.2287 -0.0472  0.1546
12012W        W27906  13.841   7.845  14.224  0.0411 -0.0735 -0.0729
12013W        W27907  18.193   9.254  13.607 -0.1444  0.0607  0.0868
12014W        W27908  10.799   0.996  14.830  0.2690 -0.1230 -0.1933
12015W        W27909  11.956   5.659  10.456  0.0871 -0.2650 -0.1169
12016W        W27910   2.618  16.419   4.384  0.1494 -0.2411  0.2159
12017W        W27911   3.426   4.329   4.353 -0.0364 -0.3192  0.0208
12018W        W27912   1.044  18.255   3.387 -0.3052  0.1014  0.0398
12019W        W27913  15.157  12.611  12.847  0.1730  0.4177 -0.0669
12020W        W27914  10.993   5.077   0.303 -0.0179 -0.1930  0.0552
12021W        W27915  18.256  10.374  15.150 -0.0214 -0.0381  0.0494
12022W        W27916  18.583   6.771  14.052  0.2642  0.0482 -0.0882
12023W        W27917   3.252   8.885   4.560 -0.0241 -0.0801  0.4756
12024W        W27918   3.811  13.138   3.181 -0.0320  0.1892  0.0921
12025W        W27919   6.460   7.055  12.900 -0.2787 -0.2582 -0.0944
12026W        W27920   6.988   5.431   1.238  0.3001 -0.0788  0.1339
12027W        W27921  18.228   4.106  12.035 -0.0292  0.1949  0.2124
12028W        W27922   1.133   0.730  12.286  0.1820 -0.2042  0.3288
12029W        W27923  13.378   2.074   0.350  0.0328  0.2746  0.1082
12030W        W27924  12.542   6.531   1.442 -0.4285 -0.0313  0.0236
12031W        W27925  16.964  10.667   3.950 -0.1238  0.0117 -0.1490
12032W        W27926   5.863   8.207   3.372  0.1144 -0.1387 -0.0704
12033W        W27927   9.200  15.350   1.614 -0.2033 -0.1253  0.0930
12034W        W27928   8.746   1.307   4.511 -0.0726  0.0069  0.0038
12035W        W27929   7.648  17.897  11.458 -0.1096 -0.3052  0.0923
12036W        W27930  10.797   3.367   3.321 -0.1250 -0.1489  0.1117
12037W        W27931  17.291   8.921  13.308  0.3096  0.0711  0.4149
12038W        W27932   9.420   1.482   2.602  0.0766  0.2534  0.1787
12039W        W27933  16.518   2.647  12.411  0.2193  0.2049 -0.1133
12040W        W27934   8.182  12.411   0.896 -0.1703 -0.3126  0.2272
12041W        W27935   3.648  12.449   2.893  0.2734  0.4904 -0.1249
12042W        W27936   6.383   2.603  14.376  0.5140  0.0840 -0.0834
12043W        W27937  13.152   3.582   4.030  0.0384 -0.2114  0.1222
12044W        W27938   6.444  17.498   2.470 -0.4438 -0.5157  0.1298
12045W        W27939   1.038   8.366   2.059  0.1349  0.0885 -0.1439
12046W        W27940   9.908   0.258  11.385  0.2970  0.1608 -0.2025
12047W        W27941   2.410  10.606   4.378 -0.2178 -0.1606  0.0857
12048W        W27942  10.551   5.048  15.073 -0.1026 -0.0235  0.3114
12049W        W27943  14.416   2.537   3.221  0.3131  0.0109 -0.3056
12050W        W27944   2.207   4.744   5.295  0.0137 -0.3547 -0.0211
12051W        W27945  14.463  17.436   4.806  0.2025 -0.3592 -0.3114
12052W        W27946   8.894  16.837   4.570 -0.3018 -0.1511 -0.0152
12053W        W27947  10.455  14.996   4.984 -0.1446  0.2294  0.0035
12054W        W27948  13.661  15.358   0.993 -0.0889 -0.1974 -0.2353
12055W        W27949   9.012  18.503  15.268  0.2739 -0.0384  0.1207
12056W        W27950  13.555   8.120   2.807 -0.1816  0.0482 -0.1617
12057W        W27951  15.107  12.232   4.891  0.1904  0.1106 -0.3202
12058W        W27952   0.205  13.839  11.826  0.1682 -0.0115 -0.0497
12059W        W27953   1.685   2.098   9.663 -0.0334  0.0112 -0.1192
12060W        W27954  13.145  12.105   1.412 -0.2239  0.0657 -0.2976
12061W        W27955  15.327  15.045  15.325 -0.4116 -0.3097  0.1094
12062W        W27956   9.380  12.859  12.058  0.1561 -0.2239  0.1213
12063W        W27957   5.461   3.368  11.400  0.0528 -0.1136 -0.1913
12064W        W27958  11.572   8.931   3.378  0.1743  0.0722 -0.0857
12065W        W27959  13.906  16.571   5.536 -0.1993 -0.0893  0.1438
12066W        W27960  11.688  18.137  12.973  0.0937 -0.1085 -0.1221
12067W        W27961   6.587   1.673   0.815 -0.4563 -0.0379  0.1080
12068W        W27962  12.288  18.290  14.326  0.1644 -0.0093 -0.3033
12069W        W27963   2.100  12.902   2.329  0.1816  0.3759 -0.0538
12070W        W27964   1.228  15.200  14.065 -0.3824  0.2526  0.0124
12071W        W27965  16.746   9.605  14.852 -0.0056 -0.1662 -0.1178
12072W        W27966   0.220   0.925   2.289 -0.2397  0.2016  0.1276
12073W        W27967  10.510   6.995   5.811  0.0048  0.2395  0.1691
12074W        W27968  16.268   1.188  12.912 -0.1406  0.2377 -0.1761
12075W        W27969  17.042  16.240  12.668  0.2774 -0.4021  0.0003
12076W        W27970  13.345  16.374  13.030 -0.0121  0.1950  0.0063
12077W        W27971  15.032   7.454  10.934 -0.0664  0.0712  0.5447
12078W        W27972   5.583   4.175  10.524 -0.3308  0.0449 -0.3684
12079W        W27973  16.906  15.549  15.139  0.4942 -0.3205 -0.2536
12080W        W27974   7.191   7.555   4.227 -0.1338 -0.2030 -0.0792
12081W        W27975   3.156   2.247   1.270  0.0467 -0.1145  0.0928
12082W        W27976   1.250  11.441   4.739  0.0426 -0.1278  0.2042
12083W        W27977  13.386   6.590   5.000  0.0627 -0.0417 -0.0250
12084W        W27978   3.245   7.985  10.575 -0.0020  0.1574 -0.0701
12085W        W27979  15.012  13.895  11.389  0.0617 -0.2542  0.1988
12086W        W27980   2.098   6.554   1.394 -0.1214  0.0306 -0.3504
12087W        W27981  10.143  15.578   2.609  0.1741 -0.0221  0.2193
12088W        W27982   8.937   3.611   4.497 -0.2180 -0.1505 -0.2544
12089W        W27983   7.456  12.732  14.281  0.2852 -0.1064  0.1734
12090W        W27984  18.652  10.455   9.995 -0.1360  0.0505  0.1946
12091W        W27985   6.720   8.328  10.553 -0.1937 -0.1854  0.2272
12092W        W27986   9.790  11.883  13.453 -0.0583  0.0724  0.0297
12093W        W27987   0.547   3.869   2.962 -0.1429 -0.1309  0.1686
12094W        W27988  10.991  15.002   0.973  0.0980 -0.0839  0.0180
12095W        W27989   8.107   2.072  13.569 -0.1086  0.2503  0.0809
12096W        W27990   6.669   2.269   2.735 -0.0145 -0.0374  0.0853
12097W        W27991  14.437   2.162   1.226 -0.1467 -0.1888 -0.0869
12098W        W27992   3.026   3.538  12.745 -0.0715 -0.0292  0.1931
12099W        W27993  17.295  13.418  12.697 -0.0975  0.1257  0.2518
12100W        W27994   6.344  18.089   2.341 -0.1358 -0.1032 -0.3823
12101W        W27995  14.685  17.922  12.945 -0.2902 -0.2663  0.1620
12102W        W27996  17.268  11.537  12.798  0.4067  0.0468 -0.0315
12103W        W27997  10.124  14.506  11.452 -0.0534 -0.3243 -0.0273
12104W        W27998  11.776   6.989   0.907  0.0681 -0.0399  0.2185
12105W        W27999  14.943   6.672   1.170 -0.0711 -0.3767  0.2222
12106W        W28000   2.656  12.653   4.444 -0.0326 -0.1301 -0.1091
12107W        W28001   7.658  16.195   3.878  0.0261 -0.1250 -0.1365
12108W        W28002  11.673   9.429   2.196 -0.0234  0.0149 -0.1930
12109W        W28003  16.287  10.979  12.384 -0.0403 -0.0546 -0.2223
12110W        W28004  12.963  14.826  14.425  0.3057  0.1700 -0.0369
12111W        W28005  18.802  13.338  11.284  0.1950  0.0300 -0.0432
12112W        W28006  15.224  13.088   2.889  0.2168 -0.3539  0.0373
12113W        W28007  14.413  13.560  15.019  0.0138 -0.1913 -0.0657
12114W        W28008  11.044   1.874   3.904  0.0690 -0.0847 -0.0907
12115W        W28009   3.628   1.390  10.845 -0.1539 -0.1036 -0.0434
12116W        W28010   2.599  14.150  11.256  0.1642 -0.0034 -0.1547
12117W        W28011  18.770   0.811   5.302 -0.0719 -0.2570 -0.1084
12118W        W28012   8.523  16.920   0.553 -0.0480  0.1969  0.3380
12119W        W28013   6.175   4.546   5.268  0.1556 -0.2543  0.0050
12120W        W28014   4.103  15.529   4.475 -0.0316  0.0855  0.1294
12121W        W28015   7.454  13.620   3.432 -0.0010  0.0600  0.3128
12122W        W28016   8.112  16.448   3.369  0.2187  0.0432  0.0208
12123W        W28017  17.491   9.643   2.421  0.2023  0.1699  0.0537
12124W        W28018  16.441   7.889  13.446  0.1161 -0.1867 -0.0670
12125W        W28019  10.934  18.712   1.653 -0.1389  0.0585 -0.0380
12126W        W28020  12.440  16.447  12.528 -0.1138 -0.2009  0.0765
12127W        W28021  15.546  14.031   5.132 -0.3199  0.1547  0.2651
12128W        W28022  16.825   6.802  14.208 -0.1669 -0.3090 -0.3053
12129W        W28023   7.794  15.582   3.885  0.0597  0.1755  0.0546
12130W        W28024  18.698   3.057   4.995 -0.3385 -0.0952 -0.3724
12131W        W28025  16.079   4.726  14.689  0.1442 -0.1607 -0.1729
12132W        W28026   2.128   5.842  12.286  0.0549  0.0667  0.0000
12133W        W28027   1.336   0.341   0.980  0.0755  0.0683  0.0870
12134W        W28028  14.290  11.605  12.433  0.2493  0.0808  0.2732
12135W        W28029  11.801   5.237   3.118 -0.2582  0.3807  0.4384
12136W        W28030   0.503   5.070  10.735 -0.1007 -0.0012  0.1334
12137W        W28031   0.568  10.538  11.846  0.1545  0.0452 -0.0501
12138W        W28032  17.710   1.713   4.864 -0.0037  0.0829 -0.1429
12139W        W28033   6.804   4.103   0.655 -0.0457  0.1270  0.0187
12140W        W28034   9.105  14.255  11.459  0.1979 -0.0454 -0.0549
12141W        W28035  17.309  13.336   5.224 -0.1234 -0.2540  0.1938
12142W        W28036  13.876   2.337   0.523 -0.0819  0.2712  0.2886
12143W        W28037  15.348   2.685   4.025 -0.0776  0.1820  0.0550
12144W        W28038   8.797  13.327   2.152 -0.1336 -0.0526  0.3959
12145W        W28039  14.178  17.438   1.042 -0.1362 -0.0430 -0.2591
12146W        W28040   9.112   4.302   0.292  0.6493 -0.2289 -0.1485
12147W        W28041   7.603  13.007   0.414 -0.2589  0.5417  0.0809
12148W        W28042   8.234   4.831   3.378 -0.0290  0.2902  0.0837
12149W        W28043  16.803   5.703   4.199  0.2215  0.2470 -0.0850
12150W        W28044  13.916  11.743   5.451 -0.0724 -0.2381  0.1909
12151W        W28045   3.967  11.207  11.927 -0.1218 -0.1025  0.0638
12152W        W28046   4.395   3.145   3.516  0.2602 -0.3158  0.1042
12153W        W28047  15.612   6.808  13.508 -0.1795  0.0241  0.0954
12154W        W28048   3.026   0.989   4.931  0.2161 -0.0180  0.0238
12155W        W28049  11.169   8.097  13.625  0.0611 -0.1265  0.0109
12156W        W28050  18.784   6.911  10.049  0.1145 -0.3024 -0.6219
12157W        W28051  15.013   3.286  11.589  0.0546 -0.2687  0.1997
12158W        W28052   3.338  15.653  12.234  0.1383  0.1681  0.1415
12159W        W28053  16.697  16.385   2.507 -0.2443 -0.0608  0.1989
12160W        W28054   0.817  15.047  11.564 -0.1447 -0.4026 -0.1088
12161W        W28055   9.591   8.019   0.826  0.2623  0.1773 -0.1585
12162W        W28056   2.789   6.405   1.980  0.1437 -0.0203  0.3206
12163W        W28057   3.154  10.547   1.971 -0.0588  0.3760 -0.1200
12164W        W28058  15.852   3.725   2.280 -0.0518 -0.1501 -0.1025
12165W        W28059   1.935   0.791  13.944  0.2873 -0.1727 -0.0553
12166W        W28060   1.357  15.802  12.331 -0.1904  0.5309 -0.2026
12167W        W28061   8.651   3.927   0.434 -0.0993  0.2444  0.0564
12168W        W28062   9.310  16.330   1.506  0.0374  0.1236  0.1800
12169W        W28063   9.354  16.554  12.188 -0.4525  0.2987  0.1286
12170W        W28064   6.794   2.459  10.640 -0.1001  0.1823  0.0793
12171W        W28065   1.388   7.468   3.331 -0.4626  0.1179  0.2791
12172W        W28066   0.764  15.182   1.195  0.0822  0.2502 -0.1531
12173W        W28067   8.483  14.509  13.159 -0.2397 -0.0055 -0.2141
12174W        W28068   3.628   3.875  10.918 -0.0612  0.1809 -0.2023
12175W        W28069   1.174   5.135  12.383  0.1967  0.3898 -0.2773
12176W        W28070   4.301  14.132   1.084  0.0648  0.1987  0.0613
12177W        W28071   2.699  10.017   5.186  0.1004  0.1164  0.2953
12178W        W28072   4.964   9.788   5.780 -0.1130 -0.0158  0.0013
12179W        W28073   1.238   6.676   4.271  0.1046 -0.0008  0.0089
12180W        W28074   2.455  13.223   2.625  0.1483  0.3591 -0.1713
12181W        W28075  17.515  13.494   1.568  0.0473 -0.1258 -0.2013
12182W        W28076  16.030   3.422   0.053 -0.0866 -0.0599  0.1393
12183W        W28077   5.354  12.766  11.508 -0.0475  0.4660  0.2911
12184W        W28078   1.551   1.121   4.607  0.2738  0.0585  0.3881
12185W        W28079  10.104  10.848   2.818 -0.0647 -0.1163 -0.0709
12186W        W28080  10.929  10.711   2.970  0.0562  0.0105 -0.2845
12187W        W28081  15.707  11.265   2.285 -0.0711  0.1871 -0.3502
12188W        W28082   8.943  12.314   2.679 -0.0949 -0.0689  0.1515
12189W        W28083   9.376  12.703  12.577 -0.0357  0.1310 -0.0938
12190W        W28084   4.444   9.906  12.869  0.1912 -0.3139 -0.1598
12191W        W28085   1.434  11.815   3.400  0.1301 -0.0610 -0.3037
12192W        W28086  13.310  12.407   3.342 -0.0538 -0.0958  0.1109
12193W        W28087  15.591   3.987  12.626 -0.2895  0.3958  0.0365
12194W        W28088   2.689   6.790  10.642 -0.3419 -0.2482 -0.3711
12195W        W28089  11.319   3.470   3.058 -0.1233  0.2039 -0.4062
12196W        W28090  17.814   0.914  12.477 -0.2590  0.1899 -0.0177
12197W        W28091   3.954   1.348  13.129  0.1216 -0.2396 -0.1542
12198W        W28092  12.372  16.287   4.215 -0.1713  0.2063 -0.1762
12199W        W28093   3.934   0.957   5.534  0.3230  0.0873  0.0162
12200W        W28094   1.684  11.641   2.164  0.1338 -0.2393  0.1388
12201W        W28095   5.871  13.743  11.591  0.0986 -0.1629  0.1897
12202W        W28096   4.285   0.791  10.227 -0.2617 -0.0655  0.1438
12203W        W28097  12.656   8.310  11.965  0.1279 -0.3275  0.2720
12204W        W28098   2.919   1.826  12.590  0.0734  0.1956  0.0705
12205W        W28099  15.296   6.048   5.238 -0.3041 -0.2620 -0.0474
12206W        W28100   3.221  11.410  11.485 -0.1316  0.1275 -0.3254
12207W        W28101   9.433  10.311  12.662  0.1220  0.3402  0.1391
12208W        W28102  15.270   5.188  15.076 -0.2210 -0.1314  0.2621
12209W        W28103   9.603   2.182  11.078  0.1030  0.1048  0.1954
12210W        W28104   8.758   8.912  13.761 -0.1071 -0.0492 -0.1209
12211W        W28105  10.921   8.806  11.958 -0.1564  0.0546  0.0664
12212W        W28106  11.063  15.876  14.320 -0.0665 -0.1089 -0.0783
12213W        W28107   3.900   5.485   0.014  0.0825  0.1597  0.2317
12214W        W28108  17.048   7.674  11.210 -0.0406  0.2020 -0.4399
12215W        W28109  14.147   1.619   1.908  0.0361  0.2152 -0.1702
12216W        W28110  10.032  10.520  14.164 -0.1469 -0.2718 -0.1552
12217W        W28111   8.079  12.635  10.051 -0.4618 -0.1650 -0.1676
12218W        W28112   8.464   2.448  13.504  0.1679  0.1555 -0.0064
12219W        W28113   7.866   8.581  14.628  0.2242  0.0053  0.1808
12220W        W28114   7.911  17.925   5.314  0.1261  0.0351  0.0713
12221W        W28115   0.683   5.787   2.929 -0.0891  0.1439  0.0302
12222W        W28116   1.299   2.222  15.403  0.2552 -0.3098 -0.0319
12223W        W28117  10.273   8.400   3.966 -0.0241 -0.1421  0.1353
12224W        W28118  15.044   5.584   3.528  0.0277 -0.0064  0.1732
12225W        W28119   0.160  12.763  15.382  0.0882 -0.1795 -0.1433
12226W        W28120  13.565  16.725   1.048  0.1646 -0.0187  0.1369
12227W        W28121  10.749  10.380  14.223  0.2739 -0.1276  0.1648
12228W        W28122   4.094  16.927  11.122 -0.1486  0.3473  0.0771
12229W        W28123  17.544  14.842   2.648 -0.1096  0.2309  0.3456
12230W        W28124  14.265  16.119  15.395 -0.4621  0.0785 -0.5217
12231W        W28125   1.787   4.718   5.733  0.0292  0.1474  0.3495
12232W        W28126  15.797  10.802  14.103  0.0995  0.0892  0.2516
12233W        W28127   5.752   0.982   3.259  0.5611  0.1070  0.2236
12234W        W28128   1.837   5.401   1.991 -0.0886  0.2541 -0.0118
12235W        W28129   3.858   5.651   4.054  0.2229  0.1015  0.0040
12236W        W28130   6.498  17.174   1.492 -0.0559  0.1276  0.1091
12237W        W28131  16.047   6.045   2.908  0.2481 -0.2649  0.2524
12238W        W28132  14.134  15.562   4.948  0.1933  0.0180 -0.0404
12239W        W28133  11.875   0.275   3.562  0.1598  0.1072  0.0941
12240W        W28134  16.009  17.415  12.751  0.1067  0.0440  0.1873
12241W        W28135   3.392  10.927   1.304 -0.0870 -0.0122  0.2029
12242W        W28136  17.810   9.197   2.266  0.0528 -0.2156  0.0505
12243W        W28137   1.811  11.876  12.288 -0.0309  0.1376 -0.2014
12244W        W28138   8.920  13.882  12.699  0.1668  0.0007  0.0459
12245W        W28139  17.226   0.216  13.566 -0.1446 -0.1876 -0.1499
12246W        W28140   2.710  17.848   3.984 -0.3252 -0.0148  0.0503
12247W        W28141   4.458  16.182  13.184 -0.0402 -0.2507 -0.1906
12248W        W28142   2.289  13.294   1.625  0.3565  0.1778  0.2010
12249W        W28143  12.228  12.480   0.844 -0.0783 -0.2136  0.0440
12250W        W28144  11.489  15.317   2.992  0.0242 -0.0456 -0.0735
12251W        W28145  11.985  13.521  14.770 -0.3824  0.1009 -0.3585
12252W        W28146   2.506  12.914   1.904 -0.3598 -0.2257 -0.4251
12253W        W28147  10.869   6.671   4.514 -0.1626 -0.1625 -0.1230
12254W        W28148  12.423   1.434   3.763 -0.1514  0.0472  0.2639
12255W        W28149   8.532   9.391   2.247 -0.1497 -0.1396  0.2209
12256W        W28150   0.136  11.423  11.518 -0.1229 -0.1003  0.2648
12257W        W28151   1.397   1.437  11.264 -0.2029 -0.2836 -0.2234
12258W        W28152   3.156   8.360  11.534  0.2665 -0.0269  0.1771
12259W        W28153   3.362   0.037   1.166  0.0923  0.0830 -0.1970
12260W        W28154   5.048   0.409   1.299  0.2600  0.0387 -0.0715
12261W        W28155   1.448  18.325  14.990 -0.0781 -0.0165  0.1402
12262W        W28156   9.390   4.022  10.812  0.0108 -0.2336 -0.0126
12263W        W28157  16.847   8.594  15.089 -0.0978  0.2430 -0.1621
12264W        W28158  10.976  14.736  11.953  0.3681 -0.2272 -0.3868
12265W        W28159  14.008  15.426  14.249 -0.3015 -0.3411  0.0867
12266W        W28160  18.320  12.606   2.428 -0.2605  0.0840 -0.0412
12267W        W28161  14.303   6.869   2.496  0.0808  0.0619  0.0104
12268W        W28162  16.403  18.562   1.018 -0.1102  0.2593  0.2846
12269W        W28163  10.618  12.553   5.736 -0.3816  0.1838 -0.2105
12270W        W28164   6.871   0.148   0.972  0.0425  0.1212  0.1311
12271W        W28165  11.624   0.560   1.338  0.2499  0.1845  0.0261
12272W        W28166  11.800  18.326  14.175  0.1720  0.0759  0.2069
12273W        W28167   2.179   1.471   1.714  0.3089  0.1650  0.1600
12274W        W28168   1.681   7.203  12.749  0.1573  0.2435 -0.2263
12275W        W28169   4.476   2.375   9.656  0.3266 -0.2617 -0.3961
12276W        W28170  14.020  10.490   5.163  0.0203 -0.5200 -0.0444
12277W        W28171  16.519  18.809  14.630 -0.0708 -0.0114  0.1821
12278W        W28172  11.739   6.213  11.245  0.1624  0.1654 -0.1373
12279W        W28173  15.166   8.559  12.987 -0.3838  0.0466  0.0995
12280W        W28174   2.735  10.487  12.479  0.0355 -0.3654 -0.0122
12281W        W28175   8.018  10.328   2.183  0.1453 -0.2213 -0.0789
12282W        W28176  18.317   4.638  11.933 -0.1632  0.0850 -0.2492
12283W        W28177  17.391   5.075  15.452 -0.3483 -0.2023  0.0129
12284W        W28178   0.994  18.077  14.871 -0.1088  0.4715  0.1695
12285W        W28179   6.210  10.879   4.853  0.1529 -0.0082  0.0926
12286W        W28180   6.637  12.126  10.748 -0.1278 -0.2200 -0.0856
12287W        W28181  11.905  17.454   0.355 -0.1669 -0.0694  0.3381
12288W        W28182   5.275  13.594   2.697 -0.2154  0.2302  0.0037
12289W        W28183  17.634   1.070   3.375 -0.0223 -0.2495 -0.2485
12290W        W28184   0.606  16.265   2.321  0.3122  0.1165  0.0494
12291W        W28185   8.497  18.356   4.388  0.0620 -0.2701  0.0877
12292W        W28186   2.319  17.493  14.618 -0.1148  0.2325 -0.2963
12293W        W28187   3.745  10.240  11.652 -0.0665 -0.4622 -0.2687
12294W        W28188   7.311  16.918  13.551 -0.3436  0.1761 -0.0272
12295W        W28189   4.840  16.989  11.330 -0.0108  0.0603  0.2719
12296W        W28190  13.176   1.444   5.860 -0.1721  0.2081 -0.0017
12297W        W28191  12.977  11.291  12.122 -0.1657 -0.1342 -0.1658
12298W        W28192  14.879   5.378  10.855 -0.1740  0.0180 -0.2700
12299W        W28193   4.118   0.158  12.867  0.0366  0.1294  0.0510
12300W        W28194   9.531  16.852   1.977 -0.0514  0.0684  0.0868
12301W        W28195   0.758   1.150   1.517  0.1629  0.0194 -0.1202
12302W        W28196   8.131  14.289   1.618  0.2230  0.2315 -0.2045
12303W        W28197  15.325  10.296  11.932  0.1955  0.3491  0.2450
12304W        W28198  16.093   7.628   2.126  0.1346 -0.0297  0.1213
12305W        W28199   5.574  18.817  11.483  0.2628 -0.0950 -0.0120
12306W        W28200   0.155   2.753  14.167 -0.1253  0.2427  0.1030
12307W        W28201  13.496   7.750   2.528 -0.0131 -0.0228 -0.1765
12308W        W28202  18.402  10.537  13.840  0.3150  0.2076  0.3449
12309W        W28203  18.358  14.134  13.431  0.2421  0.5341  0.1420
12310W        W28204   5.550   5.450  14.074  0.1338 -0.0114 -0.2209
12311W        W28205   4.030   1.777  15.458  0.1113  0.0165  0.0252
12312W        W28206   3.623   6.225  12.468  0.1352  0.0917 -0.3085
12313W        W28207  17.514   8.144   1.567  0.0141  0.0101 -0.0356
12314W        W28208   8.846  15.911  12.140  0.1546  0.0540  0.1278
12315W        W28209   2.317   2.511   1.128  0.1038  0.1120  0.2424
12316W        W28210  15.495   4.153  13.879 -0.0324  0.0426 -0.1651
12317W        W28211  10.698  17.992  11.703 -0.1585 -0.0042 -0.1563
12318W        W28212  13.417   4.461  13.607  0.0970 -0.0837  0.2729
12319W        W28213   5.699  11.646   2.023  0.1151 -0.0531 -0.3252
12320W        W28214  15.074  18.757   1.388  0.0357 -0.1341  0.0264
12321W        W28215  17.685  17.814  11.560 -0.2369 -0.2770  0.2838
12322W        W28216  16.374   5.024   5.213 -0.0175 -0.0856 -0.0295
12323W        W28217  11.643  11.481  12.060  0.0200  0.5042 -0.0855
12324W        W28218  14.943  10.650  14.597 -0.1369  0.1552  0.0671
12325W        W28219  11.550   8.269  10.938  0.2248  0.3668 -0.0634
12326W        W28220  11.001  15.759   2.982 -0.3258  0.0309 -0.1448
12327W        W28221   2.284  18.001  14.227 -0.0004 -0.1111  0.0295
12328W        W28222   2.540   3.123   2.992  0.1851  0.1318 -0.0863
12329W        W28223  16.986   0.052   0.566  0.0567  0.0287 -0.0122
12330W        W28224   9.069  17.145   0.829 -0.0530 -0.2701  0.0229
12331W        W28225   6.687  11.676   1.486 -0.1592  0.0384 -0.3302
12332W        W28226   2.255  17.931   4.399  0.0204  0.1184 -0.3514
12333W        W28227  10.732  11.405   3.661 -0.0882  0.3307  0.0481
12334W        W28228  16.233   1.605  15.063  0.0642 -0.2891  0.1092
12335W        W28229   6.536   6.233   1.218  0.1423 -0.2897  0.1978
12336W        W28230   0.066   9.818  13.375 -0.0519  0.0302 -0.0418
12337W        W28231   2.095  12.787   2.844 -0.1047  0.1313 -0.2958
12338W        W28232  10.559  11.893  12.590 -0.2123  0.3482 -0.0449
12339W        W28233  12.442  13.868   3.125  0.0309  0.1000  0.3421
12340W        W28234  11.078   6.500   0.531 -0.0639 -0.0417 -0.2532
12341W        W28235   8.102  17.336   3.246  0.0047  0.0516 -0.2830
12342W        W28236   2.399  15.467   0.315  0.0337  0.3107 -0.2039
12343W        W28237  18.662  10.112  14.985  0.0023 -0.0253 -0.3753
12344W        W28238   5.469  10.131   4.459  0.2575  0.0264 -0.1227
12345W        W28239   9.936   8.179   1.181 -0.3227  0.0111 -0.0081
12346W        W28240  18.242  11.026  13.414 -0.0599  0.2168  0.1955
12347W        W28241  14.487   0.906  12.946 -0.0043 -0.0282  0.0821
12348W        W28242  17.714  12.468  10.953 -0.0072 -0.0596  0.1775
12349W        W28243  11.459  10.628   0.052  0.0600  0.2985  0.1495
12350W        W28244   7.789  12.705   1.326 -0.1446  0.3937 -0.1386
12351W        W28245   3.093   9.519   0.870 -0.0837  0.2394 -0.0912
12352W        W28246   8.211   8.502  12.456  0.4185  0.1493 -0.0760
12353W        W28247   2.842  12.031   0.554  0.0418  0.0885  0.0997
12354W        W28248   4.561   1.934   5.455  0.0294 -0.3151 -0.0540
12355W        W28249   8.390  14.702  15.170 -0.0325  0.3214 -0.4316
12356W        W28250   2.856   0.044  14.483  0.1784  0.3151 -0.0788
12357W        W28251   6.726   0.765  14.251 -0.0203  0.0713 -0.0042
12358W        W28252   3.980   3.523   0.211  0.0759  0.3634 -0.1354
12359W        W28253  11.207   1.953  10.672 -0.0641 -0.2896 -0.0346
12360W        W28254  13.288  16.029   4.782 -0.0508  0.3562  0.0836
12361W        W28255   3.358  12.213   4.306 -0.1008  0.2168  0.1062
12362W        W28256   0.495   4.941  11.793 -0.0936 -0.0558 -0.0879
12363W        W28257   2.035  18.470   2.663 -0.0302  0.2186  0.0489
12364W        W28258  15.117  12.612   5.215 -0.1106 -0.0572  0.0070
12365W        W28259   7.659   7.844   3.335  0.1575 -0.2879 -0.0439
12366W        W28260   8.992  10.097  12.594  0.2983  0.1947  0.0062
12367W        W28261   5.686  18.586  10.485 -0.1298  0.1129  0.2074
12368W        W28262   4.218   8.311  11.530 -0.1655  0.2367  0.2836
12369W        W28263   4.888  18.405   0.930 -0.1304 -0.0535 -0.2214
12370W        W28264  13.321  18.313   3.216 -0.0280 -0.3384  0.2119
12371W        W28265   9.806  15.004  12.885  0.1721 -0.0685  0.0839
12372W        W28266   7.003  13.458   2.469 -0.0118 -0.4229 -0.2114
12373W        W28267   3.570  11.962  14.750  0.1948  0.1602 -0.3366
12374W        W28268   3.383  10.910   2.417 -0.0136 -0.0685 -0.3023
12375W        W28269  15.141   5.479   2.824  0.1042 -0.3914  0.2303
12376W        W28270  15.499  15.868   1.343 -0.1458  0.1117  0.1955
12377W        W28271   8.528   0.142  13.992  0.0297 -0.2934 -0.3760
12378W        W28272  12.952   5.380  14.650 -0.0965  0.1644 -0.2210
12379W        W28273   5.490   1.503   2.285 -0.0632  0.0213 -0.0490
12380W        W28274   6.633   4.308  12.845 -0.0398  0.3208  0.0850
12381W        W28275  11.063   4.017  11.084  0.3230  0.1574 -0.0466
12382W        W28276   1.860   9.732   0.379  0.1193  0.2821  0.1658
12383W        W28277  18.533  18.347   5.679 -0.1103 -0.1822 -0.1337
12384W        W28278  16.627   7.451  13.416 -0.0178 -0.0015  0.1014
12385W        W28279   7.849   0.088   5.788  0.2565  0.2883  0.0281
12386W        W28280   1.891  13.562   0.226 -0.1241  0.2209 -0.3630
12387W        W28281   4.787   3.357  12.089 -0.1794  0.4090 -0.0240
12388W        W28282   4.585   9.332   0.743  0.0999 -0.3051  0.1366
12389W        W28283  13.361   1.144  13.582 -0.1457  0.2189 -0.0609
12390W        W28284  11.615   9.565   4.975  0.3567 -0.2989 -0.2105
12391W        W28285  11.682  18.776  14.198 -0.0170  0.2700 -0.1199
12392W        W28286  10.401   5.228  11.057  0.1375  0.2796 -0.0223
12393W        W28287   4.665   8.124   4.090  0.0815 -0.2149 -0.2672
12394W        W28288  13.615   3.607   5.316 -0.0487  0.0586 -0.0571
12395W        W28289   8.636   8.833   0.877  0.2118 -0.1427  0.2106
12396W        W28290  15.091   9.047   1.179  0.1127 -0.0901  0.0188
12397W        W28291   2.477  16.190   3.349  0.1073  0.1046  0.2978
12398W        W28292   8.653  12.116   0.106 -0.0398 -0.0456 -0.1278
12399W        W28293  11.580  17.295  15.350 -0.1385  0.2017  0.1326
12400W        W28294  17.397   9.957  15.026  0.2364  0.3961  0.1789
12401W        W28295   1.737  16.226   2.255  0.2315 -0.3131 -0.1793
12402W        W28296  11.025  13.153  14.908 -0.0211 -0.3534  0.0449
12403W        W28297   0.645  12.710   2.325  0.1706  0.2587  0.0038
12404W        W28298   0.351  16.832  15.264  0.2652 -0.3102 -0.0599
12405W        W28299   7.103   5.929  14.214  0.0086 -0.1261  0.1973
12406W        W28300  10.144   9.274  13.204  0.2413 -0.2922 -0.2318
12407W        W28301  10.502   3.904  11.753  0.0504  0.5237 -0.2348
12408W        W28302  13.103   1.561  11.912 -0.4749 -0.0639 -0.1692
12409W        W28303   8.347  15.864  13.199 -0.1839  0.2714  0.0363
12410W        W28304  14.018   9.105  11.571 -0.0974  0.1470  0.3750
12411W        W28305   2.617   6.405  13.590  0.0900  0.2662 -0.0782
12412W        W28306   6.689   6.223  15.158  0.0546 -0.1142  0.0724
12413W        W28307  10.992  12.235  13.754 -0.2091 -0.1475  0.1389
12414W        W28308   7.993   3.278   3.843  0.2724  0.0115  0.2323
12415W        W28309   8.092  13.221   0.484 -0.2322  0.2439 -0.1234
12416W        W28310   5.580  14.072   4.527  0.0216 -0.2849  0.0191
12417W        W28311  10.470   9.481  14.080  0.4465 -0.2010 -0.1224
12418W        W28312   3.481   0.738   0.355 -0.0943  0.1488 -0.1537
12419W        W28313   9.647   0.098  13.221  0.1169  0.1216 -0.0704
12420W        W28314   7.125  11.786   3.738  0.0449 -0.0225  0.3275
12421W        W28315  11.159  14.763   0.020 -0.0505  0.2474  0.1431
12422W        W28316  17.349   6.717   3.410  0.2106  0.0900  0.1033
12423W        W28317  12.009  13.206  12.050 -0.0952 -0.0386  0.0277
12424W        W28318   5.495  15.273  15.402 -0.1917 -0.3543 -0.2279
12425W        W28319  17.150   2.376  13.841 -0.0543 -0.0558 -0.0012
12426W        W28320   4.054   5.213   0.997 -0.0379 -0.3230 -0.0724
12427W        W28321   4.007  10.126   1.907 -0.2138  0.0149  0.0838
12428W        W28322  13.063   7.651  14.549 -0.0233 -0.0640  0.1501
12429W        W28323   0.745   8.427  15.123 -0.0636  0.3087 -0.2206
12430W        W28324  15.188   8.827  15.032 -0.2519 -0.0614 -0.0195
12431W        W28325   4.643   7.810  11.660  0.3252  0.0091 -0.4144
12432W        W28326   6.228   2.114  12.507  0.1233  0.2608 -0.2984
12433W        W28327   6.304   4.564   1.811  0.0024  0.3109  0.2361
12434W        W28328  11.627  18.595   5.680  0.1348 -0.1934  0.0013
12435W        W28329   2.056  12.231   3.860  0.2225 -0.3198 -0.0837
12436W        W28330   6.333   1.312  14.794 -0.0295 -0.1568  0.0610
12437W        W28331  17.583  13.553  11.588  0.1576 -0.2228  0.4479
12438W        W28332   7.634   6.366  12.625  0.1965  0.0992  0.1997
12439W        W28333  15.371   3.174   5.510 -0.1325  0.0024  0.0291
12440W        W28334   7.895   4.499  11.705  0.0446  0.2550 -0.1747
12441W        W28335   6.076   4.484  10.349 -0.1854 -0.0298  0.0850
12442W        W28336  16.972  11.505   2.168 -0.1525 -0.1373  0.4494
12443W        W28337   1.658   1.432  14.931 -0.1647 -0.2586 -0.3093
12444W        W28338  11.849   9.756   1.372 -0.0181  0.1598  0.1176
12445W        W28339  13.377   6.717  13.640  0.1755  0.0455  0.0241
12446W        W28340   1.134   8.197  11.515 -0.0008 -0.1240 -0.3239
12447W        W28341   0.407   4.499  14.572  0.2630  0.2538 -0.3250
12448W        W28342   9.018  11.135  10.980 -0.0321  0.1510  0.0578
12449W        W28343  18.633   5.303   2.226 -0.1397 -0.4242 -0.2160
12450W        W28344  10.237   6.401   0.243  0.5210 -0.0467  0.0127
12451W        W28345   2.587  13.386   4.175  0.1914 -0.2712 -0.1737
12452W        W28346  18.507   9.932   3.516 -0.3122 -0.0108 -0.2438
12453W        W28347   8.276   1.234   4.203 -0.1695  0.4229 -0.0209
12454W        W28348  11.422   6.492   0.107 -0.3468 -0.2262  0.1723
12455W        W28349  14.401  13.359   1.435  0.1236 -0.0618  0.0865
12456W        W28350   4.317   2.419  13.826 -0.0641 -0.0174  0.1500
12457W        W28351  10.035  10.732   3.923  0.3966  0.2369 -0.0141
12458W        W28352   4.757  16.985   0.880 -0.1086 -0.1238  0.1111
12459W        W28353   8.238  15.009  12.756 -0.4487  0.3183  0.0294
12460W        W28354  10.804   4.425   4.547 -0.1846  0.2149  0.1059
12461W        W28355   5.784  15.412  14.170 -0.1402 -0.0304 -0.0626
12462W        W28356   0.857   2.606   4.985 -0.2023  0.3766  0.2576
12463W        W28357   2.803   2.253  13.366 -0.0043  0.3160 -0.0348
12464W        W28358  10.645   9.711   2.539 -0.0319 -0.2311  0.4978
12465W        W28359   9.594   0.788  14.909 -0.1010 -0.1007  0.3583
12466W        W28360  13.057   6.208  11.390 -0.3551  0.0114  0.0498
12467W        W28361   7.666   2.890   0.272 -0.3397  0.0077  0.1225
12468W        W28362  18.429  13.297   1.906  0.2887  0.0813  0.1400
12469W        W28363  11.904   5.319  12.195  0.0146 -0.1421  0.2101
12470W        W28364  17.302  15.834  11.274  0.0089  0.2014 -0.1281
12471W        W28365  14.328   9.356  13.947 -0.0079  0.5345 -0.0055
12472W        W28366   9.664   5.084   1.734 -0.1527  0.2346  0.0141
12473W        W28367  18.400  11.439   2.158 -0.2356 -0.1891  0.2100
12474W        W28368  14.738   6.475   1.691 -0.0679 -0.0312 -0.3545
12475W        W28369  12.155  18.258   4.958  0.3476  0.4485  0.0406
12476W        W28370  14.392  18.747   0.382 -0.3938 -0.0545 -0.1287
12477W        W28371  17.000   2.913   2.029  0.1883  0.1069  0.2959
12478W        W28372   1.200  16.880   9.630 -0.0076  0.1320 -0.1169
12479W        W28373   0.953   6.544  11.807 -0.0061 -0.0852  0.1417
12480W        W28374  15.292  14.634   1.075  0.1244 -0.2949  0.0853
12481W        W28375  10.848   6.887   2.440  0.0995  0.1068 -0.4455
12482W        W28376  10.018   9.693   0.792  0.0152  0.0715 -0.1691
12483W        W28377  18.753   1.077  12.746  0.3527  0.1684 -0.0377
12484W        W28378   2.910   7.396   2.320 -0.0439  0.1144 -0.0080
12485W        W28379   5.570   3.129   4.854 -0.1471  0.1213  0.0777
12486W        W28380   5.274   9.914   2.880  0.0655 -0.0661 -0.0546
12487W        W28381   8.044  18.009  15.293 -0.2836  0.1598 -0.2851
12488W        W28382   4.105   1.469  14.078  0.3818 -0.2282  0.2692
12489W        W28383  13.083   8.871  15.088 -0.1751  0.0265 -0.3517
12490W        W28384  11.156  16.250   4.605 -0.0025  0.0086  0.0047
12491W        W28385  18.262   4.640  14.864 -0.2252  0.1827  0.1698
12492W        W28386   4.204   7.813  13.667  0.2769  0.0003  0.2984
12493W        W28387   2.970  17.081   0.714  0.0676  0.3741  0.1355
12494W        W28388  17.111  11.404   3.411 -0.0432 -0.0912 -0.1533
12495W        W28389   9.295   9.454   0.468  0.0488 -0.0302 -0.0091
12496W        W28390   6.660   6.126  13.000 -0.0610  0.0511 -0.2735
12497W        W28391   3.168  17.894   4.291 -0.1839  0.2169 -0.1477
12498W        W28392  17.571  18.448   5.744 -0.1702 -0.1781 -0.2959
12499W        W28393   9.066  11.901   4.893  0.2277 -0.0947  0.3815
12500W        W28394  15.636  16.537   5.046  0.0704 -0.0106 -0.0360
12501W        W28395  13.910  16.983  13.565  0.1993 -0.0627 -0.2264
12502W        W28396   9.013  11.438  12.000 -0.0650 -0.2155  0.0436
12503W        W28397  10.691  13.206  13.546  0.0162  0.1034  0.0138
12504W        W28398  11.493   6.213   4.189  0.0402 -0.2520  0.0444
12505W        W28399   1.124   7.457   2.286  0.3332 -0.2803  0.0913
12506W        W28400   6.332  15.124  14.742  0.0797 -0.0236 -0.1124
12507W        W28401  12.030  15.863  12.716 -0.0924 -0.2479 -0.2065
12508W        W28402   6.006   8.990  11.396 -0.2979 -0.2685 -0.0926
12509W        W28403  11.768  13.895  12.250 -0.1628 -0.0479  0.0991
12510W        W28404   9.225  10.314   0.348 -0.2657 -0.4187 -0.1401
12511W        W28405   3.549   5.636  11.410 -0.3879 -0.0537  0.0102
12512W        W28406   5.710  12.339  12.404  0.1493 -0.0262 -0.5488
12513W        W28407   2.365   4.934  15.275  0.0319 -0.1464 -0.3337
12514W        W28408   9.399   9.627  11.883 -0.2211 -0.2435  0.1463
12515W        W28409  10.254   2.298   2.005 -0.0700 -0.1319 -0.0740
12516W        W28410  11.655   7.382  14.555  0.3903  0.0654  0.0312
12517W        W28411  14.642  13.322   2.956 -0.2508 -0.3004  0.2971
12518W        W28412  15.318   3.110   5.020 -0.0049  0.0914  0.0705
12519W        W28413  11.583   5.779   2.594  0.4209  0.1500  0.1030
12520W        W28414   4.899  17.300   0.447  0.1664  0.0444 -0.0198
12521W        W28415   1.757  18.485  12.534  0.0486 -0.0891 -0.1213
12522W        W28416  17.910   2.619   2.419 -0.4724  0.0793  0.0591
12523W        W28417   4.843  16.572  13.724 -0.0445  0.1806  0.1308
12524W        W28418   2.155   3.656   3.797 -0.2332 -0.0487  0.1643
12525W        W28419  17.259  17.511   3.331 -0.0262  0.3698  0.1430
12526W        W28420   0.484   7.355   1.152 -0.0823 -0.0789  0.1388
12527W        W28421  12.272  15.666  14.075 -0.2199 -0.0582 -0.0498
12528W        W28422   9.883  16.830   2.725  0.0182  0.1256  0.0167
12529W        W28423  16.172   4.378  12.960 -0.0431 -0.0141 -0.3167
12530W        W28424  18.655   1.687   1.054 -0.1517 -0.0033 -0.1427
12531W        W28425   2.242   2.719   4.849  0.1590 -0.1480  0.0553
12532W        W28426   8.144   9.348   4.856 -0.2064 -0.1476 -0.0770
12533W        W28427  18.120   0.278  12.206  0.2705 -0.0490  0.0966
12534W        W28428  11.125  18.464   2.089 -0.0347  0.0453 -0.1143
12535W        W28429   3.234   7.183   1.264  0.0451  0.0684  0.0782
12536W        W28430  13.233   4.212  15.416  0.1847 -0.0896 -0.0801
12537W        W28431   3.405  11.396   1.044 -0.0296 -0.0531 -0.2735
12538W        W28432  17.406  15.594  12.783  0.0505 -0.0457  0.0417
12539W        W28433  17.012   2.583   9.786  0.0144  0.1394  0.0547
12540W        W28434  12.531   6.449  11.221  0.0853  0.1496  0.0304
12541W        W28435   6.000   3.632  13.977  0.1460 -0.1321 -0.0297
12542W        W28436  16.377   8.208   1.347 -0.0707  0.0898 -0.0764
12543W        W28437  14.820  10.612   1.329 -0.0995 -0.0547  0.0782
12544W        W28438  10.063  18.169  11.068  0.1097 -0.0160 -0.3010
12545W        W28439   0.209  15.343   4.792  0.1165  0.1486 -0.2125
12546W        W28440   5.827   4.363   0.050 -0.2900  0.0963  0.0617
12547W        W28441  18.023  15.206  12.450 -0.1357 -0.3708  0.2303
12548W        W28442   0.317   7.198  14.917  0.2608 -0.0769 -0.1339
12549W        W28443   3.984   7.397   0.167  0.0086 -0.1361  0.1870
12550W        W28444   8.400  14.794  14.175  0.1054 -0.4176  0.2632
12551W        W28445  11.427   5.138   4.633 -0.0298  0.0188 -0.2437
12552W        W28446   9.023   1.027   1.885  0.1483 -0.0676  0.0871
12553W        W28447  13.069   6.981   1.276  0.4206  0.2670  0.2584
12554W        W28448   4.649   9.408  12.712 -0.0846  0.0426 -0.0250
12555W        W28449   4.966  15.263   0.090 -0.1152  0.0313 -0.0664
12556W        W28450  13.162  17.828   3.856 -0.2512 -0.0208  0.1586
12557W        W28451  15.087  13.300   0.966 -0.1969 -0.2727  0.2421
12558W        W28452   4.090   4.218   1.299 -0.1490  0.1998  0.2002
12559W        W28453   4.101  16.527   2.882  0.2118 -0.1938 -0.3444
12560W        W28454   0.414  16.266  13.623  0.4744 -0.2748 -0.1534
12561W        W28455   8.965   5.083   3.022 -0.4149 -0.1003  0.0761
12562W        W28456   3.618  18.146  11.013  0.1465  0.1008  0.1642
12563W        W28457   0.341  17.825  11.103 -0.1886 -0.2552 -0.1848
12564W        W28458  17.810  18.198   1.380  0.1431  0.0296  0.1872
12565W        W28459  15.643   3.307  14.074 -0.2264  0.2070  0.0466
12566W        W28460   7.132   6.172   4.929  0.4017 -0.1392  0.0204
12567W        W28461   2.575   4.918   1.865 -0.0783  0.2369 -0.1024
12568W        W28462  13.725  18.862  13.999 -0.1076 -0.0536  0.2418
12569W        W28463   9.417  17.808   5.333 -0.1638  0.1478 -0.3029
12570W        W28464   2.990  15.752  13.813 -0.0719 -0.1704  0.1260
12571W        W28465   5.844   4.966   4.871  0.2010  0.2187  0.1655
12572W        W28466   0.558  11.731  11.550 -0.1949  0.1285  0.1636
12573W        W28467   2.684   6.798  15.038 -0.1099  0.1439  0.0301
12574W        W28468   9.847  13.092   4.298  0.1378 -0.0166  0.0172
12575W        W28469   9.129  15.798   2.953 -0.0559 -0.0290  0.1756
12576W        W28470   4.052  15.955   3.434 -0.0327 -0.0971  0.0716
12577W        W28471  13.200  12.211   5.402 -0.2449 -0.1053  0.0560
12578W        W28472   0.488  12.478   1.540 -0.1399 -0.0822  0.4109
12579W        W28473  14.070   9.399   2.767  0.0571  0.1780  0.1894
12580W        W28474   8.265   5.574  12.350  0.0420 -0.1206  0.0226
12581W        W28475   1.921   1.992  11.775 -0.0161  0.2176 -0.0876
12582W        W28476   3.885  16.191  10.796 -0.4053  0.0479  0.2205
12583W        W28477   7.280   8.228   4.189 -0.2827  0.0859  0.4206
12584W        W28478  17.990   9.376  13.130  0.2955 -0.1366 -0.2270
12585W        W28479  13.760  17.562   5.360  0.0476 -0.0830 -0.3023
12586W        W28480   5.081   5.060   4.975  0.0754 -0.0630 -0.0203
12587W        W28481  17.202  14.194   4.201 -0.1632 -0.0063 -0.5099
12588W        W28482   4.818  17.842   1.969  0.1955 -0.0859  0.0631
12589W        W28483   3.391  16.873   3.484 -0.1074 -0.0739  0.1076
12590W        W28484  13.242   6.170   3.156  0.2278 -0.0149 -0.1199
12591W        W28485  13.370   5.173  14.494 -0.1330 -0.0664 -0.4564
12592W        W28486   0.631  18.114  13.065  0.1691  0.1628  0.2752
12593W        W28487  12.225  12.042   5.208  0.1222 -0.1043  0.0364
12594W        W28488   7.591  13.513   0.512 -0.2641 -0.2078 -0.1267
12595W        W28489  12.712   7.822   1.700  0.0145  0.0481 -0.2907
12596W        W28490   7.159  16.259   3.835  0.1231  0.2299  0.1235
12597W        W28491  10.125  12.038  12.290 -0.0841  0.0821 -0.1487
12598W        W28492   8.762   0.980  11.614 -0.0698 -0.0648  0.2368
12599W        W28493  14.740   2.006   9.992 -0.0905  0.0011  0.0165
12600W        W28494   2.933   9.751   4.727 -0.2267  0.0233 -0.1924
12601W        W28495   5.669   1.380  15.335  0.0503  0.0738  0.0028
12602W        W28496  17.394   8.112   9.962  0.0597  0.2160  0.0517
12603W        W28497   2.388   6.159  10.465  0.2244 -0.0849 -0.2348
12604W        W28498   5.181   2.921   3.183  0.0445 -0.0671 -0.1449
12605W        W28499  14.529  14.611   5.049 -0.0172 -0.0378  0.1373
12606W        W28500  18.095  15.206  11.893 -0.5178  0.0363 -0.1449
12607W        W28501  10.913  12.227   3.875  0.1199  0.1513 -0.3940
12608W        W28502  12.493  13.512   2.580  0.4195  0.0967 -0.0433
12609W        W28503  13.415   0.486   3.078  0.1647 -0.1735  0.1247
12610W        W28504  13.367  12.226   2.139 -0.0164  0.1588 -0.0614
12611W        W28505  12.305   8.393  11.639 -0.0567  0.2416  0.0640
12612W        W28506  13.069  11.650   1.371 -0.0321 -0.0412 -0.1655
12613W        W28507   1.103   9.915  12.408  0.1053  0.1119 -0.0112
12614W        W28508   3.677  10.477  13.756 -0.1226 -0.1887 -0.0550
12615W        W28509  14.177   0.652   0.138  0.0607  0.1707  0.6813
12616W        W28510   2.328   8.122   5.062 -0.0619 -0.2377 -0.0312
12617W        W28511   2.075   7.376  14.512 -0.0128 -0.1290 -0.0209
12618W        W28512  11.190  10.197   0.026 -0.0914  0.0245 -0.1869
12619W        W28513   8.568  16.814  15.090  0.2116  0.3843 -0.0101
12620W        W28514   4.739   4.482   1.693  0.1533 -0.1852 -0.1348
12621W        W28515  18.239  14.266   2.119  0.1075 -0.0055  0.2388
12622W        W28516   0.205   8.837  10.843  0.2141 -0.0564 -0.1545
12623W        W28517   6.247   7.118   4.006 -0.3105  0.1602 -0.4579
12624W        W28518   4.906   6.330   5.298 -0.0559 -0.0203  0.0734
12625W        W28519  13.751  15.373  11.873 -0.0650 -0.0324  0.1686
12626W        W28520   5.902   1.910  12.169  0.1543 -0.0278 -0.2417
12627W        W28521   3.453  13.434   2.782 -0.2555 -0.1879  0.1588
12628W        W28522   8.653   5.286  12.011 -0.0083  0.1067 -0.0894
12629W        W28523   5.897   0.582  12.406 -0.0241 -0.1437 -0.3026
12630W        W28524   9.618  13.513  14.341  0.1141 -0.0787 -0.2740
12631W        W28525   3.596   8.448   1.675 -0.2578  0.1218  0.1215
12632W        W28526   3.107  18.448   3.522  0.0683 -0.2064  0.0793
12633W        W28527   2.250  16.843  11.840 -0.4029 -0.0808  0.0917
12634W        W28528   0.073  13.055   9.379  0.1171 -0.0536  0.1073
12635W        W28529   5.131   3.259   2.512  0.1289 -0.0831 -0.0722
12636W        W28530   9.330   9.814  13.799 -0.0419  0.1577 -0.1764
12637W        W28531  13.867   7.736  15.209  0.2421  0.0434 -0.2119
12638W        W28532  11.994   4.520  12.147 -0.2100  0.0358 -0.2072
12639W        W28533  17.385   3.311   2.028  0.4102 -0.3168 -0.0822
12640W        W28534   0.255   5.213  13.060 -0.1326 -0.2264 -0.3002
12641W        W28535   5.043   2.419   0.852 -0.0039 -0.2022 -0.0121
12642W        W28536  14.966  14.439  11.457  0.2674  0.2246  0.1453
12643W        W28537  10.853   2.205  12.614  0.0575  0.0855 -0.2798
12644W        W28538   2.878   5.427  13.708  0.0181 -0.1647 -0.1061
12645W        W28539   5.313  18.401   1.693 -0.0229 -0.2334  0.2215
12646W        W28540   7.680   6.494   3.568 -0.0866  0.0155  0.1992
12647W        W28541  13.844   7.593   1.993 -0.3057  0.1975 -0.0931
12648W        W28542   6.792   1.528   3.359  0.0212  0.1412  0.0613
12649W        W28543  11.428  12.696   2.708  0.0823  0.1018  0.0659
12650W        W28544  13.552  14.660  12.583  0.0596  0.1685  0.2393
12651W        W28545   3.363   0.998   4.576 -0.0510  0.3820 -0.2776
12652W        W28546  17.282  13.497   0.526 -0.1796 -0.1209  0.2707
12653W        W28547   6.146   4.743   0.217  0.2611 -0.2097  0.2893
12654W        W28548  15.312  18.215   2.325  0.0383 -0.2178 -0.2763
12655W        W28549   2.673   2.632   5.798 -0.0237  0.2026  0.3044
12656W        W28550   1.671   1.764  13.926  0.1403 -0.0997 -0.0508
12657W        W28551  18.287  15.921  14.829  0.0455  0.0139  0.0527
12658W        W28552   5.576   2.643   4.528  0.2126  0.0612  0.2388
12659W        W28553   8.810   8.449   1.086  0.0768  0.1168 -0.1338
12660W        W28554  13.805   7.509  12.221 -0.2706 -0.0221 -0.0398
12661W        W28555  12.864  12.620   5.686  0.3323  0.1471 -0.1943
12662W        W28556   5.283   8.829   1.149 -0.4273  0.1898  0.1548
12663W        W28557  17.233  13.811   2.617  0.3118 -0.0665  0.0655
12664W        W28558   4.790   2.903  13.090  0.2078 -0.2265  0.3889
12665W        W28559   4.591   2.567   4.393  0.0471  0.3471  0.1728
12666W        W28560  11.298   4.837   4.159  0.5894 -0.1744 -0.4064
12667W        W28561   4.582  17.075   4.665  0.2162 -0.1057  0.1663
12668W        W28562   9.653  14.079  12.195 -0.0612 -0.3309  0.1488
12669W        W28563   9.037   5.499   9.896 -0.1295 -0.2057  0.0694
12670W        W28564   8.706  18.522   5.348  0.0623 -0.0395 -0.1308
12671W        W28565   3.945   7.255   3.334  0.0901 -0.6309  0.2072
12672W        W28566  12.687   7.179   4.106 -0.0362 -0.0971  0.1958
12673W        W28567   1.237   3.556   1.554  0.0175 -0.1573  0.1034
12674W        W28568  11.566   9.246  11.282  0.2559 -0.0786  0.0999
12675W        W28569  16.710  14.043  12.666 -0.1474 -0.3302  0.2299
12676W        W28570   0.334   3.160   9.710 -0.1114  0.1217 -0.0814
12677W        W28571   7.909   9.565   3.493  0.0411  0.0417 -0.0772
12678W        W28572   1.179  18.719  10.938 -0.0100 -0.0005 -0.2352
12679W        W28573   6.243  15.703   3.859 -0.1861  0.2040  0.1328
12680W        W28574  16.514   1.263  10.635  0.0613 -0.0906  0.2847
12681W        W28575  11.467   6.538   0.934  0.2096 -0.1896  0.2672
12682W        W28576  17.549  14.449   1.332 -0.0987 -0.3773  0.1181
12683W        W28577   8.790  17.576  15.153 -0.1681  0.0018 -0.2220
12684W        W28578   7.481  17.148   0.322  0.2308 -0.4303 -0.2772
12685W        W28579  11.466  17.273  11.961 -0.0998  0.0433 -0.1037
12686W        W28580  16.456  15.480  13.082  0.0760 -0.0152 -0.0741
12687W        W28581   1.644  11.701  11.454  0.0089 -0.3360 -0.3025
12688W        W28582  12.408   3.120  11.524  0.4089 -0.0736  0.1506
12689W        W28583   3.244  12.576  13.056 -0.1026  0.1211  0.2113
12690W        W28584   9.866   0.789   1.119 -0.0668  0.3765 -0.0935
12691W        W28585   0.798  12.816   0.030  0.0743 -0.2172 -0.2226
12692W        W28586   8.712   1.561   3.449  0.1300 -0.0791 -0.1450
12693W        W28587   4.611  13.722  14.878 -0.0981  0.0687 -0.1509
12694W        W28588  11.367   2.211   1.219 -0.2153 -0.0144  0.2002
12695W        W28589   2.388   8.067  13.483  0.1325  0.1952 -0.0209
12696W        W28590   2.837  11.702  11.537  0.3441  0.2109  0.0960
12697W        W28591   4.234   4.553   0.401  0.1842  0.0655 -0.2018
12698W        W28592  12.160   8.824   4.745  0.0547  0.0621  0.1068
12699W        W28593  13.942  15.422  14.794 -0.0855 -0.0062  0.0273
12700W        W28594   4.263   7.259   2.478  0.4195  0.3027 -0.1565
12701W        W28595   2.014  11.727   5.635  0.2702 -0.3055 -0.0412
12702W        W28596  14.894  16.714   3.139  0.0195 -0.2924  0.1065
12703W        W28597   1.202  11.572   2.982  0.2665  0.3876  0.0820
12704W        W28598   9.856   2.788   5.258 -0.0307 -0.0539  0.0258
12705W        W28599  15.462   7.566  11.913  0.2471 -0.2427 -0.2894
12706W        W28600   5.223   6.157  14.164  0.0702 -0.1309  0.0222
12707W        W28601   5.308  11.922  13.145  0.0202  0.0139  0.1105
12708W        W28602   3.960  17.663  14.043  0.0199 -0.0951  0.0323
12709W        W28603   9.549  15.968   4.837 -0.0354  0.2003  0.0173
12710W        W28604   5.955   3.612  14.881 -0.2222 -0.1643  0.1958
12711W        W28605   8.782   7.902   4.655 -0.0074  0.0534 -0.3032
12712W        W28606   4.485  10.408  15.373 -0.2362  0.1107 -0.0793
12713W        W28607  11.636  16.885   2.232 -0.2501  0.3489 -0.0163
12714W        W28608  16.616  11.866   0.919  0.2117 -0.0839  0.1374
12715W        W28609   9.151  11.367  15.299 -0.0603 -0.1077  0.0452
12716W        W28610   1.111  13.805  14.729  0.2883 -0.3574 -0.1778
12717W        W28611   0.493  15.760   2.442 -0.2586 -0.1880 -0.1252
12718W        W28612   6.174  11.705  14.428 -0.0655 -0.1876  0.0466
12719W        W28613   5.113  13.154   1.378  0.4051  0.1622  0.0474
12720W        W28614   0.144   3.967   0.923  0.1021 -0.0559  0.2368
12721W        W28615   9.304   8.580  10.017 -0.1646  0.3632  0.0086
12722W        W28616  13.736   4.556   2.177  0.3306  0.2321 -0.1467
12723W        W28617  10.687  11.901  11.476  0.2133  0.3258  0.0224
12724W        W28618   1.324   5.720   0.115 -0.3802 -0.1824  0.0587
12725W        W28619   8.121  16.230  11.823 -0.0203  0.2596 -0.1856
12726W        W28620   0.736   2.694  11.764  0.1027  0.0780  0.3457
12727W        W28621   3.672  17.027   0.277 -0.1494  0.1909 -0.1821
12728W        W28622   1.166   4.143   4.383  0.1545 -0.0150 -0.0122
12729W        W28623  10.793  16.894   5.627  0.0471  0.0685 -0.1082
12730W        W28624  12.511   6.593  13.727  0.0552  0.3635  0.1688
12731W        W28625   6.130  12.184   3.616 -0.0506 -0.2396 -0.1536
12732W        W28626  13.552   2.538   4.874 -0.2617  0.1934 -0.0181
12733W        W28627  13.739  18.042   5.750  0.1568 -0.2011  0.2865
12734W        W28628   6.431  16.132  14.522 -0.0656 -0.1493 -0.0568
12735W        W28629   2.730   2.233  11.293  0.1908 -0.0703 -0.0350
12736W        W28630  17.907   3.700  13.410 -0.2253  0.2709  0.4553
12737W        W28631  12.616  18.326   2.768 -0.2012 -0.0756  0.1127
12738W        W28632  14.122   8.478  13.367  0.1634  0.0865 -0.0968
12739W        W28633  15.280   3.486  12.477 -0.2043 -0.1104 -0.3029
12740W        W28634   6.380  17.084   2.797 -0.0790 -0.2514 -0.0313
12741W        W28635  18.081   8.045  15.435  0.2699  0.0343  0.0679
12742W        W28636  10.121   2.021   0.651  0.1845 -0.1205 -0.2233
12743W        W28637  17.896   2.423   1.989 -0.2011  0.2269  0.1312
12744W        W28638   2.124   0.342   2.638 -0.2214  0.0617 -0.1090
12745W        W28639  13.482   6.788   1.047 -0.5688  0.1678  0.0769
12746W        W28640   8.070  12.226   2.737  0.0594  0.1454  0.2758
12747W        W28641  15.208   3.205  14.392 -0.0235  0.0458 -0.4383
12748W        W28642   5.976   4.369  10.862  0.2564  0.0119 -0.5455
12749W        W28643  17.494  17.483  11.888 -0.0631  0.1805 -0.1997
12750W        W28644   1.116   2.386   0.385 -0.2958 -0.0275 -0.2081
12751W        W28645  16.675   4.936   4.839  0.0984  0.0998  0.2079
12752W        W28646  18.677  17.760  11.773  0.2285  0.0600  0.0294
12753W        W28647   1.714  10.339   2.459 -0.1508  0.3024 -0.2129
12754W        W28648  11.841   9.309   0.102 -0.2175  0.0949 -0.0374
12755W        W28649   5.486   5.582  14.968  0.1480  0.0555  0.1183
12756W        W28650  14.339   2.326   2.728 -0.1697 -0.1480 -0.5174
12757W        W28651   7.014  14.668   0.797  0.1115  0.1572 -0.1153
12758W        W28652   8.519  16.051  13.893  0.0691  0.0137  0.0083
12759W        W28653  16.482  17.926   3.573  0.2282 -0.1496 -0.0887
12760W        W28654   4.346   5.513   2.937  0.0013  0.0492  0.1841
12761W        W28655  15.550   2.617   4.821  0.1842  0.1785 -0.0648
12762W        W28656   3.474  13.538  14.101 -0.0793  0.1124  0.0568
12763W        W28657   9.673  14.103  15.225  0.1865  0.0556 -0.2533
12764W        W28658  18.357  15.646   1.199  0.1517 -0.0919 -0.0102
12765W        W28659   7.707   3.910  13.950  0.2589 -0.1044  0.0616
12766W        W28660  10.526  18.842   0.180 -0.1375  0.0667 -0.1131
12767W        W28661  14.658   3.755  15.107  0.2175  0.2072 -0.1128
12768W        W28662  15.677   1.260   3.673  0.0187 -0.0673  0.1388
12769W        W28663  15.597  11.705   2.551 -0.3086  0.4610 -0.1314
12770W        W28664  13.284  12.965   5.913  0.1861 -0.0423  0.0321
12771W        W28665   3.982  14.244   5.042 -0.1935 -0.1414 -0.1397
12772W        W28666  16.274  11.189  14.059  0.4008 -0.2006  0.1147
12773W        W28667   2.368   1.986  13.199  0.3039 -0.0527 -0.1075
12774W        W28668   8.920  18.289  14.477 -0.1370  0.1073  0.2361
12775W        W28669   5.154   0.736  14.900  0.2116 -0.0782  0.0243
12776W        W28670   5.014  14.807   5.527 -0.2066  0.3981 -0.0873
12777W        W28671   1.690   5.548  10.591  0.0484 -0.1814  0.2304
12778W        W28672   3.579  13.914   2.717 -0.1375 -0.1532  0.0359
12779W        W28673   8.403   1.110   3.686  0.2549 -0.1011 -0.1979
12780W        W28674   9.677  10.489  14.878 -0.1169 -0.1365 -0.1090
12781W        W28675  17.879  11.407   1.542  0.2276  0.0801  0.0599
12782W        W28676   7.749   9.130   3.682 -0.1653  0.1087 -0.2826
12783W        W28677  12.993  12.071  15.334  0.3734 -0.0535  0.2479
12784W        W28678   9.597   4.461   2.638  0.0433  0.1248 -0.1556
12785W        W28679   7.701  16.114   3.287  0.1370  0.2690 -0.0107
12786W        W28680  10.659  14.814  10.430  0.3706  0.0600 -0.0126
12787W        W28681   6.971   6.765  10.700 -0.1695  0.2235  0.2397
12788W        W28682  14.767  12.831   2.699 -0.0883 -0.4820 -0.1945
12789W        W28683  15.431  17.705   0.985 -0.1300 -0.0758 -0.0036
12790W        W28684  10.887  15.568  13.578 -0.1429 -0.3386 -0.4372
12791W        W28685   8.566   0.089   1.835 -0.0259 -0.3118 -0.0738
12792W        W28686  13.212   9.661  13.047  0.1523  0.1839 -0.0206
12793W        W28687  12.822  14.542   3.552  0.0395  0.4180 -0.1881
12794W        W28688   4.179   2.889  13.947  0.0288  0.1050  0.1432
12795W        W28689   1.417  18.524   1.336 -0.1244 -0.0158 -0.4355
12796W        W28690   6.182   5.776   1.232 -0.2484  0.1016  0.5743
12797W        W28691  10.157   2.115   5.993 -0.0721  0.1182 -0.0713
12798W        W28692   9.238  10.432   1.338  0.0137 -0.1493  0.2578
12799W        W28693   0.966   7.927   2.295 -0.3432 -0.0534  0.4418
12800W        W28694   7.228   7.907   0.961 -0.1356  0.0318 -0.4313
12801W        W28695  17.475   7.402   1.354  0.1509  0.1096 -0.0875
12802W        W28696   1.633  14.692  13.167 -0.1877  0.1145 -0.2450
12803W        W28697   9.022   6.267   0.142  0.1324 -0.0077  0.2445
12804W        W28698   1.885   2.932   2.413 -0.1867 -0.1526 -0.1878
12805W        W28699  12.197   3.840  15.244 -0.2701 -0.2308 -0.2345
12806W        W28700   3.477  15.958  12.927  0.2628  0.3042 -0.1997
12807W        W28701   3.315  16.206  15.069  0.0484  0.1377  0.2893
12808W        W28702   2.201  18.785   4.062  0.2704  0.0818 -0.1544
12809W        W28703   5.414   6.000   3.694 -0.0459 -0.0094 -0.2273
12810W        W28704   4.553  14.820   6.422  0.0491 -0.3499  0.1246
12811W        W28705  11.396   8.300  14.445 -0.1027  0.0576 -0.3208
12812W        W28706   6.909  15.045   4.926 -0.2185  0.0478 -0.4088
12813W        W28707  17.478   3.413   0.617  0.0977  0.1130 -0.0714
12814W        W28708  10.335   5.488  12.167  0.0960  0.2344 -0.0616
12815W        W28709   2.719   7.163  11.434 -0.1318  0.0034 -0.2086
12816W        W28710  14.131  12.364   2.233  0.0682  0.1144  0.0217
12817W        W28711  15.343  16.880   1.207  0.3515 -0.1584  0.0225
12818W        W28712  12.978   2.258  11.932  0.0808 -0.1506 -0.1061
12819W        W28713   3.105   9.793  12.015  0.3174  0.0489 -0.0427
12820W        W28714   0.325   2.472   1.533 -0.1665 -0.1112  0.2781
12821W        W28715   2.448   2.290  13.945 -0.0859 -0.2989  0.0923
12822W        W28716  11.765  18.678  11.717  0.0040 -0.4051 -0.2084
12823W        W28717  16.964  13.538   3.269  0.1044  0.0329 -0.2885
12824W        W28718   0.206  16.592   1.589 -0.0330 -0.1923  0.0634
12825W        W28719  15.008  12.740   3.981 -0.0462 -0.1182 -0.0477
12826W        W28720   6.562   6.626  13.467 -0.1381  0.1430  0.0194
12827W        W28721   9.254   7.909  10.943  0.0696 -0.2092  0.1546
12828W        W28722   7.584   0.524   3.114  0.0484  0.0689  0.0305
12829W        W28723   5.769   6.597  11.907 -0.4455 -0.0268 -0.1705
12830W        W28724  17.323   3.107  11.846  0.1301  0.1208 -0.2935
12831W        W28725   4.000   8.650   2.493 -0.2877 -0.0883  0.2481
12832W        W28726  13.834  13.616  13.811 -0.0175 -0.1852 -0.0229
12833W        W28727   1.983   1.007   3.416  0.2620 -0.1522  0.0278
12834W        W28728  11.734   3.114  12.857 -0.2341  0.1084  0.1183
12835W        W28729   3.792   4.802   0.793  0.2569 -0.2521  0.0587
12836W        W28730  18.757   1.234  11.121 -0.3200 -0.3788  0.2972
12837W        W28731  15.639  10.194  14.967 -0.0027 -0.2209  0.0128
12838W        W28732  12.362   9.319   3.606  0.0719 -0.3827 -0.2201
12839W        W28733  10.884   5.380   1.885 -0.0654 -0.2308 -0.0739
12840W        W28734  14.379   0.573   4.324  0.2010 -0.2037  0.1186
12841W        W28735   5.621   5.101  14.961  0.1451  0.1682  0.1242
12842W        W28736  11.802  12.361  11.838 -0.0527  0.0941  0.2365
12843W        W28737   4.109  10.123  13.952 -0.0334  0.3109 -0.0340
12844W        W28738  16.997  14.335   3.610 -0.1689 -0.0263  0.2149
12845W        W28739   7.715   9.753  12.764 -0.0874  0.0024 -0.0076
12846W        W28740   7.229   7.667  14.149  0.1288 -0.0400 -0.0340
12847W        W28741   5.125  13.904   0.911  0.0228  0.2337 -0.3802
12848W        W28742  12.169   1.338   2.712  0.1802  0.1077 -0.0650
12849W        W28743  18.233  12.963   3.807 -0.0757  0.3534  0.2344
12850W        W28744  16.780   0.981   1.748 -0.0216  0.2821 -0.2892
12851W        W28745  11.961   9.800   3.028 -0.1239  0.3468  0.1882
12852W        W28746  14.259   7.126  12.164  0.0328 -0.3171 -0.0747
12853W        W28747   6.113  10.044  14.386 -0.1353 -0.0338  0.0921
12854W        W28748  13.649   4.206   1.184  0.0119 -0.2325 -0.1633
12855W        W28749   0.779   0.127  10.892  0.0123 -0.2506  0.0650
12856W        W28750  11.602  10.895  11.198  0.1079 -0.1667  0.0966
12857W        W28751  10.406  18.521  12.257  0.1851 -0.2191 -0.1702
12858W        W28752  10.841  15.310  14.353  0.1279  0.2723  0.0878
12859W        W28753  10.694  16.171  14.738 -0.1608  0.2339  0.0750
12860W        W28754  12.861  10.105   3.996  0.2044 -0.2818 -0.2053
12861W        W28755  14.921  12.315  11.522  0.0608  0.0385 -0.2462
12862W        W28756  16.071   3.279   5.655  0.0757 -0.0456  0.0647
12863W        W28757   9.491   2.104   3.770  0.0158  0.0017  0.1162
12864W        W28758   7.300   6.439   0.339 -0.2381  0.0605 -0.0375
12865W        W28759   2.076  17.415   0.909 -0.2045  0.2907 -0.1793
12866W        W28760  11.312   4.046   2.993  0.1341  0.1174 -0.1870
12867W        W28761  10.462  13.949  12.799  0.1366  0.1196 -0.0713
12868W        W28762   8.255  12.811  13.241 -0.2449  0.4093  0.1668
12869W        W28763   0.237   9.466  14.541 -0.1618  0.0328 -0.3433
12870W        W28764  14.885  14.757  13.454  0.0309  0.1607 -0.0492
12871W        W28765   8.500  17.249  12.986  0.1550 -0.0087  0.0568
12872W        W28766  12.683  14.276   3.135  0.1355 -0.1541 -0.2447
12873W        W28767   0.417   9.607   5.815  0.0029  0.0568  0.0413
12874W        W28768   0.140   5.032  12.586 -0.2682  0.1505 -0.2301
12875W        W28769  17.393   2.439   1.290  0.1055  0.2807  0.0445
12876W        W28770  10.790   7.488  10.087  0.2706 -0.2461  0.2047
12877W        W28771   2.530  11.245   1.792 -0.0736  0.3693  0.0775
12878W        W28772   1.553   0.265  11.732  0.0166  0.0659  0.0251
12879W        W28773  12.614  14.322  13.634 -0.1721  0.1470  0.1433
12880W        W28774  17.212  15.157   3.383  0.0687 -0.0496  0.3148
12881W        W28775  16.621   4.159  11.141 -0.0617 -0.2521  0.0327
12882W        W28776  13.607  13.715  14.370  0.0893  0.0115  0.0099
12883W        W28777  18.359  14.517   3.497 -0.0629  0.0094  0.2489
12884W        W28778  16.749   4.864  13.428 -0.4068 -0.0680 -0.2438
12885W        W28779  16.861   6.076  11.108  0.3897 -0.0923  0.1556
12886W        W28780   4.322   0.255  15.418  0.1052  0.2446 -0.0511
12887W        W28781  18.815   2.884  12.189  0.2404 -0.0611 -0.0875
12888W        W28782  14.895   3.468  14.726 -0.1332  0.2179 -0.1169
12889W        W28783  18.390  18.724   4.218  0.0705 -0.2129 -0.1305
12890W        W28784   6.979   3.078  11.178  0.1159 -0.2758 -0.1552
12891W        W28785  10.317   8.769  14.651 -0.1224  0.2278  0.2189
12892W        W28786  16.998  14.627   1.369  0.3862 -0.3021  0.1241
12893W        W28787   8.991  13.472  14.161 -0.2152 -0.0175 -0.3158
12894W        W28788   1.163   0.677   3.293 -0.3996 -0.1356  0.1297
12895W        W28789   9.901   4.926   3.135  0.0162  0.2217 -0.1348
12896W        W28790  12.179  14.123   0.550 -0.3343 -0.2274 -0.1512
12897W        W28791  15.037   9.468  13.839 -0.0879 -0.0472 -0.2220
12898W        W28792   6.571   1.478  12.960  0.2175 -0.0208 -0.1192
12899W        W28793   0.398  18.123   2.732  0.0830  0.0260 -0.0777
12900W        W28794   5.400  11.853  10.663  0.2945 -0.2018  0.0564
12901W        W28795  13.555   8.261   4.825 -0.0413  0.1570 -0.1882
12902W        W28796  13.227  16.674   3.310  0.3805 -0.0443  0.0503
12903W        W28797   8.159   9.081   2.023 -0.3527  0.0374 -0.2713
12904W        W28798   6.683  14.855   3.489  0.1284 -0.0803  0.1414
12905W        W28799   6.378   0.212   0.958  0.0274  0.1683  0.1218
12906W        W28800   0.220   1.558  11.149 -0.3846  0.1756  0.1070
12907W        W28801  10.194   2.795   2.159  0.0057 -0.1246  0.2714
12908W        W28802  18.396   3.184  15.210  0.1258  0.2068  0.2404
12909W        W28803  18.210  13.515   4.533  0.0219  0.0252 -0.1615
12910W        W28804   6.091   7.427  14.641  0.5141 -0.0504 -0.0784
12911W        W28805  18.870  15.715   5.020 -0.0784 -0.0204 -0.2681
12912W        W28806   4.076  13.480   3.458  0.2040 -0.1381 -0.0422
12913W        W28807  18.447  17.032   0.066 -0.1564 -0.0872 -0.2918
12914W        W28808   7.080  11.663   2.352 -0.0269 -0.0717 -0.1781
12915W        W28809   6.384  18.387   1.178  0.3467  0.0269  0.0373
12916W        W28810  16.044   9.977   4.853 -0.1065  0.0428 -0.2323
12917W        W28811  12.106   2.160  11.258  0.3712  0.2913  0.0685
12918W        W28812   4.729  15.506   3.922 -0.3241 -0.0925  0.5322
12919W        W28813   1.532   9.775  14.093 -0.1426 -0.0755  0.2662
12920W        W28814   4.579   1.808  10.970 -0.0074 -0.0242 -0.0062
12921W        W28815   9.415  18.167  13.670  0.0699 -0.0629 -0.2860
12922W        W28816  15.239  13.723  10.966 -0.0598  0.1585  0.0120
12923W        W28817   5.081   8.290   2.002 -0.1222 -0.0285  0.0656
12924W        W28818   5.261   1.036  13.354  0.2091  0.2088 -0.3757
12925W        W28819   8.689  13.866   2.111 -0.1950 -0.0929 -0.0256
12926W        W28820   8.395  14.305   2.049  0.1614  0.2244 -0.4512
12927W        W28821   0.837   2.742   2.974 -0.0499  0.1394  0.4053
12928W        W28822  10.529   6.306  15.344  0.0070  0.0838  0.1138
12929W        W28823  10.240  18.607  13.245 -0.1077  0.1232  0.0317
12930W        W28824   5.597  13.524  13.249  0.3263 -0.0179  0.0007
12931W        W28825   6.811   7.242   0.249  0.1684 -0.2721 -0.2812
12932W        W28826  16.042   8.967  15.085 -0.2159  0.0546 -0.2653
12933W        W28827   8.978  10.526   3.925  0.0326  0.0677  0.1409
12934W        W28828  17.610  17.994  13.315 -0.0687 -0.0390  0.1972
12935W        W28829   7.858   1.074  13.635  0.1232 -0.0546  0.1613
12936W        W28830   4.074   2.545  12.413 -0.1969  0.2603  0.0095
12937W        W28831  11.985  13.304   5.956  0.0758 -0.1640  0.1239
12938W        W28832  12.842   5.470   3.334  0.0298 -0.2873 -0.3674
12939W        W28833   7.106   7.115   3.392 -0.0605 -0.1261  0.1265
12940W        W28834   4.102  15.575  15.414  0.1693  0.1867 -0.2777
12941W        W28835   6.099   4.451  13.764  0.1062 -0.2455  0.2364
12942W        W28836  10.535   0.567  12.774 -0.4946  0.2154  0.0315
12943W        W28837  10.482   5.570   0.413  0.0738  0.3251 -0.1291
12944W        W28838  17.825   4.102   4.347  0.0119 -0.0893  0.2583
12945W        W28839  17.647  14.999  12.095 -0.1976 -0.2115 -0.0152
12946W        W28840   7.155  13.504  11.635 -0.0913 -0.0103  0.2982
12947W        W28841  18.424  16.378  13.682  0.4078  0.1877  0.0640
12948W        W28842  18.455  15.998   2.504  0.1610 -0.2441  0.2445
12949W        W28843  13.880  13.604  15.079  0.0106  0.3627 -0.2119
12950W        W28844  17.077   9.118   4.430 -0.1102  0.0547  0.1825
12951W        W28845   1.407  12.681   3.482 -0.1197  0.1517  0.4822
12952W        W28846  17.439   9.618  11.115  0.0612  0.0793  0.0065
12953W        W28847  14.552  10.659  13.539  0.2295 -0.2569 -0.2533
12954W        W28848  18.459   1.126  15.367 -0.1845 -0.0843  0.1613
12955W        W28849   4.099  13.348   1.522 -0.3766  0.3278  0.2314
12956W        W28850   8.017  14.346  10.670 -0.0057 -0.1370  0.0177
12957W        W28851   9.686   4.397  11.580  0.2208 -0.1624 -0.2189
12958W        W28852  15.643   4.411  12.958 -0.1478 -0.0991  0.1038
12959W        W28853  17.515   4.552  13.069 -0.1251 -0.0211  0.0205
12960W        W28854  10.671   2.595  10.996  0.0067 -0.0111 -0.2694
12961W        W28855  16.468   4.437  12.167 -0.0556  0.0258 -0.1617
12962W        W28856  15.852   1.352  13.130  0.2130 -0.0859 -0.2516
12963W        W28857   5.271   2.069   0.551  0.1093  0.1798  0.0948
12964W        W28858   3.347   5.938  14.949  0.2177 -0.1509 -0.0121
12965W        W28859  14.041  11.395   4.658  0.3834 -0.0309  0.3233
12966W        W28860   5.839  10.536   3.259 -0.2852  0.1350  0.3347
12967W        W28861  14.716   1.068  14.889 -0.1955 -0.0047  0.2492
12968W        W28862   2.383  10.267   3.494  0.1348 -0.0493 -0.0986
12969W        W28863  11.842  10.339   5.145 -0.0801 -0.2404  0.1664
12970W        W28864  13.135   2.949   0.974  0.1424  0.1652  0.1590
12971W        W28865  10.515   9.269  12.732  0.2710  0.1461  0.1976
12972W        W28866  12.011   0.805   6.135  0.0383 -0.0219  0.1049
12973W        W28867  15.823  14.331  13.726 -0.0501 -0.1764 -0.3534
12974W        W28868   2.849  18.312  13.702  0.2361  0.2767  0.2537
12975W        W28869   3.582   8.983   9.490 -0.0770 -0.0656 -0.0347
12976W        W28870  11.020  12.042  12.824 -0.0978 -0.3294 -0.0375
12977W        W28871   2.332   0.720   4.541  0.0028 -0.0395  0.3200
12978W        W28872  16.989  11.001  11.346 -0.0333  0.0076 -0.3640
12979W        W28873   7.417   3.457  13.646  0.0475 -0.0419  0.2429
12980W        W28874  18.781   5.787   0.253 -0.1617  0.1181  0.1440
12981W        W28875   1.758  12.902  12.459 -0.0491 -0.3454 -0.1555
12982W        W28876   2.304   0.084  14.460 -0.0281 -0.0345 -0.1201
12983W        W28877   0.942  16.699   4.317 -0.0835 -0.2192  0.2320
12984W        W28878  10.915  10.774  15.327  0.1245 -0.0261 -0.3118
12985W        W28879   7.424   6.799   3.214 -0.2151  0.1454 -0.0725
12986W        W28880  15.381  10.552  10.790  0.1126  0.1116  0.1140
12987W        W28881  16.485  11.232  11.426 -0.3580  0.5840  0.1108
12988W        W28882  12.990  11.101  11.661  0.0532  0.0021 -0.1385
12989W        W28883   0.108   5.827  13.989  0.2117 -0.4201  0.1792
12990W        W28884  14.294  16.711  14.662 -0.1606  0.0114  0.1497
12991W        W28885  13.745   0.932   2.382 -0.2201 -0.0952  0.2613
12992W        W28886  18.317  10.824  14.960 -0.2515  0.1519  0.0915
12993W        W28887   3.616   9.023   2.793  0.2754 -0.1346 -0.0750
12994W        W28888  15.892  18.753   2.376  0.1648  0.2322  0.2280
12995W        W28889  13.973  16.990   2.992  0.0846  0.2593 -0.2236
12996W        W28890   0.375  18.622  14.427  0.2600  0.2722  0.2164
12997W        W28891  11.935   3.372   4.384 -0.0693  0.0939 -0.2504
12998W        W28892   2.880   4.350  12.172 -0.2649 -0.1494 -0.0386
12999W        W28893   6.211   8.428   3.650  0.1508 -0.2531  0.4484
13000W        W28894   1.227   3.394  15.425  0.0449  0.0341 -0.3905
13001W        W28895  17.648  17.503   4.817 -0.1747  0.3437  0.2215
13002W        W28896   5.283  16.129   4.107  0.3005  0.0595  0.1314
13003W        W28897  11.092  13.880   5.509 -0.3157  0.0427 -0.0534
13004W        W28898   4.088  10.625  15.157  0.4396  0.1385  0.2716
13005W        W28899   2.196   4.177   3.062 -0.0955 -0.1653  0.0109
13006W        W28900  12.427   4.440  12.344 -0.1192  0.1242  0.2649
13007W        W28901  12.231   1.359  12.463  0.0067 -0.2668  0.0214
13008W        W28902  11.116  15.524   3.391 -0.0920 -0.0121  0.1823
13009W        W28903   5.513   8.017   2.733 -0.3077  0.1777  0.2618
13010W        W28904  15.824  14.806  15.464  0.0367 -0.0635  0.2689
13011W        W28905   5.630  15.256  12.187  0.1154 -0.0911  0.2091
13012W        W28906   7.386  14.451  13.722 -0.0036 -0.2901  0.0143
13013W        W28907   1.109   0.301   1.938 -0.1188 -0.1099 -0.0935
13014W        W28908   9.842   2.116   1.042  0.0181  0.2111  0.0411
13015W        W28909  10.542  16.291  12.174 -0.1764 -0.0294  0.3017
13016W        W28910  11.378   4.484  14.111 -0.0449 -0.0363  0.1473
13017W        W28911   7.617  15.298  13.998 -0.0270 -0.0630 -0.2057
13018W        W28912  11.793  14.302  11.086 -0.2630  0.0428  0.1466
13019W        W28913  15.263  16.320   1.886  0.2096  0.1013 -0.0505
13020W        W28914  14.520  13.905  13.337 -0.3033 -0.1555 -0.0477
13021W        W28915   4.616   4.484  12.767  0.2198  0.0977 -0.0673
13022W        W28916   6.886   9.990  12.192 -0.0231  0.1171 -0.1553
13023W        W28917  16.317   8.989   0.755  0.1182 -0.0174  0.0057
13024W        W28918   5.402   8.524   4.039 -0.1792  0.0893  0.0881
13025W        W28919   1.776  16.433  11.985  0.4186  0.1647  0.5436
13026W        W28920  15.128  13.299   1.973 -0.1067 -0.2709  0.2663
13027W        W28921   5.432  11.004   3.419  0.0714 -0.0266 -0.1603
13028W        W28922  18.089   4.870  11.222 -0.1182 -0.1204 -0.4029
13029W        W28923  13.637  14.387   5.291 -0.1007 -0.1757  0.0082
13030W        W28924   6.549   5.666   0.379  0.3168  0.0866  0.0434
13031W        W28925   9.152   2.968   9.905  0.0446  0.0517  0.1733
13032W        W28926  16.233  11.073  11.062  0.0014 -0.0436 -0.3302
13033W        W28927  16.210   8.591   2.091 -0.3477 -0.1039  0.1874
13034W        W28928  10.709  15.509   1.628 -0.4559  0.0987  0.1451
13035W        W28929  12.195   1.808  15.407  0.0726  0.1723 -0.0873
13036W        W28930  17.196  18.377  14.288  0.1082 -0.0108  0.0633
13037W        W28931   3.638  15.077   5.035 -0.1129 -0.1829  0.0066
13038W        W28932  11.634   3.286   5.196 -0.0337 -0.1018 -0.1319
13039W        W28933  11.254  11.803  11.256  0.0750 -0.1366  0.0071
13040W        W28934   9.559  12.771   3.393  0.1546  0.0783 -0.1186
13041W        W28935  12.497   4.369   0.625 -0.0195  0.1679 -0.3784
13042W        W28936  17.947  11.535  14.648 -0.0804  0.0190  0.2753
13043W        W28937  10.302   9.638  14.518 -0.2231 -0.0121 -0.0193
13044W        W28938  17.184   9.327   3.457 -0.0514 -0.1221 -0.2350
13045W        W28939  14.263  13.820   3.328  0.1060 -0.1190  0.0805
13046W        W28940   5.304   4.767   0.807 -0.0164  0.4153 -0.1229
13047W        W28941   4.195  11.065  11.477  0.1636 -0.2532 -0.0975
13048W        W28942  10.000  11.515  10.861  0.2826 -0.0601 -0.3611
13049W        W28943  11.579   9.075  14.760  0.0720 -0.1772 -0.0452
13050W        W28944  10.209  10.835  10.666 -0.2388  0.0633  0.2783
13051W        W28945  14.165  14.022   4.562  0.1960  0.0081 -0.2670
13052W        W28946   6.059   7.135   1.445  0.1582  0.1128  0.0812
13053W        W28947   0.247  14.083   1.982 -0.0021  0.2855 -0.1342
13054W        W28948  10.742   6.037  13.475 -0.0920  0.2230 -0.3762
13055W        W28949  16.749  15.131   3.173  0.1279  0.0534  0.2762
13056W        W28950  15.184   2.691   1.059  0.0645  0.0920  0.0159
13057W        W28951   4.069  12.117   1.376  0.4070  0.1537  0.1654
13058W        W28952   0.129   6.710   2.338 -0.0658 -0.0977 -0.3070
13059W        W28953  17.677   1.040   1.425  0.1958  0.0358 -0.1415
13060W        W28954   4.184   9.467  11.093  0.1046  0.0156  0.2921
13061W        W28955  12.249  10.970   3.519 -0.0584 -0.3210  0.1237
13062W        W28956   0.926   0.947  14.878 -0.1997 -0.0151  0.2662
13063W        W28957   3.517  18.315  11.556  0.1060  0.0567  0.0256
13064W        W28958   9.163   1.466  13.561 -0.0862 -0.1474  0.1186
13065W        W28959   6.909  18.434  14.746 -0.4215 -0.1246 -0.2772
13066W        W28960   1.413  11.165   3.151  0.0441 -0.0744 -0.3490
13067W        W28961   9.149  14.345  13.348  0.0384 -0.2095  0.1946
13068W        W28962   5.543   1.321   2.774  0.2533 -0.0554 -0.1965
13069W        W28963   5.039   8.906   5.037  0.2272 -0.1164  0.2177
13070W        W28964  18.655  13.123  13.514 -0.2993  0.0825 -0.2259
13071W        W28965  10.450   1.368  14.923  0.0993  0.0882  0.0372
13072W        W28966   5.095  14.603  10.957 -0.4730  0.0636  0.1155
13073W        W28967  18.696  17.420   4.546 -0.2913 -0.0079  0.2838
13074W        W28968   6.343   5.457  11.583  0.0113 -0.0737  0.0105
13075W        W28969  16.162   8.708   3.321  0.0856  0.1546 -0.2574
13076W        W28970  13.731  14.005   4.264  0.0258  0.2763 -0.0116
13077W        W28971   9.372   0.561   3.740  0.4071 -0.0566  0.2191
13078W        W28972  12.856  18.868  14.016  0.0272  0.1762 -0.1258
13079W        W28973   6.124   3.526   0.378 -0.2216  0.1883  0.0356
13080W        W28974   8.854  15.474  12.492 -0.0020 -0.1892 -0.0682
13081W        W28975   9.881   3.011  14.439  0.0438 -0.4103 -0.3415
13082W        W28976  15.135   7.788   3.285  0.0956  0.0263 -0.0332
13083W        W28977  11.224   4.494  13.282  0.1224 -0.2934  0.0570
13084W        W28978   9.109   8.667  12.862  0.3065 -0.0277  0.1836
13085W        W28979   4.960   7.743   4.266  0.0265  0.0834  0.0449
13086W        W28980  14.359  18.845  11.851 -0.1786 -0.0334  0.0187
13087W        W28981   3.334  12.777  10.389 -0.1261  0.1092  0.0679
13088W        W28982   3.713   8.697   2.097  0.1759  0.0158  0.1684
13089W        W28983  16.149   4.495   2.519 -0.2599 -0.1606  0.2129
13090W        W28984  17.370   5.632   1.739  0.1790  0.0397 -0.2436
13091W        W28985   1.007   7.472   5.402  0.1398 -0.2116  0.5241
13092W        W28986   8.532  11.043  14.516 -0.0405  0.0593 -0.0054
13093W        W28987   2.627  17.265  10.666  0.0425  0.0303  0.0222
13094W        W28988   9.722  11.390  12.322 -0.0588 -0.1294  0.1745
13095W        W28989   7.389   2.022  14.090  0.0852 -0.4727 -0.4912
13096W        W28990  18.675   8.118  15.296  0.2398  0.3273  0.1655
13097W        W28991   5.413   9.767   5.557 -0.2451  0.0417  0.0532
13098W        W28992   5.725   5.903   4.068  0.4248 -0.5753  0.2038
13099W        W28993   3.481   3.556   3.208 -0.1886 -0.0806 -0.0381
13100W        W28994   1.517   6.595  11.811 -0.0315 -0.1534  0.1558
13101W        W28995   2.722   5.427   3.715  0.0154 -0.0314 -0.1613
13102W        W28996   4.862   7.270   1.680 -0.2174 -0.0097  0.1604
13103W        W28997   8.682   9.994   4.392  0.2107 -0.0902  0.3089
13104W        W28998   0.544   7.235  11.350 -0.3358 -0.3548 -0.1919
13105W        W28999  17.087   3.745  12.968  0.0237 -0.3031  0.1975
13106W        W29000   2.376  18.663   1.900 -0.2820  0.2945  0.2786
13107W        W29001   3.277  16.755   2.571 -0.1236 -0.2360 -0.0738
13108W        W29002   1.593  13.576   2.582  0.1375 -0.4089 -0.2684
13109W        W29003   8.881   2.407   2.871 -0.0225 -0.2577  0.3352
13110W        W29004   0.326   8.329  14.087  0.1332 -0.0366 -0.1446
13111W        W29005   9.596   4.893  12.130 -0.0471  0.0282  0.0424
13112W        W29006  17.119   7.494   0.315 -0.1680 -0.0005 -0.1510
13113W        W29007  13.562   9.705  13.702  0.1038 -0.3639 -0.0746
13114W        W29008   6.443  11.721  12.528  0.2344  0.2150  0.1504
13115W        W29009  13.030  12.583  14.581  0.0543  0.0165  0.0304
13116W        W29010  10.013   1.198   4.600  0.0586  0.3172 -0.1958
13117W        W29011   6.670   5.771   4.900 -0.0941 -0.0789 -0.2438
13118W        W29012  10.998  11.113  11.070  0.0190 -0.1848  0.3685
13119W        W29013   7.114  10.730  11.588 -0.0368  0.0349 -0.1717
13120W        W29014   3.487  11.810   9.683 -0.0383 -0.1012 -0.0065
13121W        W29015   7.471  15.127   5.193  0.4606 -0.1706 -0.0322
13122W        W29016  11.597  11.768   2.311 -0.1713 -0.1398  0.0975
13123W        W29017   6.481   5.875   2.167  0.1136 -0.0475  0.2448
13124W        W29018   7.024  13.875  14.725 -0.0311 -0.0483 -0.0176
13125W        W29019   9.212   7.758   2.888  0.2479 -0.3954 -0.3972
13126W        W29020   1.017   0.560  11.008 -0.1069  0.0886 -0.1549
13127W        W29021   7.487   6.394  11.447 -0.2030  0.1963 -0.1933
13128W        W29022  12.111  15.086  13.944 -0.0027  0.1343 -0.0709
13129W        W29023  14.869   0.494  13.262 -0.1567  0.2917 -0.1122
13130W        W29024  16.055  14.154  14.658  0.4334 -0.1436  0.1692
13131W        W29025  13.987  10.675   2.541 -0.2534 -0.2060  0.1424
13132W        W29026  12.498   1.733  13.560 -0.1705  0.0574 -0.1940
13133W        W29027  16.265  10.762  13.297  0.2596  0.0335 -0.3514
13134W        W29028  14.458   8.107   3.264  0.0614 -0.2227 -0.0861
13135W        W29029  11.658  15.105   5.925 -0.1349  0.1134 -0.4095
13136W        W29030  15.390  18.218   5.291 -0.4137 -0.1417 -0.1804
13137W        W29031  12.431  16.952  12.364  0.3156  0.0778  0.1601
13138W        W29032  12.337  12.337   3.353  0.0656 -0.3638 -0.1695
13139W        W29033   1.812  16.975   4.299 -0.2523  0.0967  0.2070
13140W        W29034  16.426   4.163   3.893  0.1765 -0.2430 -0.2638
13141W        W29035   8.850   6.981   1.087 -0.0241 -0.1791 -0.1924
13142W        W29036  18.812   2.878   0.010  0.0210  0.2592  0.1259
13143W        W29037  16.743   6.507  10.820 -0.0704 -0.1070  0.2180
13144W        W29038  14.372  15.143  10.256  0.0843 -0.0976 -0.1242
13145W        W29039  14.029   6.301  10.586  0.1005 -0.1495 -0.3790
13146W        W29040  11.986  17.036   3.083 -0.0321 -0.2716 -0.2434
13147W        W29041   0.107  14.559  13.131  0.2741  0.0268 -0.2568
13148W        W29042  13.341  15.499   0.529 -0.0400 -0.0458  0.1032
13149W        W29043  17.106   3.663   2.882  0.2208 -0.3051 -0.0571
13150W        W29044   0.860  15.238   3.214 -0.2784  0.5006 -0.2541
13151W        W29045  18.134   8.157  14.049  0.0706  0.0294  0.0092
13152W        W29046  12.222   3.279  15.354 -0.1572 -0.0914 -0.0500
13153W        W29047  15.296  14.982  13.229 -0.0455  0.0623  0.2402
13154W        W29048   0.781  14.283  15.015 -0.0759  0.1604  0.1436
13155W        W29049   4.720   6.990   3.242  0.1103 -0.0811 -0.0073
13156W        W29050  15.791   0.372   3.845  0.1938  0.0749  0.1013
13157W        W29051  14.262  18.745  15.139  0.1226  0.4204  0.1194
13158W        W29052  13.777   4.735   3.792  0.1216  0.2372  0.0167
13159W        W29053   5.807   5.901   2.301  0.1532 -0.1902  0.1392
13160W        W29054   6.162   0.071   1.817 -0.0536  0.4689  0.0894
13161W        W29055   7.532   7.316  13.998  0.0705  0.1370  0.0642
13162W        W29056   2.707   7.988   1.576 -0.0831 -0.0229  0.0351
13163W        W29057   1.617   8.108   3.968 -0.2920  0.3045  0.1099
13164W        W29058   1.307  12.003  13.277  0.0169  0.0054  0.0108
13165W        W29059  17.518  11.856  11.519  0.5324  0.1330 -0.3989
13166W        W29060   9.552  14.447   6.537  0.0820 -0.0994 -0.1934
13167W        W29061  15.654  13.089  14.394 -0.1805  0.4639  0.0523
13168W        W29062   0.574   9.123  10.933 -0.1743 -0.1007  0.3025
13169W        W29063  15.235  17.951  14.176 -0.0679  0.1579 -0.0032
13170W        W29064  18.199  10.037  11.099  0.1733  0.0746  0.3419
13171W        W29065  10.120  11.477  14.976  0.1998  0.0991 -0.2882
13172W        W29066  12.129   3.443  11.811 -0.1093 -0.0133 -0.2083
13173W        W29067  12.678   5.486  11.623  0.0834 -0.3228 -0.1114
13174W        W29068   9.623  11.254   1.350  0.0737 -0.0706  0.1527
13175W        W29069  11.806   5.807   1.790  0.1111 -0.2895  0.1350
13176W        W29070  12.147  15.343   0.905 -0.0752  0.0657 -0.0245
13177W        W29071  15.861  15.088  13.188  0.0447  0.3140  0.4948
13178W        W29072  12.901   0.407   0.918 -0.0058 -0.0156 -0.0694
13179W        W29073   8.126   9.931   4.861  0.1381  0.1945 -0.2260
13180W        W29074  13.082  18.437   5.256  0.1078 -0.0485  0.3709
13181W        W29075   1.672   5.862   1.483 -0.0631 -0.0254 -0.0747
13182W        W29076  11.170   2.397   3.448 -0.1019  0.0956  0.1101
13183W        W29077   6.806  18.073   0.969  0.0179 -0.1463  0.0612
13184W        W29078  16.043   0.955   1.026 -0.0469 -0.0699  0.1265
13185W        W29079  13.737  16.728  12.081 -0.2266  0.0091 -0.1226
13186W        W29080   4.990  18.343   2.443  0.0604  0.1692 -0.0034
13187W        W29081   5.015   5.334  11.346 -0.0823  0.1238  0.1913
13188W        W29082   5.379   3.305   0.977  0.1200  0.1264  0.1785
13189W        W29083   6.761  14.703  13.042 -0.1754 -0.2223 -0.1930
13190W        W29084   0.677  15.248  15.223 -0.0533 -0.0934 -0.0332
13191W        W29085  11.728  16.943  12.307  0.1707  0.1447  0.1041
13192W        W29086  12.833   6.207  12.333  0.0775 -0.1577 -0.1280
13193W        W29087  17.031  13.184  12.323 -0.2725 -0.1859  0.1891
13194W        W29088  16.380  17.768  12.832 -0.1793 -0.0495 -0.1727
13195W        W29089  15.383   9.229  10.687 -0.0798 -0.0810 -0.1776
13196W        W29090  15.246  16.036   0.883 -0.0111  0.1139  0.2379
13197W        W29091   4.788  18.397   1.794 -0.0693 -0.1749  0.1677
13198W        W29092   5.251   0.097   3.895  0.1791  0.0237 -0.1618
13199W        W29093   1.914   7.972   5.570 -0.1377 -0.2856 -0.0818
13200W        W29094   8.086   3.244   2.167  0.1205  0.1950  0.1207
13201W        W29095   8.589  11.886  13.702  0.0277  0.0927 -0.0838
13202W        W29096   8.309  14.927   1.359 -0.2463  0.0311  0.0444
13203W        W29097  17.982  10.763  12.570 -0.1491  0.0419  0.4021
13204W        W29098   7.383   8.952   2.610 -0.1759 -0.0416  0.0792
13205W        W29099   7.841   2.480   9.631 -0.1496 -0.0415 -0.2046
13206W        W29100  16.524  18.509   3.002 -0.1086  0.2861  0.0857
13207W        W29101  14.772   8.508  10.764  0.0583 -0.1936  0.1357
13208W        W29102   8.926  16.333   0.823  0.0583  0.0073  0.2450
13209W        W29103   6.731   7.902   2.108 -0.1838  0.0586 -0.0660
13210W        W29104  12.359   8.980  13.778  0.0532  0.1107  0.4180
13211W        W29105   9.469   2.465  11.583  0.0158  0.1297 -0.2273
13212W        W29106   3.770  13.960   3.363 -0.0505 -0.0743 -0.2605
13213W        W29107   4.187   3.344  12.106  0.1679 -0.0615 -0.0589
13214W        W29108  16.102   4.407   0.533  0.1604 -0.2121  0.2225
13215W        W29109   5.574  16.335   2.728  0.2406 -0.1194 -0.2471
13216W        W29110   5.324  13.994  11.522 -0.0960  0.4121  0.2408
13217W        W29111   0.034  16.195   9.958  0.2280  0.2158 -0.1439
13218W        W29112  11.029   1.775   0.562 -0.0164  0.4387 -0.3953
13219W        W29113   6.377  16.487  12.059  0.1086 -0.1739 -0.0124
13220W        W29114   6.120  18.734   0.729  0.0999 -0.1563  0.0377
13221W        W29115   0.207   7.967   1.662 -0.1756 -0.0356  0.1546
13222W        W29116   7.298   4.606   1.571 -0.1078  0.2168  0.2105
13223W        W29117  10.146   8.036   4.420 -0.2283  0.0892 -0.1130
13224W        W29118  18.271   7.693  14.651  0.1287 -0.0718 -0.1290
13225W        W29119   3.536   5.448  14.655 -0.1910  0.2741 -0.0938
13226W        W29120   1.025   0.573   4.410 -0.2377  0.1862  0.1208
13227W        W29121  16.627   8.326   0.005 -0.3880 -0.3239 -0.2333
13228W        W29122   6.116  14.646  14.663  0.0611  0.0066 -0.2871
13229W        W29123   1.438  10.592  14.731 -0.1712 -0.1749  0.0509
13230W        W29124  10.690  17.072   1.999  0.0468  0.2079  0.1121
13231W        W29125   6.198  11.656  12.088 -0.0132  0.1383  0.0373
13232W        W29126  11.927   6.405   2.544  0.0420 -0.0059 -0.0171
13233W        W29127  12.261  10.170   3.231  0.0468 -0.0090 -0.3534
13234W        W29128   6.661  11.749  13.332  0.1096  0.2518  0.1402
13235W        W29129  16.336   4.450   2.966  0.4130 -0.0190 -0.3365
13236W        W29130   3.907  12.494   1.100 -0.0139 -0.2121 -0.2616
13237W        W29131   7.059  12.799  11.923 -0.2156  0.0948 -0.0102
13238W        W29132  14.373   8.680  11.017  0.3597  0.1380  0.1498
13239W        W29133  16.417  10.663   2.072  0.1571 -0.2621  0.0066
13240W        W29134  11.302  18.120   4.985 -0.0215 -0.3956 -0.1434
13241W        W29135   4.254   5.719   5.945  0.1061  0.1054 -0.0702
13242W        W29136   4.441   4.924   3.621  0.2141 -0.0331  0.2334
13243W        W29137   2.249  15.947   5.053  0.1290  0.1001 -0.0838
13244W        W29138   8.792   1.710  15.245 -0.2019 -0.1777  0.0408
13245W        W29139  16.852   0.211   4.899  0.0056  0.2137 -0.0656
13246W        W29140   6.507   3.030  13.541  0.2198  0.1035 -0.0733
13247W        W29141  12.994   4.802   4.919 -0.2883  0.0440  0.1273
13248W        W29142  16.223   6.192  13.658 -0.1521  0.3229 -0.0368
13249W        W29143   3.290  13.623  12.487  0.2104  0.0718 -0.2578
13250W        W29144  17.316  14.797   3.745 -0.1171  0.1582 -0.0678
13251W        W29145  10.697   4.240   3.624  0.2587  0.0273 -0.1456
13252W        W29146   4.012  11.748  12.890  0.1085 -0.0653  0.0046
13253W        W29147  13.938   7.721   2.805 -0.2023 -0.1315  0.0803
13254W        W29148   0.611  10.987   2.413  0.1457 -0.3556  0.0794
13255W        W29149  15.014  12.749  11.232 -0.2703 -0.0210 -0.1128
13256W        W29150   8.854   5.512   5.220 -0.0148 -0.0596  0.0006
13257W        W29151  17.059  12.640   0.381 -0.1431 -0.1030 -0.0364
13258W        W29152  15.592   8.612   0.339  0.2342  0.2035 -0.0686
13259W        W29153   3.029   1.383  12.958 -0.1773 -0.1942 -0.3412
13260W        W29154  11.914  15.517  12.383 -0.2211  0.1885 -0.2312
13261W        W29155  16.213   2.134  11.148  0.2676  0.1373  0.0069
13262W        W29156   9.885  10.718  12.909  0.2022  0.0070  0.1365
13263W        W29157  16.150   8.295   3.758  0.1058  0.0981 -0.1191
13264W        W29158   6.046  16.079  13.600  0.0469  0.0658 -0.2148
13265W        W29159  12.627   9.900   2.262 -0.3502 -0.1198  0.1433
13266W        W29160  16.509   5.332  10.581 -0.3308  0.0151 -0.1355
13267W        W29161   5.767  13.435   4.330 -0.0258  0.3753  0.0199
13268W        W29162   8.637  14.048   3.018 -0.0931 -0.0857 -0.0058
13269W        W29163  11.992   6.580   3.479  0.1439  0.2434  0.0063
13270W        W29164  10.462   4.974  12.009 -0.1833 -0.0720  0.2729
13271W        W29165  12.708   4.713   2.951  0.1756  0.1293 -0.2471
13272W        W29166   5.070  15.443  11.275  0.1168 -0.2813  0.2261
13273W        W29167   1.975   8.102   3.130  0.0037 -0.1004  0.2515
13274W        W29168   1.173   5.162  13.164  0.0486  0.0075 -0.3089
13275W        W29169  18.107   6.567  11.355  0.0671 -0.0734 -0.3285
13276W        W29170  17.727  14.396   5.413  0.1122  0.1499  0.1338
13277W        W29171  15.027  15.882   4.330  0.0137  0.1691  0.2504
13278W        W29172   7.608  10.624  11.351  0.0559  0.2129  0.0240
13279W        W29173   7.087   5.465   2.597 -0.2273  0.1718  0.0841
13280W        W29174  12.805   1.401  12.291  0.1488  0.1778 -0.2370
13281W        W29175   6.038   5.377  11.190 -0.0188 -0.2545 -0.2055
13282W        W29176   2.263   1.250   4.618  0.3104 -0.1016  0.0837
13283W        W29177   8.086  14.123  13.110  0.0257  0.2709 -0.0461
13284W        W29178   9.698  16.610   3.862  0.1874 -0.2346  0.2689
13285W        W29179  18.194  12.788  10.791 -0.1935 -0.0566  0.1510
13286W        W29180   4.749  10.828  10.908  0.1066 -0.0865  0.1791
13287W        W29181   3.486  10.102  12.898  0.0537  0.1256 -0.1484
13288W        W29182  11.448   8.291   0.283  0.0226 -0.2161 -0.1911
13289W        W29183   7.188   4.394   1.171 -0.0735  0.0620  0.0539
13290W        W29184   8.973  14.838  13.304 -0.1524 -0.0435  0.1366
13291W        W29185  12.691  15.964  15.047 -0.0981 -0.0166 -0.2513
13292W        W29186  17.854   1.072   4.003 -0.0888  0.0311  0.3394
13293W        W29187   7.588  14.054   3.693  0.0392 -0.1680 -0.1222
13294W        W29188  15.301  15.115   4.642  0.2064 -0.0133  0.0154
13295W        W29189  18.823  17.056  11.795 -0.0114  0.0043 -0.0934
13296W        W29190   5.132   9.330  14.899  0.0651  0.0045  0.0426
13297W        W29191  11.095  12.857  13.168  0.0911  0.2187  0.4357
13298W        W29192   6.702   4.858   1.900  0.2153 -0.0813  0.0318
13299W        W29193   5.270   6.111  12.429  0.0341  0.2272 -0.0027
13300W        W29194   4.467   7.752  15.455  0.2559 -0.0341 -0.2923
13301W        W29195   9.012   4.836  11.357  0.1669  0.0465 -0.1115
13302W        W29196   6.075  12.903  14.718  0.0998 -0.1843 -0.1211
13303W        W29197  13.338   2.612  14.471 -0.2542 -0.2436 -0.0412
13304W        W29198   9.931   8.521  13.006  0.4107  0.1013 -0.0859
13305W        W29199   2.607  16.809   4.826  0.3704  0.0307 -0.2090
13306W        W29200   3.628  11.683  11.642 -0.0598 -0.2014  0.1012
13307W        W29201  16.248  18.396   3.844 -0.0596  0.0297  0.3212
13308W        W29202  13.053  10.187   3.289  0.0147  0.1450  0.1545
13309W        W29203   9.723  14.894  11.403 -0.0694  0.1984  0.0079
13310W        W29204   0.862   2.530  13.502  0.1752  0.1913  0.1718
13311W        W29205  16.648  10.788  14.137  0.0383 -0.2021 -0.0185
13312W        W29206   0.829   7.807  12.371  0.1279 -0.0889 -0.0768
13313W        W29207  15.616   3.732  11.103 -0.1182 -0.1252  0.2312
13314W        W29208   4.946  14.617   1.531 -0.2228  0.3021 -0.1011
13315W        W29209   8.821  11.915  10.871 -0.0419 -0.0880 -0.0659
13316W        W29210  11.340  10.208  11.349 -0.0648  0.1694  0.3240
13317W        W29211  15.884  11.378   1.044  0.2334  0.0960 -0.3280
13318W        W29212  16.797   7.404   4.156  0.0006 -0.0324 -0.1535
13319W        W29213  13.477   0.851  11.779 -0.0088  0.0575 -0.0252
13320W        W29214  10.888  18.428   0.833  0.1214  0.0261  0.3369
13321W        W29215  10.980  12.554   0.276  0.2914 -0.1688 -0.0312
13322W        W29216  15.957   9.347  15.445 -0.3034  0.0086 -0.2542
13323W        W29217  17.882  12.695   1.099 -0.0963 -0.2604  0.0758
13324W        W29218  10.523   6.447   1.457  0.1521 -0.2752 -0.0718
13325W        W29219   7.015   2.888  13.702 -0.1753  0.0512 -0.0236
13326W        W29220   4.409  15.001  13.491  0.1099  0.0325  0.2674
13327W        W29221  17.356   1.886   4.334  0.2771 -0.1487 -0.1638
13328W        W29222  14.320   1.010  15.256 -0.3991 -0.0045  0.1154
13329W        W29223   6.712   3.685   3.344 -0.0097 -0.3280 -0.2345
13330W        W29224  15.619  17.748  13.009 -0.0531 -0.1199  0.1833
13331W        W29225  14.953  10.882   4.691  0.2108  0.3071  0.0113
13332W        W29226   6.359   5.995   0.741  0.2384  0.0297 -0.2283
13333W        W29227  13.402  12.605   5.659  0.1400 -0.1867 -0.2004
13334W        W29228   0.915  11.853  12.085 -0.0204  0.0422 -0.0281
13335W        W29229  18.361  18.810   3.284  0.1308 -0.0278  0.1410
13336W        W29230  13.030   2.154   5.372  0.0762  0.1878  0.0990
13337W        W29231  17.089   2.296  14.387 -0.0389 -0.2400 -0.0353
13338W        W29232   5.373  12.145  12.072  0.2736  0.2224 -0.0934
13339W        W29233   9.934   8.254   5.210  0.0291 -0.1828  0.0784
13340W        W29234  10.369  12.547  12.186  0.3637 -0.1656 -0.0135
13341W        W29235  14.700  10.639   3.922  0.2639  0.0902  0.0811
13342W        W29236  16.249  14.317  15.377 -0.1778 -0.0296 -0.2131
13343W        W29237   5.335   6.645  14.069  0.2657  0.1010 -0.1377
13344W        W29238  13.868   6.716  13.335 -0.1837 -0.0325  0.1861
13345W        W29239  17.549   0.735   3.787 -0.1588 -0.1360  0.0704
13346W        W29240   9.317   3.904  12.901 -0.0735 -0.2267 -0.0240
13347W        W29241   5.776   4.630   4.524 -0.2630  0.0373 -0.4513
13348W        W29242   6.968   0.304   3.338 -0.0361  0.0182  0.1054
13349W        W29243  15.583  11.743  12.696  0.1124 -0.1538 -0.0836
13350W        W29244  12.213  11.169   5.409 -0.1501 -0.2298 -0.1813
13351W        W29245   4.649  10.840   2.966 -0.0432 -0.1682  0.0434
13352W        W29246   5.834   7.767  15.057 -0.0869  0.2014 -0.1383
13353W        W29247   0.786  13.883  11.235  0.0757  0.2036 -0.2222
13354W        W29248   9.493   2.674  14.337 -0.0037  0.0646 -0.1833
13355W        W29249  17.206  11.154   1.368  0.0765 -0.5388  0.0979
13356W        W29250  10.136   9.033   3.108 -0.1100 -0.0183 -0.1294
13357W        W29251  10.014  14.310   0.481 -0.3116  0.0393 -0.4203
13358W        W29252   8.652  15.746  10.731  0.1119 -0.0496  0.2302
13359W        W29253  18.830   6.529  13.337  0.0191  0.0758 -0.3593
13360W        W29254  11.572   7.222   1.326  0.0180 -0.1327 -0.0665
13361W        W29255  18.337   5.816   0.503 -0.1088  0.0987  0.1288
13362W        W29256   5.744   1.371   3.652 -0.2050 -0.2354 -0.0743
13363W        W29257  11.671   2.757  12.542 -0.1549  0.0184 -0.0434
13364W        W29258  15.020   6.127   2.867 -0.0595 -0.1173 -0.0544
13365W        W29259  16.393  18.045  11.995  0.0407  0.1980  0.2410
13366W        W29260   9.844   4.305   4.065  0.0955 -0.3481  0.1082
13367W        W29261   8.250   1.717  12.672  0.0929 -0.2822 -0.0793
13368W        W29262  18.427   9.473   3.678 -0.0913  0.2413 -0.1450
13369W        W29263  12.385   6.902   3.773 -0.2022 -0.0618 -0.0084
13370W        W29264   5.779  10.716   3.717  0.1274  0.0016 -0.2052
13371W        W29265   9.943  16.615  15.360  0.0833  0.1380 -0.1912
13372W        W29266   1.496  14.520   2.800 -0.0477  0.1061 -0.0181
13373W        W29267  15.273   1.154  14.871  0.1571 -0.0933 -0.0627
13374W        W29268  11.530   9.019  13.216  0.0062  0.0225 -0.0639
13375W        W29269  15.718  17.687   3.675  0.2129  0.4279 -0.1423
13376W        W29270   7.668  12.706  13.831 -0.2503 -0.0798 -0.2293
13377W        W29271   2.366  10.257  10.267  0.0242  0.3542 -0.3545
13378W        W29272   3.733   8.564  14.679  0.1384  0.2242 -0.0365
13379W        W29273  18.151  11.893   2.250  0.2063  0.1586 -0.0285
13380W        W29274   3.383  14.539  13.399 -0.2580  0.0910  0.4903
13381W        W29275  15.454   4.538   3.910 -0.4436 -0.1775 -0.0781
13382W        W29276   3.497   0.945  10.591  0.3532 -0.2257  0.1745
13383W        W29277   4.919  16.323   5.944 -0.0160  0.0855  0.2925
13384W        W29278  11.798  13.774   6.226 -0.0850  0.1870 -0.1919
13385W        W29279   4.392  18.691   0.862 -0.1371 -0.0694 -0.3476
13386W        W29280   7.261  13.661  10.979  0.1743  0.0507  0.1342
13387W        W29281   2.082   3.137  12.077  0.0325  0.0345 -0.0499
13388W        W29282   9.683   8.860   3.906 -0.1126  0.1838 -0.1367
13389W        W29283   9.477  14.652  10.708  0.1968  0.0290  0.0974
13390W        W29284   2.127   6.926   3.945 -0.0919 -0.0873  0.2016
13391W        W29285  15.413   5.889  14.470  0.1297  0.1270  0.1108
13392W        W29286   8.778  10.140  14.472  0.1499 -0.0272 -0.2628
13393W        W29287   4.547   8.029   2.166 -0.0516  0.1126 -0.2908
13394W        W29288   7.392   3.473   9.578 -0.3174 -0.0343 -0.1759
13395W        W29289  18.557  18.188  12.941 -0.2087 -0.4247 -0.3954
13396W        W29290  13.268   3.273   2.281 -0.0505  0.0772  0.0396
13397W        W29291   2.057  13.511  14.333 -0.1149 -0.0404  0.1290
13398W        W29292  14.085   4.597  15.134 -0.2218  0.0587 -0.2029
13399W        W29293  17.862   6.961  12.678 -0.1732 -0.4652  0.2836
13400W        W29294  15.150  10.769   5.791  0.1274  0.2418 -0.0048
13401W        W29295   3.875   4.613  11.693 -0.2515 -0.1216  0.1713
13402W        W29296  13.217  18.386  15.225 -0.1275  0.3113 -0.4834
13403W        W29297  12.828   6.434  11.758  0.0416  0.1359  0.2917
13404W        W29298  17.795  10.145   3.293 -0.2840 -0.3284 -0.0412
13405W        W29299   2.302  12.426   3.455 -0.2206 -0.3707  0.0358
13406W        W29300   8.518   2.226  11.947 -0.1307 -0.4380  0.2881
13407W        W29301  11.628   8.507   5.367  0.0282 -0.3833  0.2405
13408W        W29302  18.011   1.868  13.881 -0.3408  0.2954 -0.0508
13409W        W29303   9.938   6.830  12.144 -0.3457  0.4327 -0.1131
13410W        W29304   2.742   7.422   4.032  0.1709  0.1587 -0.0455
13411W        W29305  12.382  13.188   5.671  0.5171  0.1337 -0.2580
13412W        W29306   1.387  15.524  10.917  0.0901 -0.1169  0.3130
13413W        W29307  18.715   3.866  11.870  0.0867  0.0386  0.0643
13414W        W29308   5.485  14.308  10.744 -0.1066  0.1479 -0.1101
13415W        W29309  14.927  17.579   4.598  0.2046 -0.0698 -0.2371
13416W        W29310  17.068  17.358  12.230  0.1865  0.2679  0.0182
13417W        W29311   0.224   1.417  12.869 -0.1115 -0.0387 -0.2275
13418W        W29312   1.841   8.556   3.919  0.1977  0.0327  0.3723
13419W        W29313   4.876   5.130   1.620 -0.0776  0.3722  0.0192
13420W        W29314  10.653  11.067   0.279  0.1999  0.0392 -0.2528
13421W        W29315  14.225   6.285   3.429  0.1007 -0.0051  0.1502
13422W        W29316   1.060   8.691  13.762  0.0072  0.1420 -0.0720
13423W        W29317   9.678  12.339  14.606 -0.1300 -0.0640  0.0780
13424W        W29318  13.126   3.457   3.154  0.0754 -0.0539 -0.0363
13425W        W29319  14.283  10.961   3.461 -0.1411 -0.4318  0.1833
13426W        W29320   7.483   4.415   2.727 -0.1828 -0.4709  0.0682
13427W        W29321   9.537  13.383  13.470  0.3082  0.0123 -0.4130
13428W        W29322  15.927   5.565  13.091  0.3076  0.0903  0.0463
13429W        W29323   8.213  11.190  14.166 -0.0948  0.2076  0.0613
13430W        W29324   3.329  15.429  13.077 -0.0762 -0.1937  0.0128
13431W        W29325  14.891   2.120   2.610 -0.1585 -0.0348 -0.3578
13432W        W29326   9.144   0.320   2.357 -0.1058 -0.3928  0.0435
13433W        W29327  13.496   1.628   4.832 -0.1487 -0.0554  0.1338
13434W        W29328   3.107  14.266   1.903  0.3079  0.0094  0.1050
13435W        W29329   9.190   3.833   2.059 -0.1067 -0.0557 -0.3017
13436W        W29330  17.334   9.322  12.998  0.1279 -0.3313 -0.0779
13437W        W29331   2.361   6.325   1.798 -0.2553  0.1469  0.0735
13438W        W29332   5.695  10.796  15.379 -0.1342 -0.1930 -0.0278
13439W        W29333  13.928  18.688  13.533 -0.0485  0.0175 -0.2166
13440W        W29334  10.733   8.109  11.490  0.3652  0.2253  0.0157
13441W        W29335   6.308  17.371   5.610  0.0039  0.0831  0.3485
13442W        W29336   5.625   2.902  12.463 -0.1312  0.2011 -0.1163
13443W        W29337   0.738  15.664   2.828 -0.1363  0.1322 -0.1781
13444W        W29338   6.493  15.966  13.361 -0.1446  0.1106 -0.0846
13445W        W29339   2.012   9.168   0.394 -0.2668  0.1187 -0.3129
13446W        W29340  15.584   9.153  15.125  0.0379 -0.3547  0.1838
13447W        W29341   4.618   4.032   3.839 -0.1411  0.3020 -0.1631
13448W        W29342   8.975  11.792   0.635 -0.2692  0.0787  0.1096
13449W        W29343   1.417  10.164  10.766 -0.0325 -0.0909  0.0746
13450W        W29344  11.215   4.313   4.219 -0.1899 -0.0639 -0.1821
13451W        W29345  10.852   5.154   0.777  0.1938 -0.1101 -0.2972
13452W        W29346  17.081   1.370   2.083 -0.0090  0.2589 -0.0041
13453W        W29347  17.834  10.884   2.858 -0.0582  0.0541  0.2989
13454W        W29348  18.159   2.729  12.821 -0.2367 -0.0035 -0.0559
13455W        W29349   0.716  18.814   0.117  0.1190  0.4465  0.1944
13456W        W29350  14.635   9.600   1.299  0.2226  0.1993  0.3322
13457W        W29351   5.340   7.480   2.743 -0.0708 -0.0829 -0.1100
13458W        W29352   9.222  15.537   1.114 -0.0899 -0.2383 -0.4769
13459W        W29353  10.969  13.840  12.840  0.1647  0.0444 -0.0381
13460W        W29354   9.432  10.254  10.736 -0.1210 -0.0676  0.0016
13461W        W29355  12.389  15.454  12.666  0.1109 -0.1832 -0.2845
13462W        W29356  16.357   8.508   4.238  0.1289  0.1644  0.0036
13463W        W29357   5.215   7.640  10.997 -0.1094  0.0047  0.1675
13464W        W29358   8.223  11.618  10.528  0.0111  0.2333 -0.2773
13465W        W29359   6.370   2.618  12.591  0.5854 -0.5254  0.0120
13466W        W29360  14.363   2.777  14.225  0.0379  0.0100  0.0198
13467W        W29361   0.127  18.627   0.552  0.0523  0.0190 -0.0162
13468W        W29362   3.971  15.111   2.787  0.0801 -0.1202  0.3456
13469W        W29363   6.081   7.749  13.071 -0.1560  0.1688 -0.1072
13470W        W29364  10.965  13.092  10.584  0.2427 -0.5023  0.2465
13471W        W29365  14.858   7.924   1.970 -0.1638 -0.0466 -0.3180
13472W        W29366   9.515   9.193   1.365  0.1078  0.1263 -0.2240
13473W        W29367  11.373   2.287   2.177 -0.0679  0.2964 -0.1388
13474W        W29368  16.494  12.118   1.351  0.2424  0.1670 -0.3904
13475W        W29369   7.440   9.469   0.396 -0.3040 -0.0245 -0.1754
13476W        W29370  12.765   6.147  14.426  0.2564 -0.3288  0.0832
13477W        W29371  18.729  11.069  13.316 -0.1058 -0.0066  0.1648
13478W        W29372  16.577  16.829   1.030 -0.0203 -0.2044 -0.0308
13479W        W29373   4.998  18.282  11.466 -0.0917 -0.2040 -0.0720
13480W        W29374  11.649  12.568   2.225 -0.1033  0.2318 -0.1215
13481W        W29375  16.369  12.729   4.422 -0.0183 -0.1759 -0.2449
13482W        W29376  10.199  12.345  10.791  0.0538  0.2051  0.4451
13483W        W29377  10.566   1.837   1.275  0.2332  0.3785  0.0319
13484W        W29378  10.758  13.719  11.957 -0.4348 -0.0526 -0.1595
13485W        W29379  18.630   6.315  11.917  0.2026  0.1384 -0.0010
13486W        W29380   4.807  15.620   0.514  0.0184  0.0386 -0.1430
13487W        W29381   2.593   3.145   2.109  0.2549  0.0292  0.2178
13488W        W29382  14.721  15.300  13.114  0.1328  0.3436  0.0761
13489W        W29383   3.186  14.781   4.849  0.0156 -0.2620  0.2832
13490W        W29384   3.825   2.532  13.738 -0.1418  0.0490 -0.1815
13491W        W29385  10.385  14.572  11.017  0.1530 -0.2905  0.0402
13492W        W29386   9.667  17.481   4.211 -0.0480  0.0319 -0.0114
13493W        W29387   1.295   4.131  15.072  0.2312  0.1706  0.1231
13494W        W29388   5.220   3.142  15.489  0.0022  0.2853  0.1278
13495W        W29389   7.893   9.903   1.524  0.1649  0.0264  0.1404
13496W        W29390  11.943   0.000  12.611  0.1218 -0.0101  0.0894
13497W        W29391   2.193   8.633  11.826 -0.0095 -0.3489 -0.0851
13498W        W29392  10.768   3.052   5.105 -0.2832 -0.0252 -0.2001
13499W        W29393  14.565   4.282  11.531  0.2680  0.1087 -0.2145
13500W        W29394  18.332  10.356   5.332  0.3055 -0.2674  0.1810
13501W        W29395   1.430   9.258  14.246  0.1965  0.3406 -0.2938
13502W        W29396   7.306  11.919   4.787  0.1816  0.1384  0.3407
13503W        W29397  13.659   9.855  11.025 -0.0958  0.2244  0.5904
13504W        W29398   8.285  10.044   2.708  0.0829 -0.0796  0.0200
13505W        W29399  17.333  17.311   1.565 -0.0586  0.1493  0.0090
13506W        W29400   3.959   6.574   1.445  0.0209  0.1723 -0.2416
13507W        W29401   1.276   7.198  11.099 -0.2330 -0.2391  0.0230
13508W        W29402   0.120  13.510  12.768  0.1434  0.1655  0.0646
13509W        W29403  17.152   9.212  11.389  0.0781 -0.0556 -0.1377
13510W        W29404   3.421  15.717  14.481  0.1865  0.2736  0.3424
13511W        W29405  17.142  13.120  10.691 -0.2165  0.2918  0.4028
13512W        W29406  13.640  17.780   4.879 -0.0238  0.1203 -0.0176
13513W        W29407   9.100   4.630   9.741  0.0564 -0.2088  0.0179
13514W        W29408  16.006   8.363  13.357 -0.3090 -0.2711  0.1918
13515W        W29409  15.958  10.849  11.456  0.0111 -0.4181 -0.1201
13516W        W29410   2.716  10.199   4.690  0.1149 -0.1723  0.3021
13517W        W29411  14.048  16.531   2.802 -0.3184  0.0514 -0.0127
13518W        W29412   3.872   3.449  12.850 -0.4069  0.0285 -0.1222
13519W        W29413   2.608  15.019  13.446  0.0948 -0.0390  0.3658
13520W        W29414   5.458   2.081   3.402 -0.0060  0.0910 -0.0071
13521W        W29415   3.182   3.671  14.420  0.2266 -0.1581 -0.0223
13522W        W29416  15.788  17.103  13.911 -0.3638  0.3116 -0.2591
13523W        W29417   7.296   3.680   3.289  0.2419  0.1700 -0.2087
13524W        W29418   5.624   5.157   0.388  0.1610  0.2398 -0.0712
13525W        W29419  17.260   5.397  13.502  0.1142 -0.0316  0.0354
13526W        W29420  13.939   5.027   2.945  0.0894  0.2001 -0.2041
13527W        W29421  10.988   9.751   3.887  0.0597 -0.2359 -0.0029
13528W        W29422   7.946  15.576  12.018  0.0752 -0.5008  0.1653
13529W        W29423   7.812  12.607  11.988  0.0890  0.0262 -0.0268
13530W        W29424  17.816   7.686  12.182 -0.0798 -0.0288  0.3234
13531W        W29425  12.346  17.139   0.365 -0.0703  0.1855  0.0251
13532W        W29426   7.030  11.065   4.865 -0.1500 -0.1984 -0.1978
13533W        W29427  13.347  15.838  12.155  0.0017  0.2924 -0.1349
13534W        W29428   6.871  16.957  14.418 -0.1044 -0.0299 -0.1262
13535W        W29429  14.798  14.721   2.775  0.1515  0.2983  0.0323
13536W        W29430   1.198   3.720   3.942 -0.2077  0.2029 -0.2362
13537W        W29431   0.977   1.681  11.212  0.0315  0.3106  0.4523
13538W        W29432  11.147   7.239   2.698  0.1203 -0.0195  0.0474
13539W        W29433  18.156  16.194  12.744  0.0032 -0.0864 -0.0668
13540W        W29434   8.087   2.465  14.897  0.0272 -0.1064  0.1935
13541W        W29435   9.637  10.528   2.959 -0.1904  0.1795 -0.1672
13542W        W29436   2.176  14.700  12.256  0.3364  0.2772  0.0335
13543W        W29437   0.782  13.025  13.427  0.0340  0.2318  0.1733
13544W        W29438  17.276   4.929  13.279  0.4109  0.1402 -0.1332
13545W        W29439  14.493   0.260   0.074 -0.0653  0.4093  0.1509
13546W        W29440  18.363  15.273  10.517 -0.1531 -0.1382  0.0560
13547W        W29441   1.170  17.365   1.628 -0.0114  0.3259 -0.0329
13548W        W29442   8.539   4.970   4.161 -0.4685  0.0771 -0.1430
13549W        W29443   1.118  15.044  14.969 -0.3707  0.1784 -0.0863
13550W        W29444   2.142   9.913  13.816 -0.1713 -0.2477  0.1198
13551W        W29445   8.443   9.828  11.863 -0.1493 -0.2486 -0.3141
13552W        W29446   8.104   5.807   1.701 -0.0732 -0.0566 -0.0405
13553W        W29447  10.433  14.928   3.282 -0.1201  0.4106 -0.0399
13554W        W29448   8.583   7.826  14.645  0.2089 -0.2021 -0.1140
13555W        W29449   1.312   0.724  14.543  0.1634  0.2499  0.0087
13556W        W29450  14.387  18.374   2.387  0.0502  0.0619 -0.0027
13557W        W29451   3.314  10.264   4.005  0.1648  0.3888  0.5395
13558W        W29452  14.985   0.622  14.953  0.1297 -0.1101  0.0140
13559W        W29453   0.116  14.910   5.713 -0.2529  0.1038  0.0778
13560W        W29454   3.346  18.684   5.768  0.3187 -0.1110 -0.0028
13561W        W29455  18.821  18.734  14.651  0.1864 -0.2035  0.0221
13562W        W29456   1.154   8.676  10.700  0.0294  0.0026 -0.0746
13563W        W29457   1.541   9.567  10.031 -0.0883 -0.0278  0.1844
13564W        W29458  14.710   2.676   4.288  0.1320  0.0159 -0.2840
13565W        W29459   6.632  11.466  11.237  0.2811 -0.1339  0.1931
13566W        W29460  17.173   9.171  13.729 -0.1949 -0.2412  0.0643
13567W        W29461  13.813   9.697   0.764  0.1272  0.1171 -0.1222
13568W        W29462   2.458  15.025  10.977  0.1671 -0.0097  0.0774
13569W        W29463   9.750  13.619   3.708 -0.2640 -0.3030 -0.0975
13570W        W29464  12.367  10.602   5.190  0.1168 -0.3869  0.0404
13571W        W29465   4.838  17.709   0.750 -0.2190  0.0897 -0.0174
13572W        W29466   1.612   6.250  15.101 -0.1545  0.2411  0.1668
13573W        W29467   6.083   8.159   0.845 -0.1595  0.3116  0.1033
13574W        W29468   5.478   6.176  11.975  0.3530  0.2155  0.0782
13575W        W29469   0.162  10.348  13.383 -0.0387 -0.0638 -0.1088
13576W        W29470   6.084  10.395   3.913  0.0407  0.1187  0.1424
13577W        W29471  15.037   6.225   4.344 -0.0732  0.0898 -0.2926
13578W        W29472  16.613   6.891   0.914 -0.0244  0.2402 -0.0236
13579W        W29473   5.684  15.761  14.494  0.3037 -0.0526  0.1864
13580W        W29474  17.169   5.939   0.258  0.3808 -0.1883  0.1471
13581W        W29475  14.565   4.242   0.481  0.2656  0.1459  0.0301
13582W        W29476  14.910   0.599   4.814 -0.0722  0.0360 -0.0948
13583W        W29477  17.529   4.250  14.278 -0.2257 -0.1073  0.2199
13584W        W29478   2.282   5.679  10.528 -0.1692  0.2532  0.1913
13585W        W29479  16.661  14.527   5.611 -0.3243  0.1811 -0.1565
13586W        W29480  18.623   6.590  11.488 -0.2668 -0.1653 -0.0387
13587W        W29481  14.352   9.575  14.522 -0.0297  0.1862  0.0674
13588W        W29482  18.433  15.383   1.769  0.1788 -0.1269  0.0448
13589W        W29483  18.213  15.539   6.136 -0.0844 -0.0604 -0.2209
13590W        W29484   4.710  12.814  11.902  0.1665  0.1245 -0.0389
13591W        W29485  10.741  15.902   3.371 -0.2252 -0.0099 -0.2293
13592W        W29486   3.265  18.090   0.843 -0.0082 -0.0472  0.2669
13593W        W29487  18.390   4.875   3.229  0.3141  0.0334  0.1615
13594W        W29488  13.609   7.309   0.010 -0.0734  0.1275  0.0512
13595W        W29489  10.634  17.353  12.806  0.3309 -0.1311 -0.2185
13596W        W29490   7.990   0.695   2.917 -0.1790 -0.0145 -0.1497
13597W        W29491   9.359  16.223   4.459  0.0025  0.3715 -0.3422
13598W        W29492   0.085  12.883  14.874 -0.3281 -0.2302 -0.0837
13599W        W29493  11.024  18.734  12.252 -0.1095 -0.1217  0.0128
13600W        W29494   0.115  10.015  14.533  0.0010  0.4900  0.2120
13601W        W29495  10.694  13.049   0.429 -0.0959  0.2989 -0.4404
13602W        W29496  17.803  18.297  13.807  0.2432 -0.1393  0.0118
13603W        W29497  14.957   7.860  11.270 -0.0421 -0.1602  0.0660
13604W        W29498  12.516  13.804  13.644 -0.2371 -0.2216  0.5831
13605W        W29499  13.380  11.367  11.727 -0.3302 -0.2977 -0.1056
13606W        W29500  16.756  11.918  12.209  0.2265  0.2642  0.3000
13607W        W29501   8.268  17.270  10.041 -0.0407 -0.2193 -0.0568
13608W        W29502   5.428   1.168  14.790 -0.2875  0.2702  0.1832
13609W        W29503   1.962  17.283   1.403 -0.1302 -0.3552  0.1498
13610W        W29504   7.060  15.279  11.170 -0.0267 -0.0526  0.0876
13611W        W29505  18.681   9.135   2.490 -0.1822  0.1912  0.0633
13612W        W29506   9.539   9.670   2.892 -0.1701  0.0527 -0.2103
13613W        W29507   8.543  15.326   3.695  0.0177 -0.0977 -0.1727
13614W        W29508   1.441  17.231   4.959  0.2348 -0.0173  0.1806
13615W        W29509   7.165  11.516   5.088 -0.0404  0.1192  0.3916
13616W        W29510  14.728  13.608   0.880  0.2174  0.1351  0.1003
13617W        W29511  16.354  12.106  11.262  0.1363 -0.1197  0.2760
13618W        W29512  17.660  14.071   2.567 -0.4420  0.2283  0.1406
13619W        W29513  10.293   5.239   0.782 -0.0775  0.2233  0.0258
13620W        W29514  12.693  17.710  14.992 -0.2075 -0.0612  0.0685
13621W        W29515  12.230   1.644  14.049  0.0081  0.0383 -0.1886
13622W        W29516  17.181  17.993   4.082 -0.1345  0.2354 -0.1335
13623W        W29517   3.817  16.891  15.205  0.1519  0.2956  0.1826
13624W        W29518   7.382   9.985   1.478  0.1259 -0.3516  0.1615
13625W        W29519  16.586   6.973  11.600  0.1818 -0.0381 -0.2875
13626W        W29520  18.423   9.172   3.205  0.0491  0.3585  0.1002
13627W        W29521  16.890  14.099   2.351  0.0247 -0.0025 -0.1553
13628W        W29522   3.564   1.650   3.696 -0.0087 -0.2965  0.3150
13629W        W29523  17.477   4.654  11.583  0.1464 -0.1143  0.0748
13630W        W29524  16.937   4.393   4.020  0.0574 -0.4909  0.1857
13631W        W29525  13.115  16.261  14.157  0.1514  0.2771 -0.0958
13632W        W29526  11.005   0.701   0.467 -0.5352 -0.2479 -0.0851
13633W        W29527  10.230  15.124  15.061  0.1529  0.1958 -0.3538
13634W        W29528   3.199   0.396  14.655  0.1792  0.0048 -0.1068
13635W        W29529  11.696   2.666   3.420  0.0576  0.2218  0.0206
13636W        W29530   5.195   8.668  14.736  0.1451 -0.1061  0.1096
13637W        W29531   6.224   9.340   4.623  0.1562 -0.0200  0.0573
13638W        W29532   7.242   1.638   3.177  0.0709  0.2890  0.1103
13639W        W29533  18.819  15.446   0.821 -0.2851 -0.1851 -0.0501
13640W        W29534   6.867   5.891  12.564  0.0136 -0.0383 -0.2023
13641W        W29535   5.402   9.563  14.521  0.0778  0.0480 -0.1534
13642W        W29536  11.985  11.294  12.511  0.1551  0.2861 -0.0257
13643W        W29537  10.612   9.873  11.891  0.0613 -0.0056 -0.2511
13644W        W29538  17.980   4.068  14.099 -0.1417  0.1221  0.1884
13645W        W29539   7.450  14.865  14.257  0.2205  0.0615 -0.1043
13646W        W29540  12.604   4.148   1.569  0.3674  0.0030 -0.0553
13647W        W29541   1.136   5.517   4.096 -0.1026  0.1867 -0.1129
13648W        W29542   1.311   6.439   2.534 -0.1510 -0.0047  0.0038
13649W        W29543   3.345  15.045   3.544 -0.2772  0.2873  0.0200
13650W        W29544  18.687  10.588   2.174  0.0068  0.1791 -0.0226
13651W        W29545  11.900   5.655  13.422  0.0485 -0.2023  0.1537
13652W        W29546  13.659   8.649   4.014  0.1236 -0.1757  0.1517
13653W        W29547   2.193  16.256   3.923 -0.2327 -0.2841 -0.1863
13654W        W29548  10.213  12.634  13.381  0.0071 -0.0275 -0.3707
13655W        W29549  13.447  12.098  12.592  0.0815 -0.0503 -0.1240
13656W        W29550  10.332   9.115   4.747 -0.0007  0.0586  0.0285
13657W        W29551   6.135   8.196  12.763 -0.1788  0.2231 -0.1379
13658W        W29552  17.614   8.769   1.175  0.2527  0.3419 -0.1083
13659W        W29553  13.515   3.429  11.071 -0.0574 -0.3095 -0.1043
13660W        W29554   8.153   9.490  14.397  0.1941 -0.1316 -0.1968
13661W        W29555  16.854  15.651  11.017  0.2355  0.1220 -0.2296
13662W        W29556  16.120   5.651  10.610 -0.1904 -0.0008 -0.1513
13663W        W29557  16.755  10.906  11.809  0.1550  0.1117  0.3052
13664W        W29558  12.488  16.898   2.914 -0.2620  0.1713  0.1485
13665W        W29559  10.780  16.218  14.209 -0.1368 -0.0309  0.0754
13666W        W29560   2.611  14.580  12.500  0.0825  0.0059  0.1703
13667W        W29561  12.714  15.227   1.448  0.4018  0.2288  0.1144
13668W        W29562  15.432  17.448  11.259 -0.0619  0.1129  0.1905
13669W        W29563  12.677  10.836  11.292  0.0613  0.4724  0.0242
13670W        W29564   5.900   0.512   1.784 -0.0671 -0.0931  0.2545
13671W        W29565  13.164  14.665  11.855 -0.0803 -0.0707  0.1389
13672W        W29566  10.074   7.652   0.374  0.2725  0.1053 -0.1455
13673W        W29567  16.210   4.269  14.759 -0.0700  0.0080 -0.2853
13674W        W29568   7.507  11.294  14.984  0.0206 -0.2174 -0.1379
13675W        W29569   1.371  13.693   5.556  0.0787 -0.1699 -0.2215
13676W        W29570  18.669  16.072   5.404 -0.0626 -0.3290 -0.4445
13677W        W29571   4.958   0.594  15.364 -0.2651 -0.0308  0.2961
13678W        W29572   3.455  14.079  15.246 -0.1671  0.0097 -0.1190
13679W        W29573  18.129   1.035  14.421 -0.0552 -0.2540  0.2846
13680W        W29574   4.550   4.872  12.429  0.1908  0.1776 -0.3846
13681W        W29575  17.101   4.851   3.909 -0.2381  0.0711 -0.2472
13682W        W29576   6.258   7.469   2.854  0.1266 -0.1387 -0.3425
13683W        W29577   6.342   5.029   2.552  0.0086 -0.2713  0.1032
13684W        W29578   8.128   6.165   1.307 -0.0715 -0.1299 -0.3664
13685W        W29579   1.518  16.659  12.525 -0.1115  0.1355  0.1377
13686W        W29580  15.733  15.321   5.542 -0.3301  0.0346 -0.0951
13687W        W29581   0.762   0.607   4.879 -0.2832 -0.0201  0.2110
13688W        W29582   2.370  12.554  10.472  0.0889 -0.1685 -0.1511
13689W        W29583   8.277   0.805   1.215 -0.0130  0.2137  0.1363
13690W        W29584  14.105   9.161   1.426  0.3087 -0.3340  0.1605
13691W        W29585   3.567  10.607   4.830 -0.1579 -0.3570  0.0384
13692W        W29586  11.283   7.762  11.536 -0.1816 -0.4178 -0.1355
13693W        W29587  12.655  17.545  10.517  0.0633  0.0837  0.1517
13694W        W29588   7.522  15.470   1.745  0.1763 -0.2215  0.1395
13695W        W29589   2.165  10.374  15.099 -0.1420 -0.1207 -0.1252
13696W        W29590   8.305  18.486  12.529  0.0660 -0.1090 -0.1459
13697W        W29591  11.070  18.593   0.331  0.1055  0.1132 -0.2089
13698W        W29592  17.708   1.709  12.450  0.2803 -0.3381 -0.1208
13699W        W29593   3.712  11.898   0.354 -0.2097  0.1695 -0.0347
13700W        W29594   7.902  12.435  10.470  0.0825 -0.2618 -0.2726
13701W        W29595   8.578   0.261   0.020  0.1035 -0.1409 -0.1038
13702W        W29596   0.779   6.520   0.017  0.3832  0.1868 -0.1824
13703W        W29597  12.632   3.916  12.069 -0.3824  0.1113 -0.1036
13704W        W29598   6.124  15.076  10.897  0.0376 -0.1054 -0.1049
13705W        W29599   7.261  16.395  11.335 -0.0241  0.2152 -0.5902
13706W        W29600   0.230  16.450   2.707 -0.0086  0.1772 -0.1345
13707W        W29601  12.998  15.349   5.532 -0.0813 -0.3484 -0.0664
13708W        W29602  18.089   2.507  13.395  0.0220  0.0970 -0.1610
13709W        W29603  11.413   5.717  10.498  0.5095 -0.3476  0.0446
13710W        W29604   7.879  17.541   4.922  0.1192  0.0874  0.1498
13711W        W29605  16.409  18.346   5.430  0.1688  0.0183 -0.3365
13712W        W29606   6.987  16.304   0.577  0.2117 -0.0729  0.1833
13713W        W29607   6.292  14.610   1.389 -0.1507  0.1966  0.0082
13714W        W29608   1.342  18.750  12.895  0.0889 -0.0509  0.1569
13715W        W29609   7.653  10.084  11.390 -0.0207  0.2761 -0.0960
13716W        W29610   6.501  14.588   4.616 -0.2930 -0.0103  0.0332
13717W        W29611  16.607   5.917  14.286 -0.2896 -0.0084 -0.3440
13718W        W29612   1.963   5.905   4.746 -0.1670 -0.0001 -0.0986
13719W        W29613  16.614  14.799  12.841 -0.5604 -0.0874  0.7150
13720W        W29614   2.993   7.116  10.877  0.3750 -0.3672 -0.0863
13721W        W29615  18.500  11.362  14.940  0.0551 -0.0883  0.1131
13722W        W29616   6.185   0.426  10.834  0.1001  0.1327  0.4120
13723W        W29617   0.029  16.917   0.389 -0.0380 -0.1380  0.1352
13724W        W29618   8.274   7.547  14.962  0.5167 -0.2060 -0.1141
13725W        W29619  17.525  10.829  11.287 -0.3756  0.0618  0.2491
13726W        W29620   1.089   7.947   1.401 -0.0624  0.2955 -0.0794
13727W        W29621  14.019  10.718  13.635  0.1128 -0.2363 -0.2659
13728W        W29622  14.775   2.567   2.762  0.1117 -0.0170 -0.1369
13729W        W29623  17.505   3.664   3.472  0.1308 -0.3511  0.1178
13730W        W29624   3.645   1.435   1.963 -0.2841  0.2100 -0.4083
13731W        W29625   1.370  14.443  13.510 -0.0196 -0.0908  0.1191
13732W        W29626   0.202  15.185   1.527 -0.0571  0.2244 -0.0842
13733W        W29627   5.781   3.473   1.210 -0.0551  0.1425  0.1381
13734W        W29628   9.400   4.326   1.186 -0.0870 -0.0516 -0.1864
13735W        W29629   0.596  12.303   3.767  0.1279  0.2996 -0.1767
13736W        W29630  12.372   1.600   4.733  0.2162  0.0253  0.1060
13737W        W29631  16.416  16.962   5.507  0.5157  0.0011 -0.0604
13738W        W29632   9.717   6.667  14.888  0.0807  0.0490  0.2035
13739W        W29633  13.266  18.129   0.883 -0.3139  0.2062  0.1395
13740W        W29634   8.178  12.222  13.743 -0.3807 -0.0109  0.0963
13741W        W29635  10.066   1.515  14.635  0.0500  0.2765 -0.1034
13742W        W29636   8.253  10.899   0.554 -0.2138 -0.1157  0.1291
13743W        W29637   9.060   5.548  11.777 -0.5005 -0.0690 -0.1702
13744W        W29638   4.035  18.254  13.944 -0.0549  0.2472 -0.1753
13745W        W29639  14.430  14.915   1.544 -0.0087  0.0273 -0.2138
13746W        W29640  15.651  16.984  15.359  0.0409 -0.2478  0.1171
13747W        W29641  12.237   4.810   1.267  0.2667  0.1392  0.0789
13748W        W29642  17.884  10.173   0.740  0.1599 -0.2480  0.0632
13749W        W29643   2.452  16.711  14.808  0.0362  0.1411  0.0013
13750W        W29644   2.317   5.653   0.673  0.0793 -0.1125 -0.0447
13751W        W29645  13.687   7.279   1.053 -0.3057 -0.1086 -0.1750
13752W        W29646  10.086   0.606   2.236 -0.0670 -0.1811 -0.2333
13753W        W29647  18.484  17.165  14.311 -0.1639  0.2266 -0.3332
13754W        W29648  11.617   1.876  12.639  0.2383  0.2764  0.2005
13755W        W29649  17.003   7.346   2.064  0.0141  0.2892 -0.0446
13756W        W29650   6.820  10.282  13.760 -0.1270 -0.0478 -0.0834
13757W        W29651  14.195  11.242   0.832 -0.3310  0.0056  0.2550
13758W        W29652   3.448   9.269  11.185 -0.3555  0.1416 -0.0996
13759W        W29653   8.213  16.910  13.848 -0.0770  0.2094  0.0603
13760W        W29654   5.420   2.078   4.742 -0.0732 -0.3314  0.0656
13761W        W29655   0.598   8.473  13.545  0.2588 -0.0335 -0.0703
13762W        W29656  11.075   3.497   4.471 -0.0261 -0.2584  0.2602
13763W        W29657   5.552   9.374   2.990  0.2188 -0.0876  0.0487
13764W        W29658   0.161   9.783   1.968 -0.2320 -0.0885 -0.0847
13765W        W29659   3.976  15.852   4.955  0.0920 -0.4693 -0.2087
13766W        W29660  17.331  13.067   0.179  0.1311  0.1249  0.4228
13767W        W29661  16.476  17.453   5.684 -0.2611  0.2390  0.2146
13768W        W29662   4.546   7.651   9.743  0.0126  0.0936  0.1120
13769W        W29663   3.032  12.779  11.716 -0.0732  0.5109 -0.3595
13770W        W29664  12.138   7.287  14.496 -0.0859  0.1469  0.3129
13771W        W29665   3.869   0.481  13.722 -0.1076 -0.3414 -0.0209
13772W        W29666  18.067  15.618   9.658  0.1206 -0.0977 -0.2111
13773W        W29667  17.300   8.421  13.333 -0.3188 -0.0994  0.1048
13774W        W29668  15.182   1.056   4.856 -0.1817 -0.0221 -0.0861
13775W        W29669  17.796  18.371  14.992 -0.1432  0.0690  0.0581
13776W        W29670   4.002   4.840   4.665  0.4430 -0.1231 -0.0893
13777W        W29671   0.762   1.887   2.524 -0.2573 -0.2262 -0.3271
13778W        W29672  18.639  13.868   2.780  0.0268 -0.0033 -0.0848
13779W        W29673  17.383  10.766   2.651 -0.2180 -0.0508 -0.2033
13780W        W29674  13.543   8.969  15.264 -0.2219 -0.1379  0.0834
13781W        W29675   2.269   4.029   1.930 -0.1743 -0.1481 -0.2316
13782W        W29676   6.192   0.518   2.588  0.1299 -0.1064 -0.1964
13783W        W29677   8.183   9.673  12.961 -0.0379  0.1510 -0.1182
13784W        W29678   7.927   1.242  14.252 -0.2602  0.1091 -0.1433
13785W        W29679   7.151   9.536   1.369  0.3873  0.1507  0.3573
13786W        W29680   2.025  13.626  14.893  0.3519 -0.1873 -0.1633
13787W        W29681  15.449   7.040   0.592  0.1152 -0.1703  0.1956
13788W        W29682   9.839  11.103   2.440 -0.0051  0.1514 -0.1349
13789W        W29683  15.126  15.468  10.093 -0.0218 -0.0473  0.1026
13790W        W29684   5.735  11.458   3.238 -0.4083 -0.4047 -0.1975
13791W        W29685   9.218  11.462   4.697  0.0739 -0.1322 -0.0268
13792W        W29686   5.358  11.978   4.771  0.1198  0.5888  0.0147
13793W        W29687  11.296   1.324   4.783 -0.0481  0.0776 -0.1845
13794W        W29688   8.648   2.665  13.070  0.0275 -0.2428  0.2142
13795W        W29689   5.697  16.985  12.682  0.0534 -0.0465 -0.0626
13796W        W29690   3.340  17.930  13.847  0.1408  0.3971  0.1850
13797W        W29691   0.498   3.307  12.754 -0.1587  0.0328  0.0614
13798W        W29692  12.715  16.717   4.698 -0.0539  0.0001  0.0882
13799W        W29693   3.574   7.869   5.333 -0.0894  0.0102 -0.0781
13800W        W29694   4.783   2.941  10.830 -0.1034  0.0157 -0.1471
13801W        W29695   6.545  16.256  10.997  0.1361  0.3383  0.0782
13802W        W29696  15.629   2.889  13.273  0.3045  0.0912 -0.1508
13803W        W29697  18.725  11.813  12.680  0.1368  0.0544  0.0099
13804W        W29698  16.425   8.481  13.721  0.0392 -0.0707 -0.0184
13805W        W29699  11.277   3.716   2.591 -0.1705 -0.0278 -0.0856
13806W        W29700  14.124   5.615  11.866 -0.3438 -0.2031  0.3450
13807W        W29701   7.332  17.575   4.601 -0.0282  0.3004 -0.1588
13808W        W29702  14.194  10.367  13.251 -0.0309 -0.0467 -0.1055
13809W        W29703  10.525   2.268  14.800  0.2043  0.0166 -0.2102
13810W        W29704   7.195  17.178   4.298  0.3633 -0.1128  0.2704
13811W        W29705   9.032  14.494  12.887 -0.1346 -0.0920  0.1159
13812W        W29706  17.723  13.012   2.390  0.0913 -0.0606 -0.3222
13813W        W29707   5.764  11.730  11.343 -0.3513 -0.2828 -0.0107
13814W        W29708   1.451  15.446  13.264 -0.1510 -0.2145  0.1050
13815W        W29709   7.639   0.298  12.647  0.1091 -0.3117 -0.0211
13816W        W29710  14.900  15.577   0.920 -0.1328 -0.6582 -0.2165
13817W        W29711   3.619   7.436  15.097 -0.1430 -0.2241  0.0003
13818W        W29712   4.224  13.960   4.381  0.1810 -0.4881  0.0470
13819W        W29713   8.722  13.920  14.511 -0.0266  0.0951  0.3514
13820W        W29714  16.795  11.415   1.586  0.0320 -0.0368  0.1747
13821W        W29715   8.724  14.039  12.232 -0.1239 -0.1381 -0.3147
13822W        W29716  16.746   9.278  13.961 -0.1539  0.2560  0.0374
13823W        W29717  11.912  17.640  15.285  0.2172  0.0098 -0.0412
13824W        W29718   0.587   6.596  13.578  0.1966  0.0866  0.1527
13825W        W29719  17.351   0.080  12.618 -0.1941 -0.1579 -0.1937
13826W        W29720   5.873   1.456   1.727  0.1950 -0.0033 -0.2066
13827W        W29721  12.947  13.608  11.855  0.2174 -0.0637 -0.0036
13828W        W29722  13.005  15.137  13.956 -0.3842  0.1597 -0.0982
13829W        W29723   0.581  17.235  14.108  0.0836 -0.2191 -0.2410
13830W        W29724  11.720   2.344   4.917 -0.0012 -0.0120  0.1686
13831W        W29725   7.502  18.235   1.947 -0.0583  0.0251 -0.1030
13832W        W29726  16.984   7.140   4.591  0.2940 -0.0405  0.3145
13833W        W29727   5.089  18.702  12.878 -0.1075  0.2729 -0.0868
13834W        W29728  12.063  12.922   0.986 -0.4433  0.1502  0.0258
13835W        W29729   2.222  12.491  11.282 -0.0133 -0.0928  0.0656
13836W        W29730   9.211  10.432  12.227 -0.1374  0.1546  0.0178
13837W        W29731  18.085  17.900  12.949 -0.2875 -0.2781 -0.1443
13838W        W29732   6.213  14.051   0.785  0.0826 -0.2057  0.2609
13839W        W29733   8.782  15.732   5.920  0.2498  0.0391 -0.0597
13840W        W29734   4.518  16.303   5.112  0.3653 -0.1185 -0.0962
13841W        W29735   7.697   9.812   0.629 -0.1762  0.3383  0.0916
13842W        W29736  18.120   9.239   0.938 -0.3714  0.0892  0.0144
13843W        W29737   5.439   2.269   1.703 -0.1625 -0.1988  0.2489
13844W        W29738  14.934  13.818   2.176  0.1053 -0.1341  0.0583
13845W        W29739  18.524   8.483   4.419 -0.2669  0.5360 -0.0365
13846W        W29740   4.288   6.323   4.614  0.3453 -0.1224 -0.0363
13847W        W29741  11.460  12.934   5.123  0.0003 -0.0273  0.0527
13848W        W29742  18.741   2.338   3.382 -0.0046  0.0296 -0.1447
13849W        W29743  17.639   3.518   1.091 -0.2032  0.0232 -0.3829
13850W        W29744  15.989   2.884  14.085  0.2467 -0.3570 -0.3063
13851W        W29745   6.253   7.587  11.559  0.0386  0.1192  0.0682
13852W        W29746   1.701  13.993   1.033 -0.1620  0.0918  0.1708
13853W        W29747   3.139  18.016  11.363  0.2829  0.1068  0.1119
13854W        W29748   8.265   5.222   0.475  0.1412  0.1185  0.2864
13855W        W29749  12.861  17.450   0.924 -0.0662  0.3851  0.3520
13856W        W29750  18.620   0.404  11.993  0.2903  0.1687 -0.2389
13857W        W29751  10.185   1.083  11.235  0.0551  0.0654 -0.0468
13858W        W29752  18.843   7.744   5.131 -0.2016  0.1415  0.4972
13859W        W29753  17.567   8.516   5.439  0.0473 -0.0177  0.2355
13860W        W29754   6.705   0.893   0.214  0.0034 -0.0214  0.2167
13861W        W29755   7.291   2.303   1.356  0.0652 -0.1446 -0.2340
13862W        W29756   3.605  16.675   3.914 -0.0199 -0.2351 -0.2054
13863W        W29757  13.963   5.860  13.310  0.1764 -0.0971  0.0985
13864W        W29758  12.487   7.449   4.896 -0.0664 -0.2019  0.0299
13865W        W29759   6.480  14.322  13.991  0.3485 -0.1334 -0.0893
13866W        W29760   8.960  17.389   3.284 -0.1958  0.0820  0.2451
13867W        W29761   0.835   2.543   2.429  0.0399  0.1356  0.0501
13868W        W29762   4.565  11.810   3.681 -0.1370  0.1348  0.1021
13869W        W29763   2.145   8.669  13.175  0.3485 -0.1884  0.0008
13870W        W29764   8.154   0.306   4.154  0.0475  0.0547 -0.0258
13871W        W29765   2.168   8.145  11.999  0.0973  0.1387  0.0499
13872W        W29766   5.074   7.960  11.417  0.1137  0.0226 -0.2731
13873W        W29767   5.984   7.950   2.883 -0.1814 -0.1952 -0.0160
13874W        W29768   6.585  15.457  11.005 -0.0995  0.1825  0.5378
13875W        W29769  18.435  15.466   2.302 -0.2444 -0.2582  0.1233
13876W        W29770   3.989  18.551  13.000 -0.1774  0.0893  0.0507
13877W        W29771   6.165   0.418   4.004 -0.3044 -0.0729 -0.0950
13878W        W29772   3.672   9.093   1.827 -0.0906  0.0586 -0.0383
13879W        W29773  16.183   4.887   2.901  0.2210  0.1659 -0.2375
13880W        W29774   6.179  11.396   5.028 -0.1936  0.1549 -0.1320
13881W        W29775  15.922   1.714   2.563 -0.0345  0.0547  0.1247
13882W        W29776   7.338   7.272   1.537 -0.0661  0.1309 -0.0803
13883W        W29777   7.174  10.867   4.029 -0.1650  0.1118  0.2354
13884W        W29778  15.930   9.994   0.759  0.1835  0.4755 -0.1350
13885W        W29779   6.080   9.634  12.338  0.2020 -0.3597  0.0174
13886W        W29780   3.192   8.850   3.022  0.0229  0.0297 -0.0388
13887W        W29781   0.870  11.860   0.417  0.1400 -0.5674 -0.2310
13888W        W29782  12.200   1.761   0.741  0.3697 -0.0228  0.0764
13889W        W29783  13.289  10.100   2.711 -0.1092  0.0680 -0.0146
13890W        W29784  11.227  15.093  14.057  0.2938 -0.1897  0.0847
13891W        W29785   7.960   0.071   0.911  0.2822  0.2421 -0.0108
13892W        W29786   0.970   7.829   3.288 -0.0255  0.0870  0.1478
13893W        W29787   6.484   5.106   3.497 -0.0079 -0.1850  0.0843
13894W        W29788  12.304   6.169   1.203 -0.1176  0.0151  0.3595
13895W        W29789  18.756  11.851   3.064  0.1427 -0.0557 -0.4224
13896W        W29790   1.388   7.181   0.380 -0.0409 -0.0987 -0.0878
13897W        W29791  12.054  13.782  12.813 -0.0678 -0.0498 -0.0629
13898W        W29792   0.281   7.783  10.079 -0.1852  0.1825 -0.0573
13899W        W29793   0.937  11.980   2.804  0.1532  0.0749  0.2325
13900W        W29794  11.743   8.332   2.671  0.1922  0.1398  0.0516
13901W        W29795  11.839   5.937  14.752 -0.4896  0.0446 -0.1676
13902W        W29796   0.964  13.302   0.975 -0.1658 -0.1146 -0.0608
13903W        W29797  10.851   6.014   3.679 -0.1375 -0.0039 -0.1585
13904W        W29798  16.044  12.337   4.432 -0.1062 -0.2473  0.0444
13905W        W29799   3.956   9.926  12.753  0.0521  0.1110  0.2393
13906W        W29800  17.355   3.523  14.902  0.2996  0.2073 -0.1427
13907W        W29801  11.724   7.550   3.819 -0.2334  0.0257  0.1256
13908W        W29802   4.469   6.912  13.632  0.2527  0.0937 -0.1023
13909W        W29803  13.890   8.985  14.152  0.1040 -0.1003 -0.0976
13910W        W29804   6.210  18.518   0.259  0.1766  0.1998 -0.0891
13911W        W29805  13.485  18.123   3.687  0.2229  0.0630  0.0023
13912W        W29806  18.575   3.767   3.244  0.1957  0.2688  0.1246
13913W        W29807   7.012  14.571   2.080  0.0845 -0.0767  0.2483
13914W        W29808  13.461  15.594  12.793 -0.0283  0.1680 -0.1550
13915W        W29809   1.716   1.465   3.249  0.0438  0.0083 -0.1025
13916W        W29810  18.603  10.790   1.009 -0.0049 -0.1434 -0.1979
13917W        W29811  12.786   9.231  10.559  0.1520 -0.1750 -0.0520
13918W        W29812  16.821   4.598   0.476  0.4771  0.0644  0.2026
13919W        W29813   4.139  18.105   4.589  0.0783 -0.2032  0.1449
13920W        W29814  16.921   4.677  12.984  0.2902  0.3180  0.1978
13921W        W29815   4.204  15.326   9.485 -0.1465  0.0799  0.4463
13922W        W29816   3.028   5.665  13.175 -0.1028  0.0537 -0.0949
13923W        W29817   9.169  16.711   1.087 -0.2433  0.1395 -0.0889
13924W        W29818  10.337  17.919   5.894  0.0407  0.0698  0.2223
13925W        W29819  17.997   0.560   3.870 -0.0545  0.0277 -0.1617
13926W        W29820  13.912   1.323   4.381 -0.0324  0.0089 -0.2013
13927W        W29821   6.223  11.669   0.779 -0.0628  0.1218 -0.2589
13928W        W29822   9.331  17.102   4.392 -0.0981 -0.0718 -0.1191
13929W        W29823  15.218  10.118  10.101  0.1853  0.1523 -0.0272
13930W        W29824  14.323   8.745  15.371 -0.5141  0.1024 -0.1416
13931W        W29825   4.118  17.112  12.849  0.0954  0.3356  0.0390
13932W        W29826   2.067   5.179  10.609 -0.1356 -0.3704 -0.0208
13933W        W29827   2.364   1.406   0.662  0.2270  0.0905 -0.3288
13934W        W29828   5.443   2.607   2.655  0.5208 -0.3077  0.1507
13935W        W29829  16.092   1.798   0.794 -0.2316  0.1322  0.2299
13936W        W29830  11.707  14.785  11.269 -0.2717 -0.0629  0.0255
13937W        W29831  11.622  10.956   3.082  0.4376  0.0518 -0.3573
13938W        W29832  16.644  18.861  14.025 -0.3832 -0.1656 -0.1954
13939W        W29833   6.700  11.916   1.101 -0.2343 -0.1997  0.2523
13940W        W29834   1.120  16.400  15.166  0.0408 -0.0012  0.0429
13941W        W29835   1.576   0.671   1.688  0.0664  0.0117 -0.1309
13942W        W29836  15.041   0.809  11.617 -0.3285 -0.0264  0.1641
13943W        W29837   1.933  17.743   5.164  0.2842 -0.3295 -0.3493
13944W        W29838   3.013  10.496  11.781 -0.0877 -0.2722  0.4424
13945W        W29839   9.693  13.766   2.236  0.1160  0.0132 -0.2097
13946W        W29840   8.260  10.425   9.744  0.2526 -0.0156  0.0488
13947W        W29841   4.852  18.846   3.355  0.1221  0.1171  0.1816
13948W        W29842  16.379  11.584   5.566  0.2921  0.3916 -0.2869
13949W        W29843  16.427  18.613   4.845  0.1586 -0.1975  0.0703
13950W        W29844   7.594  14.980  15.262  0.0422  0.1382 -0.1118
13951W        W29845   0.918   4.362  13.250 -0.0733 -0.0052  0.0464
13952W        W29846  13.036  12.932   1.086  0.2027  0.2517 -0.1395
13953W        W29847   9.838   3.759   3.295  0.1376  0.2691 -0.2712
13954W        W29848   2.365   4.692   0.874 -0.0777  0.0317  0.1470
13955W        W29849   1.276  11.500   1.045 -0.0357  0.0984  0.1365
13956W        W29850  12.297   4.645  13.053  0.1908 -0.1729 -0.1034
13957W        W29851   6.333  17.876   3.430  0.2258 -0.0688  0.2493
13958W        W29852  14.246   4.569   0.657 -0.0773 -0.0179 -0.3149
13959W        W29853  18.219   7.403  11.898 -0.3285 -0.0901 -0.1704
13960W        W29854  12.490   6.767   0.432 -0.1812  0.0142 -0.1662
13961W        W29855  11.211  11.300   4.375 -0.4702  0.2786 -0.0994
13962W        W29856   8.311   4.335  11.433  0.2003 -0.1350  0.0668
13963W        W29857   5.454  14.462   1.950 -0.3653  0.0823  0.1992
13964W        W29858   8.217  16.975  10.913  0.1636 -0.3965 -0.3427
13965W        W29859   9.646   2.071   1.836 -0.2310 -0.1951  0.0150
13966W        W29860   1.235  13.296  14.678  0.3020 -0.0678 -0.1239
13967W        W29861  13.875  12.858   2.956 -0.0068 -0.0116 -0.0453
13968W        W29862  17.280  10.956   4.710 -0.2457  0.1241 -0.2151
13969W        W29863  16.930   5.385   1.892 -0.0902  0.0709 -0.1859
13970W        W29864   7.749  14.890  10.533  0.3325 -0.0019 -0.2524
13971W        W29865   7.671   3.039   1.189  0.0311  0.1636 -0.0034
13972W        W29866  12.044   9.638  13.195 -0.3802  0.2066  0.4712
13973W        W29867   4.876   9.815   3.655 -0.0927  0.0007 -0.6212
13974W        W29868  16.888  15.967   0.701 -0.3007 -0.1196  0.0665
13975W        W29869   8.836   6.677  14.455  0.0922 -0.3068  0.1434
13976W        W29870   8.260   1.705  14.861 -0.2373 -0.2460 -0.0810
13977W        W29871  16.512   0.216   3.099  0.2353 -0.0418 -0.3657
13978W        W29872  13.918   3.820  11.071 -0.0261 -0.1052  0.2194
13979W        W29873  13.999   4.086  12.519  0.1368 -0.0364  0.2927
13980W        W29874   6.845  16.621  11.151 -0.3514  0.0301  0.0269
13981W        W29875  16.970   2.856  13.637 -0.2829 -0.3513 -0.3128
13982W        W29876  16.805   9.363  12.849 -0.2344  0.2087 -0.0018
13983W        W29877   5.565  17.130   5.222  0.2314  0.3006 -0.2927
13984W        W29878   8.325   5.573   5.132  0.1995 -0.1620  0.4155
13985W        W29879  10.723  12.733  13.467 -0.0969 -0.0510  0.1626
13986W        W29880  18.704  13.079   1.590 -0.0053  0.0070  0.1631
13987W        W29881  10.588  12.597   0.014  0.0141  0.0844 -0.2314
13988W        W29882  12.510   3.790   1.257  0.2977 -0.0567  0.1645
13989W        W29883  10.419   3.212   2.414 -0.0422  0.1385 -0.0369
13990W        W29884   4.832  11.355  13.336 -0.1764  0.0268  0.0653
13991W        W29885   4.947   4.621   2.679  0.1223  0.2438  0.4288
13992W        W29886  16.435   1.942  12.372  0.1459  0.2390 -0.2621
13993W        W29887  13.688   9.409  10.540 -0.1152 -0.0573 -0.2815
13994W        W29888  12.835   6.871  13.923 -0.0907 -0.0051 -0.4879
13995W        W29889   8.249   5.090  12.327  0.0871  0.1019  0.1832
13996W        W29890   7.053   3.756   1.935  0.2762 -0.0344  0.1183
13997W        W29891   4.123   4.459   2.696 -0.0529 -0.0616 -0.1592
13998W        W29892  11.374   3.693  11.360  0.2186 -0.1041  0.1698
13999W        W29893   2.972   9.828   5.770  0.0418 -0.3057  0.1696
14000W        W29894   1.705  16.211   0.795  0.0122 -0.2103 -0.2782
14001W        W29895   4.969  13.852  12.367 -0.1055  0.1504 -0.1376
14002W        W29896  18.211  15.524   0.144  0.3579  0.0656  0.1962
14003W        W29897  13.583   5.092   2.303  0.1529  0.0249 -0.2079
14004W        W29898   8.978   8.515   3.220 -0.0593  0.1733 -0.1669
14005W        W29899   4.158   2.748  11.026  0.0771 -0.2945 -0.0170
14006W        W29900   5.853   4.288  13.364 -0.5341 -0.0295 -0.1059
14007W        W29901  12.149  12.598  12.140 -0.0977  0.2123 -0.0252
14008W        W29902   8.782   1.494  11.452 -0.2101  0.1266  0.1578
14009W        W29903   6.966   1.591  13.249 -0.0046  0.2027 -0.0223
14010W        W29904  14.070   8.970  12.578 -0.2614  0.1115  0.1571
14011W        W29905   0.529   1.878  11.778  0.1202 -0.5707 -0.1274
14012W        W29906   9.300  11.098  13.871  0.0699  0.3584  0.1152
14013W        W29907  15.967   3.184  13.646 -0.1930 -0.4035 -0.1149
14014W        W29908   0.864  11.236  11.337  0.0403  0.2120  0.2414
14015W        W29909  16.139   6.982   0.850  0.1327 -0.0211  0.0286
14016W        W29910   9.243   6.433   5.639  0.0455  0.1378  0.1346
14017W        W29911  13.044  12.065   0.825 -0.1838 -0.0697 -0.1421
14018W        W29912   8.324  11.935  14.829 -0.0755  0.0829  0.2307
14019W        W29913   0.903  16.628  12.630 -0.1562 -0.2650 -0.1016
14020W        W29914   1.905  14.474   2.416 -0.0859  0.3853  0.1574
14021W        W29915  18.126   2.321   4.142  0.0042  0.2775 -0.0041
14022W        W29916   4.802   3.781   0.573  0.0484  0.0273 -0.0982
14023W        W29917   4.320  15.234  11.119 -0.1916  0.1896 -0.1623
14024W        W29918  15.472  15.886   1.820 -0.0791  0.2695  0.0935
14025W        W29919  15.320  10.429   3.423 -0.0316  0.0564  0.1551
14026W        W29920  14.962   3.038  12.345  0.1018  0.1429  0.1305
14027W        W29921  10.601  16.956  13.866  0.1637  0.0262  0.2088
14028W        W29922   5.149   4.454   1.288 -0.0227  0.0181 -0.1316
14029W        W29923  11.581   8.630   1.405 -0.0953 -0.3203  0.3560
14030W        W29924   0.336   6.863  13.197  0.0124  0.0672 -0.0570
14031W        W29925   2.460  14.499  10.901  0.1194 -0.2208  0.3791
14032W        W29926   0.371   3.232  14.403 -0.0081 -0.1353 -0.0013
14033W        W29927   1.663  15.484   1.273  0.0917  0.0730 -0.1639
14034W        W29928   8.883   2.629  12.610 -0.2802 -0.1366 -0.1996
14035W        W29929   3.340   7.531   4.048  0.0920 -0.1920 -0.2368
14036W        W29930   1.743  10.285   1.592  0.1796 -0.0020  0.1470
14037W        W29931   4.479   6.504   1.289 -0.0970  0.1965 -0.1291
14038W        W29932  17.406   7.968  12.337 -0.1167  0.1153 -0.2161
14039W        W29933  18.701   2.841   2.384  0.0216 -0.2273  0.3107
14040W        W29934   7.896   4.521   4.658 -0.2236  0.2431  0.1017
14041W        W29935  16.145   3.323   4.333  0.0604  0.1699  0.0949
14042W        W29936   1.685   5.939   0.462  0.2631 -0.0725  0.2163
14043W        W29937  15.136  18.607  15.330 -0.0067  0.1392 -0.3019
14044W        W29938   2.358   7.872   0.273 -0.2795 -0.1161  0.0774
14045W        W29939   1.637  15.246   0.761 -0.1276  0.1279  0.0845
14046W        W29940   9.695  18.541   2.780 -0.2358 -0.1382  0.0794
14047W        W29941  13.350   7.643  14.145 -0.3000 -0.2250 -0.0104
14048W        W29942   5.899  15.981   2.603  0.0315 -0.0193 -0.0518
14049W        W29943  14.520  11.301   4.655 -0.1049 -0.1784  0.0254
14050W        W29944   6.200   4.256   4.621 -0.2081 -0.0462  0.0880
14051W        W29945   3.553   0.169   4.002 -0.1379 -0.0145 -0.1457
14052W        W29946  12.406  15.999   2.379  0.3086 -0.0908  0.0674
14053W        W29947   5.937  14.702   3.048  0.1697 -0.2305  0.0313
14054W        W29948   2.534   1.100  14.753  0.1213 -0.2412 -0.0359
14055W        W29949   8.007  13.759   3.897  0.0686  0.1294  0.1070
14056W        W29950  18.425   8.198  14.480 -0.1650  0.1328 -0.0203
14057W        W29951   1.869  17.435  14.425  0.1433  0.3885  0.0144
14058W        W29952  17.289  18.315   5.201 -0.0585 -0.0167  0.0344
14059W        W29953  13.953  18.320  10.118 -0.0480 -0.0814  0.0046
14060W        W29954  17.864   3.540   3.818 -0.1012  0.2147 -0.1480
14061W        W29955   3.808   2.930  15.393  0.1355 -0.1498  0.0072
14062W        W29956   1.235   0.689   3.785  0.5150  0.1844  0.1090
14063W        W29957   8.063   9.557   0.460  0.1656  0.0391 -0.0170
14064W        W29958  17.419  17.378   5.722  0.1196  0.3188  0.5416
14065W        W29959   0.667   1.248  14.510  0.1534 -0.1007 -0.2839
14066W        W29960   1.829   8.477   0.802  0.5594 -0.4522 -0.0431
14067W        W29961   5.266  15.953   4.646  0.0610  0.1062 -0.0302
14068W        W29962   1.368   2.556  11.382  0.1973 -0.0079 -0.0797
14069W        W29963  12.812   2.516  13.325 -0.1373  0.2777  0.3608
14070W        W29964  13.986   8.100   2.390 -0.0438  0.2817  0.1731
14071W        W29965   5.294  12.848   3.418  0.1637  0.0154  0.0099
14072W        W29966  12.321  14.644  15.181  0.1231  0.0601 -0.3376
14073W        W29967   8.442   9.149  10.780 -0.0227  0.1051  0.0492
14074W        W29968  16.722  16.685  10.984 -0.2281 -0.4682 -0.0842
14075W        W29969   9.630  13.000   0.194 -0.1863 -0.0029  0.0195
14076W        W29970   0.574   7.646   2.037 -0.0853  0.2109  0.0853
14077W        W29971   6.761   7.366   2.174 -0.0392 -0.1083  0.0717
14078W        W29972   8.919  14.615   2.208  0.2172 -0.1566 -0.0951
14079W        W29973   7.681  16.368  11.673  0.1173  0.1052  0.1598
14080W        W29974  17.594   9.410   5.193 -0.1614 -0.3381  0.1527
14081W        W29975   3.390  15.608  10.405 -0.1412  0.0324  0.1223
14082W        W29976  12.474   7.211   2.847  0.1027  0.0070  0.2695
14083W        W29977  17.993  11.804  11.675  0.4647 -0.0627  0.1002
14084W        W29978  18.616  16.090  10.318 -0.1791  0.0792 -0.0609
14085W        W29979   3.971   6.194   0.077 -0.1433  0.2192 -0.0440
14086W        W29980   8.647  10.703  10.202  0.2710  0.0138  0.0737
14087W        W29981  17.959   0.349  13.124  0.1212  0.0533 -0.3513
14088W        W29982   6.699   0.964  14.781 -0.1434  0.1924  0.3361
14089W        W29983  12.853   4.958  10.776  0.0448 -0.2892  0.1102
14090W        W29984   3.682  14.938   0.186 -0.2000 -0.3606 -0.2297
14091W        W29985  15.511  18.107   1.769  0.1681  0.0508 -0.1734
14092W        W29986   5.094   6.386  10.864  0.0091 -0.1315 -0.1203
14093W        W29987   5.779   9.929  14.699 -0.2450 -0.0718  0.1839
14094W        W29988  12.639  10.925   0.620  0.1301 -0.0643  0.2752
14095W        W29989  12.147  16.023  15.238  0.1403 -0.1965  0.2601
14096W        W29990  17.640   0.041  10.858 -0.1821 -0.0429  0.2569
14097W        W29991   2.826  10.115  14.525 -0.1642  0.0584 -0.0066
14098W        W29992   0.841   6.992   1.341 -0.0603 -0.0639 -0.0920
14099W        W29993   3.551   3.258   4.097  0.4895 -0.0383  0.2054
14100W        W29994   3.929   9.552   4.148 -0.0979 -0.1707  0.1100
14101W        W29995  15.352   4.802  13.132 -0.1384 -0.4662  0.1028
14102W        W29996   9.180   8.426  11.004 -0.3162 -0.3032  0.0931
14103W        W29997  12.056   4.722  13.493 -0.2825 -0.2117 -0.1232
14104W        W29998  14.923   4.028   0.845  0.2904 -0.1121 -0.1814
14105W        W29999   8.047  11.318   2.239  0.1162  0.1817  0.2286
14106W        W30000   4.727   4.407   2.164 -0.0487  0.1038  0.2251
14107W        W30001   9.146   0.110   5.946 -0.2040  0.1801 -0.0643
14108W        W30002  17.160  15.999   3.299 -0.0869 -0.1099 -0.0565
14109W        W30003   4.211   7.592  11.943  0.1921  0.3323 -0.4462
14110W        W30004  15.537   4.514  14.822  0.1042 -0.1664 -0.1725
14111W        W30005  11.827  16.319   0.041 -0.1058  0.0946  0.0013
14112W        W30006   1.859   6.314   0.067  0.3891 -0.0852 -0.3295
14113W        W30007  12.358  13.882  13.202 -0.3551 -0.0097  0.1551
14114W        W30008  10.776  13.133   2.934 -0.1747 -0.1077  0.2076
14115W        W30009  18.071  12.735  11.316  0.2942 -0.0245 -0.2527
14116W        W30010   7.299  18.573  13.735 -0.0022  0.1257 -0.1000
14117W        W30011  14.792  12.723  12.533 -0.1601 -0.0411 -0.1682
14118W        W30012   0.963   8.081   0.618 -0.1551 -0.3131 -0.1123
14119W        W30013  11.233  13.539   1.353 -0.0824  0.2006 -0.0876
14120W        W30014  12.887  10.931   2.663 -0.0875 -0.0440 -0.0661
14121W        W30015  14.717   3.627   0.478 -0.0510 -0.2952 -0.1191
14122W        W30016   8.200  14.480   5.269  0.0694 -0.0087  0.0232
14123W        W30017  11.928   8.733   5.822 -0.3100  0.0409  0.0511
14124W        W30018  16.349   2.956   2.813 -0.3114  0.1278  0.1071
14125W        W30019   4.257   7.704  12.420 -0.3245  0.1629 -0.3564
14126W        W30020  18.262  17.473   5.250  0.2458 -0.3151  0.1319
14127W        W30021  13.651  18.448   5.233 -0.0526 -0.2001 -0.0709
14128W        W30022   9.274  17.563  11.389  0.3026 -0.3502 -0.2516
14129W        W30023  10.527  14.792   0.727  0.2425  0.2350  0.1720
14130W        W30024   6.866   4.517  11.545 -0.0286  0.0938 -0.0781
14131W        W30025  14.775  18.500  13.935  0.1881 -0.0228 -0.1237
14132W        W30026   4.835   0.718   3.754  0.0901 -0.0347  0.1307
14133W        W30027   1.198  15.033   4.731  0.2617 -0.0463 -0.0203
14134W        W30028   8.791   2.170   0.016  0.0325  0.0625 -0.2248
14135W        W30029  14.204   5.897   2.180  0.2743  0.2383  0.4123
14136W        W30030   1.822   6.621   2.512 -0.2522 -0.1063  0.0339
14137W        W30031   0.445  12.501   0.272  0.1925 -0.0521  0.0261
14138W        W30032   2.013   5.273   2.483 -0.2191  0.1426 -0.4848
14139W        W30033   9.849   5.555  14.748  0.1168 -0.2314 -0.0521
14140W        W30034  18.250  11.640  12.069  0.0561 -0.2525 -0.0413
14141W        W30035   4.563  17.824  13.425 -0.1526 -0.3522  0.0698
14142W        W30036  13.731  15.919   3.233 -0.0860  0.1913 -0.3596
14143W        W30037  13.151   9.037  11.860  0.0969 -0.1619 -0.3378
14144W        W30038  14.704   0.437  14.563 -0.1506  0.2229  0.3851
14145W        W30039   7.010   4.534  15.269  0.2413 -0.3373 -0.0739
14146W        W30040   4.869  13.115   4.029 -0.1978  0.1462 -0.2136
14147W        W30041  12.635   2.044   1.518  0.3399  0.0718 -0.1407
14148W        W30042  14.126   1.604  12.308 -0.2121  0.4009 -0.0403
14149W        W30043   6.665   3.099   0.977 -0.2335 -0.1132  0.0199
14150W        W30044  16.158  10.958   2.895 -0.0603  0.2426  0.1130
14151W        W30045   2.132  17.165   3.836 -0.0267  0.0743  0.2021
14152W        W30046  13.893  18.112  12.017 -0.1121 -0.5162  0.1952
14153W        W30047  16.327   4.966  11.393  0.1467 -0.0282 -0.1755
14154W        W30048   2.835   9.906   2.416  0.2379  0.2487  0.2071
14155W        W30049  17.021  17.397  12.759 -0.0432 -0.2488 -0.1145
14156W        W30050  13.667   7.110  13.560  0.0952 -0.0529 -0.1872
14157W        W30051  18.072  15.378  11.343 -0.1637 -0.2859 -0.3716
14158W        W30052   6.343  12.288  13.208 -0.1233 -0.1251 -0.1519
14159W        W30053   7.048  13.260  11.196  0.1789 -0.1119  0.1625
14160W        W30054  13.987   9.869  12.307 -0.3691  0.0543  0.1435
14161W        W30055   8.169   2.298   2.463  0.0083 -0.1463  0.1429
14162W        W30056  17.053  15.109   0.554  0.4126 -0.0418  0.0836
14163W        W30057  10.042   0.634  11.048 -0.2612  0.2103  0.2417
14164W        W30058   7.207   3.203   4.316  0.0621 -0.1378  0.0805
14165W        W30059  17.597  14.927   3.104 -0.0533 -0.3006  0.0230
14166W        W30060   9.819   3.379   1.117  0.1554  0.0264 -0.2064
14167W        W30061  10.516   4.745  13.946 -0.2183 -0.2364 -0.4090
14168W        W30062   9.574  16.652  11.304 -0.1410 -0.1253  0.0605
14169W        W30063   5.145   5.018   1.213  0.1650  0.0767  0.2435
14170W        W30064  17.477   0.246  13.093  0.0323  0.1728  0.3792
14171W        W30065   5.674  15.444  13.653  0.0567 -0.3242 -0.1588
14172W        W30066  12.689   3.300   3.764 -0.2454 -0.3641 -0.2929
14173W        W30067  15.038  10.286   0.983  0.1382 -0.1863 -0.0674
14174W        W30068  13.577  13.792   0.545  0.1324  0.0533 -0.1150
14175W        W30069  18.691   0.170  13.181  0.1906  0.1723 -0.1304
14176W        W30070  11.607  17.548   2.163  0.4213  0.1924  0.1402
14177W        W30071  17.200   1.977   2.114  0.0001 -0.0325 -0.0562
14178W        W30072  15.632  15.921   4.318 -0.3902 -0.1903 -0.0670
14179W        W30073   5.170  11.048   2.921 -0.0274  0.1466 -0.0543
14180W        W30074   1.798  11.168   3.903  0.2513 -0.1358 -0.0027
14181W        W30075   9.800  13.751  12.521 -0.0373  0.1518  0.2128
14182W        W30076   7.801   2.775  10.809  0.0989  0.0291 -0.3782
14183W        W30077  13.681   8.461   3.472  0.0168  0.2083 -0.1948
14184W        W30078   4.356  15.575  12.749  0.0919 -0.3363  0.1756
14185W        W30079   8.744  13.066   3.046  0.2026 -0.0354  0.1600
14186W        W30080   9.359  12.387  13.627  0.4035  0.0610  0.2224
14187W        W30081   8.419   0.734  15.256 -0.1145  0.0435  0.1357
14188W        W30082  16.973   4.523  10.341 -0.1657  0.0759  0.3762
14189W        W30083  16.051   3.823  15.101  0.2333  0.1796  0.2752
14190W        W30084  14.788  13.613   4.958  0.2138  0.1302 -0.0053
14191W        W30085   6.961  14.366  12.049 -0.2187  0.0176 -0.2514
14192W        W30086  14.813  16.480  11.012  0.5134 -0.1021 -0.2486
14193W        W30087  10.536   2.858   3.017 -0.0398  0.0067 -0.2263
14194W        W30088  14.293  11.258  11.981 -0.1207 -0.0660  0.0847
14195W        W30089   4.347  14.487   2.724  0.1138  0.1826 -0.0267
14196W        W30090  14.450  12.794  12.166  0.0514 -0.0397 -0.1805
14197W        W30091  12.057  12.040  15.205  0.1671 -0.1165  0.0983
14198W        W30092  12.008   5.948   2.767  0.2798 -0.0377 -0.2490
14199W        W30093   8.597   2.304   0.627  0.1709 -0.1093  0.0461
14200W        W30094  18.840  16.659  10.819  0.0513  0.0845 -0.0246
14201W        W30095   4.845   5.409   4.685 -0.0164  0.4015 -0.0742
14202W        W30096   2.907  13.426   0.233 -0.0555 -0.3242 -0.2090
14203W        W30097  12.308  10.459   1.747  0.1576  0.2293  0.0512
14204W        W30098   3.098  14.805  11.654  0.0802  0.0550 -0.0428
14205W        W30099  13.031  18.460  13.215 -0.1136  0.0376  0.0179
14206W        W30100   0.230   3.760   4.701 -0.1087  0.0871 -0.0074
14207W        W30101   9.626  17.193  12.624  0.2272 -0.2296 -0.1528
14208W        W30102  10.317  13.721   5.621  0.1602  0.1533  0.0950
14209W        W30103  15.684   2.376   3.149 -0.3922 -0.0910  0.0483
14210W        W30104   8.144   7.500  10.705  0.0906  0.1524  0.0900
14211W        W30105   4.964  14.741  13.998 -0.1512  0.1939 -0.1904
14212W        W30106  15.770  16.291   4.581 -0.1733 -0.2550 -0.2296
14213W        W30107   7.227   4.359   0.677 -0.1153  0.1100 -0.1123
14214W        W30108   0.265  16.682   0.758 -0.3570 -0.1439  0.1698
14215W        W30109   7.128  10.761   9.796 -0.2707 -0.3519 -0.0138
14216W        W30110  14.988  16.733   0.929  0.2681 -0.2064  0.2364
14217W        W30111  11.601  15.311  11.969 -0.2507  0.3493 -0.1815
14218W        W30112   0.760   1.007   0.863 -0.2518 -0.1877 -0.1387
14219W        W30113  17.896  15.775   4.230  0.0938 -0.0066  0.1458
14220W        W30114   3.627   5.066   1.365 -0.0226  0.0873  0.2265
14221W        W30115   7.161   7.913   2.417 -0.0519 -0.0511 -0.2850
14222W        W30116   3.471   7.211  10.891 -0.1558 -0.1530 -0.0443
14223W        W30117  13.059   5.583   3.773 -0.0430  0.1748  0.0364
14224W        W30118   5.479   5.147   1.540 -0.2366  0.4969  0.2582
14225W        W30119  15.931  12.346  11.089 -0.1289 -0.0249 -0.0935
14226W        W30120  14.857   1.309   2.046  0.3750 -0.1072  0.1571
14227W        W30121   4.176  10.785  13.243  0.1141 -0.3803  0.0224
14228W        W30122  11.301   7.657  13.893  0.4821 -0.0648 -0.0062
14229W        W30123   4.407   6.502   5.521 -0.0535 -0.0009  0.2154
14230W        W30124  14.513  17.340  13.947 -0.1589  0.0143  0.1274
14231W        W30125   9.543   3.950  13.313  0.1071 -0.1768 -0.0936
14232W        W30126   1.970  18.194  11.254  0.0603 -0.0057 -0.0664
14233W        W30127  11.300  12.269   1.418  0.1751 -0.1362  0.0852
14234W        W30128  16.481   6.848  15.420  0.0935 -0.2743  0.0001
14235W        W30129   4.273  14.188  14.758 -0.2211  0.2050 -0.0634
14236W        W30130   3.534  14.311  11.530  0.0246  0.1059  0.2349
14237W        W30131   7.350   2.741  13.406 -0.0183 -0.3469 -0.2172
14238W        W30132  11.482   9.431   1.139 -0.3313  0.1336  0.3594
14239W        W30133  14.358  12.988   0.572  0.4019  0.0363  0.1400
14240W        W30134   4.245  10.250  11.029 -0.3921 -0.2346 -0.3022
14241W        W30135   9.431   5.973  13.346 -0.2231 -0.4910  0.1456
14242W        W30136   4.960  10.650  12.981  0.2066  0.0496  0.1177
14243W        W30137  17.683  13.379  12.358  0.3038 -0.1402  0.0121
14244W        W30138  11.052  12.696   3.026 -0.0049  0.0188  0.1792
14245W        W30139   5.723   6.431   4.011  0.0542  0.2374  0.0953
14246W        W30140   1.911  10.620   4.573 -0.2406  0.0275 -0.1206
14247W        W30141  12.175  11.595  14.131 -0.2955  0.0197  0.1016
14248W        W30142   9.881  13.661  15.263 -0.2607 -0.0513 -0.3102
14249W        W30143  11.811  16.804  11.757  0.2361 -0.2401 -0.3958
14250W        W30144   1.501  17.904   3.157  0.0306  0.1730 -0.1648
14251W        W30145   3.422  15.307  10.013  0.1465 -0.2261  0.1237
14252W        W30146   8.450  17.387   4.155 -0.1771 -0.3737  0.2410
14253W        W30147  14.715  13.920  14.706 -0.3987 -0.4107 -0.1927
14254W        W30148  17.403  10.823  11.750 -0.1899  0.1078 -0.3371
14255W        W30149   7.492   4.585  11.459 -0.1408  0.0876 -0.2218
14256W        W30150  12.603  12.859   5.330 -0.2443  0.0897  0.2080
14257W        W30151  11.078   1.062  14.368  0.5279 -0.0205  0.1996
14258W        W30152  17.458   9.148  14.611 -0.0636 -0.3514 -0.1722
14259W        W30153   2.104  14.263  11.186 -0.0051  0.0533  0.2714
14260W        W30154   7.919   8.821  11.199 -0.1368  0.1517 -0.0585
14261W        W30155   3.902  11.791   5.105 -0.2279  0.3502  0.0822
14262W        W30156   3.493   1.408   3.252  0.0449 -0.2707  0.3327
14263W        W30157   0.866  16.896  15.242  0.0855  0.2435  0.0578
14264W        W30158   8.671  12.632   2.315  0.0555  0.1487 -0.3766
14265W        W30159  11.277   5.125   1.045 -0.1251 -0.0097  0.3039
14266W        W30160   1.619   2.751  14.675  0.2318  0.0541 -0.0513
14267W        W30161  17.526  12.581   4.801  0.2873  0.0128  0.2284
14268W        W30162   2.633   8.291  13.128  0.2640 -0.1248 -0.0170
14269W        W30163   7.901   1.444  11.499  0.1575  0.2437  0.1435
14270W        W30164  11.625  17.537   4.752 -0.1817 -0.1078 -0.1109
14271W        W30165  16.584   6.481  11.390  0.2067  0.1646  0.0587
14272W        W30166   9.660   7.538  13.958 -0.1047 -0.1079  0.1854
14273W        W30167  11.054  10.843  14.370  0.2251 -0.1527  0.2846
14274W        W30168   1.176  11.237  13.476  0.1553 -0.0371  0.0020
14275W        W30169   5.559   8.851  11.043 -0.1129 -0.1342  0.1646
14276W        W30170   3.541   5.468   2.478 -0.2005 -0.0704  0.4798
14277W        W30171   0.502   7.606   3.385 -0.0601  0.1732  0.3995
14278W        W30172   8.711   2.907  10.143 -0.0555 -0.1725 -0.0817
14279W        W30173   8.832  16.402  13.418  0.1811  0.1083  0.1618
14280W        W30174  12.231   0.285  12.281 -0.0283 -0.2756 -0.2516
14281W        W30175   9.580  15.637  11.536 -0.0510  0.5046 -0.1874
14282W        W30176  14.361   6.723   0.458 -0.2923 -0.0135 -0.2686
14283W        W30177  11.743  12.645  11.006 -0.3558 -0.0209  0.1584
14284W        W30178   2.298  18.077  10.260  0.1986  0.0697  0.2355
14285W        W30179   6.905   0.322  14.321 -0.1089 -0.2348 -0.1524
14286W        W30180  12.911  13.546   2.325  0.0297 -0.1397  0.2349
14287W        W30181   4.994   5.096  12.322 -0.0723  0.0964  0.0199
14288W        W30182   1.864   3.608   4.700  0.3647 -0.0380 -0.2220
14289W        W30183   5.506   6.862   2.091 -0.1572 -0.1320 -0.0396
14290W        W30184  18.825   9.681  11.639  0.0741 -0.0727  0.0544
14291W        W30185   0.145  15.897   0.490 -0.0396 -0.1064  0.0135
14292W        W30186  12.490   3.040  14.405  0.0808  0.0471  0.1495
14293W        W30187   4.815   8.592  11.248  0.1711  0.3037  0.3653
14294W        W30188  13.684  14.898   4.973  0.0043 -0.0427 -0.2395
14295W        W30189   0.761  11.352  12.358  0.0519 -0.2932 -0.1771
14296W        W30190  14.685   3.384  11.211 -0.1423 -0.0250 -0.0711
14297W        W30191  10.704  17.673   1.104 -0.2203  0.1029 -0.1860
14298W        W30192   2.546   0.738   4.062 -0.1748  0.0697  0.1047
14299W        W30193  15.816   2.863   3.264  0.3101  0.1631  0.1846
14300W        W30194  11.707  17.001   0.273  0.6318  0.3459 -0.3014
14301W        W30195   8.648   9.585   1.781 -0.2096 -0.0277 -0.0034
14302W        W30196   8.297  13.415   0.008  0.4033  0.1637 -0.2273
14303W        W30197   3.142   5.489  10.951 -0.0142 -0.0376  0.1258
14304W        W30198   4.129   2.009  14.609  0.2816 -0.2966 -0.1660
14305W        W30199  16.106  15.338  14.216 -0.1642  0.2092  0.0236
14306W        W30200   5.326  18.353   1.175  0.3547 -0.2212 -0.0400
14307W        W30201  13.856   1.219  11.465  0.1076 -0.1091  0.1551
14308W        W30202   8.536  10.512  13.077 -0.1682 -0.1197  0.1709
14309W        W30203   1.581  15.346   5.099 -0.1370 -0.0939  0.2555
14310W        W30204  15.989  17.087  14.616  0.0000 -0.0129 -0.1150
14311W        W30205   4.327  16.619  13.531 -0.0500  0.1199 -0.2845
14312W        W30206   4.476  11.094   0.562 -0.2689  0.2708  0.0901
14313W        W30207  16.411  17.830   4.288  0.1394  0.0048  0.0710
14314W        W30208  14.007  10.196   3.311  0.1530  0.0978 -0.2330
14315W        W30209  15.302  11.897   1.608 -0.1513 -0.0018  0.1533
14316W        W30210   2.062   9.340  11.286 -0.1803 -0.2563  0.0297
14317W        W30211   1.296   8.658   4.463  0.1816 -0.1440 -0.2923
14318W        W30212  17.586  11.184   0.452 -0.0877  0.3533  0.0195
14319W        W30213   2.182  10.613  10.723  0.2828 -0.2022 -0.2704
14320W        W30214   7.856   1.913  14.122 -0.2808  0.1613 -0.0722
14321W        W30215  16.080  14.023   1.054 -0.1299  0.0737 -0.2779
14322W        W30216  13.551   9.788  15.080 -0.4287  0.0389  0.1240
14323W        W30217   5.532   0.507   3.651  0.0966  0.3072  0.0388
14324W        W30218   9.090   7.345  15.246 -0.0241  0.0252 -0.1006
14325W        W30219   7.228   0.931   1.477  0.3081 -0.2472 -0.3192
14326W        W30220  14.608  14.781  13.843 -0.1326 -0.1429  0.0068
14327W        W30221   1.667   3.456   0.493  0.0342 -0.1851 -0.1502
14328W        W30222  15.160   2.062   2.244 -0.0014  0.0604  0.1620
14329W        W30223   2.553  16.807   3.085  0.2120  0.0857  0.3545
14330W        W30224  16.710   4.289   3.442 -0.1767 -0.0538  0.2788
14331W        W30225  14.125  15.089   6.161 -0.1006 -0.1040 -0.5239
14332W        W30226   4.959   1.753   3.609  0.1893 -0.0451  0.0938
14333W        W30227   8.664   1.433   3.988  0.2002 -0.2803  0.1729
14334W        W30228   6.306   5.551   3.256  0.2512  0.0874  0.0839
14335W        W30229  17.635   6.315   2.752  0.1126 -0.1334 -0.2670
14336W        W30230   1.696  13.425  12.638 -0.4064 -0.3259 -0.4397
14337W        W30231  15.848   8.442   2.460 -0.0539 -0.1101  0.1945
14338W        W30232  11.859   2.411   3.860 -0.2007 -0.2482 -0.2045
14339W        W30233  13.604   8.477   2.507  0.2706  0.0788 -0.1594
14340W        W30234   5.754  18.578  11.057 -0.1063 -0.2640  0.0496
14341W        W30235  14.751   5.158   1.692 -0.2284  0.1258  0.2038
14342W        W30236   3.457  12.557  11.981 -0.2388 -0.1336  0.1999
14343W        W30237  12.422  17.955  13.961 -0.5207 -0.1858 -0.1555
14344W        W30238   8.596  10.578  11.377  0.2006 -0.2025  0.1405
14345W        W30239  17.921   8.291  11.652  0.0290  0.0271 -0.2836
14346W        W30240  14.516   9.455   4.993  0.3153  0.0635 -0.1174
14347W        W30241   5.343  17.495   0.731  0.3266 -0.0474 -0.0796
14348W        W30242   4.868  12.457  15.071  0.1195 -0.0317 -0.0426
14349W        W30243   0.848   2.363   9.410  0.0644 -0.1098 -0.1804
14350W        W30244   4.448  12.083  12.882  0.2652 -0.0859 -0.3395
14351W        W30245  18.104   0.685  11.273 -0.0744  0.2609 -0.1554
14352W        W30246  11.847   9.408   3.623 -0.3054  0.0199  0.2001
14353W        W30247   9.767   0.217  14.909  0.3415 -0.2788  0.0402
14354W        W30248  17.813  16.498  10.755 -0.0147 -0.1287 -0.0882
14355W        W30249   1.627  13.736  14.078 -0.1483 -0.2228  0.1677
14356W        W30250   9.502   2.507   3.474  0.1406  0.0072 -0.5719
14357W        W30251   5.758  15.020   1.273 -0.0922  0.0129 -0.0180
14358W        W30252   4.106   9.139   0.848  0.0710 -0.0569 -0.2251
14359W        W30253   3.621  17.830  11.554 -0.0327  0.3912  0.0562
14360W        W30254   3.007  17.414   1.458 -0.2356  0.2481 -0.0338
14361W        W30255   9.877   2.978  15.439 -0.0006  0.3033 -0.0095
14362W        W30256   6.217  16.656  14.479 -0.2909 -0.1484 -0.0664
14363W        W30257  11.965  15.354   6.217  0.0834 -0.0309 -0.0668
14364W        W30258   8.427  13.991   0.629 -0.4217 -0.1757 -0.1618
14365W        W30259   1.540  15.047   3.565 -0.0264  0.0182 -0.0608
14366W        W30260  11.683  10.550   1.276  0.3739  0.3968  0.0201
14367W        W30261  13.151  13.108  14.879  0.1469 -0.0939  0.0300
14368W        W30262   4.409  17.240  14.086 -0.1169  0.1943 -0.3291
14369W        W30263  10.613  16.389   3.404  0.2413  0.3356  0.0273
14370W        W30264   1.957   8.160  13.100 -0.2067  0.1353  0.3409
14371W        W30265  17.510  10.572   3.193 -0.0124  0.2413 -0.1027
14372W        W30266   7.021  12.884   4.946  0.0792  0.2093 -0.1814
14373W        W30267   8.275  14.099  11.233  0.1216  0.0364 -0.1949
14374W        W30268   5.099  13.594  11.294  0.4996  0.2499 -0.1263
14375W        W30269  11.991   0.729   1.789 -0.1733 -0.2817  0.2687
14376W        W30270   1.575   1.313   1.088 -0.0905 -0.3397  0.3517
14377W        W30271   1.070  10.459  12.507 -0.0353  0.2675 -0.3954
14378W        W30272   4.447   1.830   3.412  0.0698  0.0463 -0.1433
14379W        W30273  15.457   5.905   4.746  0.3508 -0.1507 -0.0037
14380W        W30274   6.770  18.012   4.210  0.0754  0.0635 -0.0866
14381W        W30275  16.132  10.233   2.261 -0.1548 -0.2157 -0.0404
14382W        W30276  10.677  13.363  14.377 -0.0869 -0.0470 -0.3295
14383W        W30277   0.813   2.492  15.391 -0.2854 -0.2513 -0.0089
14384W        W30278   3.751   0.948   2.809  0.0509  0.1149 -0.1491
14385W        W30279   7.864   6.990   3.302  0.0921 -0.1366  0.2492
14386W        W30280   1.552   7.054   5.263  0.1533 -0.4004  0.2208
14387W        W30281   5.990  13.881  15.307  0.0648 -0.0008  0.1742
14388W        W30282   2.747   7.529   0.593 -0.0793 -0.2498  0.0214
14389W        W30283   6.649  15.539   0.631 -0.1743 -0.1825 -0.0887
14390W        W30284   4.374   7.314   3.067 -0.1180  0.2659 -0.4345
14391W        W30285  10.602   0.938   5.199  0.2181  0.1733  0.1730
14392W        W30286   5.399  10.273  13.883 -0.1562 -0.0927 -0.0216
14393W        W30287  14.243  11.093  14.227  0.1067  0.0228 -0.1835
14394W        W30288   4.816   1.809  12.887 -0.4223  0.1136 -0.1121
14395W        W30289  14.871   1.018  12.031 -0.1911  0.1090 -0.0894
14396W        W30290   6.357   5.384   1.756  0.1282 -0.0576  0.0038
14397W        W30291   9.501  16.472  15.068  0.3064 -0.1198  0.2310
14398W        W30292   0.320  15.860   1.930 -0.0473 -0.2184  0.0220
14399W        W30293   1.954   4.310  12.258  0.2672  0.0625  0.4294
14400W        W30294  11.200   9.067   3.011  0.2274 -0.1328 -0.2622
14401W        W30295   3.245  10.851  12.081 -0.1370 -0.0784  0.1375
14402W        W30296   5.489  16.851   0.060  0.3305 -0.0332  0.1652
14403W        W30297   3.810  11.021   4.500 -0.0629 -0.2825 -0.1254
14404W        W30298   9.628   4.659  12.627  0.0357 -0.2440  0.1748
14405W        W30299   8.633  17.942   4.693  0.0431 -0.0433  0.0380
14406W        W30300   5.547   4.876   5.233  0.1048 -0.1194  0.2898
14407W        W30301  14.329   2.321  14.465  0.1437 -0.1995  0.1528
14408W        W30302   4.925  17.267  14.209  0.1390  0.1158  0.0422
14409W        W30303   6.433  15.448   5.112 -0.2742  0.0264 -0.0976
14410W        W30304   4.984  13.592  13.243 -0.2380  0.0761  0.0158
14411W        W30305   2.658   1.616   5.508  0.1071  0.2217 -0.1427
14412W        W30306   2.523   2.920  12.351 -0.4377 -0.1656 -0.3121
14413W        W30307   3.131  17.293   3.451 -0.2670  0.3155 -0.0329
14414W        W30308  12.237   4.549   3.026  0.0766  0.0886  0.0919
14415W        W30309   0.288  18.721   3.408 -0.0022  0.0853 -0.0169
14416W        W30310  10.945  17.021  10.849 -0.3697 -0.0809  0.1433
14417W        W30311   7.550   4.898  13.560 -0.1835  0.0774 -0.1232
14418W        W30312   9.776   4.888   4.942 -0.0627  0.2103  0.2415
14419W        W30313  10.572  17.317   0.542 -0.4058 -0.3448  0.0820
14420W        W30314   1.982  17.947   2.986  0.0644  0.0330  0.1413
14421W        W30315  16.304  15.708  11.813 -0.2873 -0.0486  0.0737
14422W        W30316   0.545  13.443  12.137 -0.1246  0.0112 -0.4746
14423W        W30317   8.061  16.010  12.270  0.0005  0.2338  0.0780
14424W        W30318  10.147   6.376  13.053  0.2344  0.0656  0.0127
14425W        W30319   4.469  12.818  14.894 -0.1062  0.2111 -0.2962
14426W        W30320  10.631  17.667  13.942  0.2440 -0.3148  0.0064
14427W        W30321  11.876   1.971  14.597 -0.1697  0.0880 -0.0761
14428W        W30322  12.010   4.749  11.612  0.0234 -0.1411 -0.4770
14429W        W30323   7.664  12.792  10.835  0.0170  0.2256  0.1787
14430W        W30324  11.524  16.544  12.122  0.1616  0.5033 -0.0448
14431W        W30325  17.826   7.776   1.310 -0.0279 -0.1124 -0.1835
14432W        W30326   7.772  13.956  15.259 -0.2219  0.1328 -0.1001
14433W        W30327   8.785   8.026  11.655 -0.0287  0.0028  0.0531
14434W        W30328  11.767  16.772   4.634  0.0888  0.0673  0.1229
14435W        W30329   6.784   4.366   1.882  0.0263  0.1054 -0.1599
14436W        W30330  14.962   7.448  11.540  0.0335 -0.2697  0.0319
14437W        W30331  14.537  15.055  12.592  0.3671  0.2065 -0.0436
14438W        W30332  10.322   9.863   5.442  0.0880  0.0161  0.0601
14439W        W30333   4.359  18.832   4.029  0.2110 -0.0365 -0.0976
14440W        W30334  13.994  16.245  11.621 -0.0341 -0.1851 -0.0909
14441W        W30335   2.716   0.842   3.188 -0.0998  0.2491  0.2645
14442W        W30336  13.888  11.586   3.922  0.0271 -0.0950 -0.1638
14443W        W30337   5.223  18.683  13.473 -0.0318 -0.0437  0.0881
14444W        W30338  17.307  16.258   5.792  0.2212 -0.0800 -0.4581
14445W        W30339   9.499   9.009  12.814  0.0064 -0.0284  0.0376
14446W        W30340   5.442  11.221  14.267 -0.2771 -0.4187  0.2196
14447W        W30341   5.638   6.877  13.721 -0.1620  0.1648  0.0035
14448W        W30342   3.017  15.362   9.589 -0.1743 -0.1895 -0.1027
14449W        W30343  13.643  18.165  12.788 -0.0437  0.1566 -0.1895
14450W        W30344   8.942  15.944   4.470  0.0375 -0.0792 -0.0703
14451W        W30345   6.311  13.137  12.366  0.0662 -0.1491  0.0720
14452W        W30346   5.425   5.049  12.620  0.1152  0.0550  0.3384
14453W        W30347   4.755  13.614   3.464 -0.0507  0.2100  0.1942
14454W        W30348  14.137  18.039   2.824  0.1957  0.1153 -0.0961
14455W        W30349  16.846   1.736   2.916 -0.0720 -0.0529 -0.4635
14456W        W30350   5.090  17.081  13.773  0.1649  0.1203  0.0288
14457W        W30351   3.061  16.206  13.678  0.0219  0.1692 -0.0333
14458W        W30352   4.585   7.005  12.690 -0.0013  0.0547 -0.1487
14459W        W30353  13.745  17.282   4.902 -0.3793  0.0531  0.1708
14460W        W30354   4.258   6.477  15.343  0.1791 -0.1125 -0.2704
14461W        W30355  11.036  17.792  14.172 -0.0931 -0.0989  0.0180
14462W        W30356   9.068   6.050   9.892 -0.0616 -0.1252 -0.1951
14463W        W30357  17.816  17.521  13.274  0.0199  0.1886  0.0904
14464W        W30358   8.822   4.840  12.771 -0.1364  0.3317 -0.1810
14465W        W30359  11.827   3.862   5.061  0.3346  0.1419 -0.1401
14466W        W30360   4.195   2.148   5.222 -0.1322 -0.1731  0.3105
14467W        W30361   9.647   4.690   1.406 -0.0903  0.2824 -0.1920
14468W        W30362   3.863  17.730  11.005 -0.3451  0.0025  0.1695
14469W        W30363  12.731   5.940   3.477  0.2963  0.1887  0.0892
14470W        W30364   4.839   5.982   2.935  0.0585 -0.0662 -0.0101
14471W        W30365   7.414   4.433   4.020  0.3103  0.1427 -0.1994
14472W        W30366  15.487   3.949  11.687 -0.0299  0.1444 -0.0429
14473W        W30367  12.559   1.410  14.265  0.2072  0.2524 -0.2271
14474W        W30368   7.936  14.612   3.297 -0.1188  0.0374 -0.0115
14475W        W30369  12.344  17.602   5.298 -0.0457 -0.1000 -0.2870
14476W        W30370  14.145   2.814  11.119 -0.1924 -0.1287 -0.1554
14477W        W30371  17.465  17.419  10.819 -0.3731 -0.1337  0.3323
14478W        W30372   0.928   7.136   4.104  0.0005  0.2267  0.0986
14479W        W30373   0.356  12.981   3.926 -0.2870 -0.1750  0.3079
14480W        W30374   8.981  18.783   0.185  0.2844 -0.0680  0.0725
14481W        W30375   4.090   5.185   3.183  0.1289  0.0336 -0.0510
14482W        W30376   6.941  10.261   0.322 -0.2027 -0.3131  0.0854
14483W        W30377  18.406   7.151   9.843  0.0848 -0.2681  0.3200
14484W        W30378  11.361   2.030  13.793  0.2915  0.2190 -0.1264
14485W        W30379  11.511  11.739  14.660 -0.0279 -0.0068 -0.0956
14486W        W30380  18.194  10.461  10.804  0.1391 -0.1826  0.0660
14487W        W30381  11.436   2.274   2.714 -0.1321 -0.0796  0.0116
14488W        W30382   8.691  12.550  13.061 -0.2980 -0.1043 -0.1015
14489W        W30383   1.366  13.900   4.982 -0.0269 -0.0821 -0.1913
14490W        W30384   7.175   3.342   1.085  0.1988 -0.0749 -0.0983
14491W        W30385  10.085   1.953  14.354  0.0316 -0.4776 -0.0155
14492W        W30386   5.005   4.052   4.696  0.1226 -0.3156 -0.3509
14493W        W30387   4.744  17.197   4.180 -0.2600 -0.0106 -0.0850
14494W        W30388  15.231   4.618  12.653  0.0947  0.1375 -0.1465
14495W        W30389  15.674  12.366   0.229 -0.0760  0.2194  0.2729
14496W        W30390  17.786  11.943   2.658  0.1706 -0.0832  0.0648
14497W        W30391   1.831   3.456  15.467 -0.1657 -0.3204 -0.2681
14498W        W30392  14.600   5.480   3.926  0.0050  0.2926 -0.0458
14499W        W30393  14.174   2.243  12.402 -0.3078 -0.0655  0.2435
14500W        W30394  17.248  15.465  11.925 -0.2645  0.1297 -0.0647
14501W        W30395   6.885   9.844   5.465 -0.0823 -0.1462 -0.3129
14502W        W30396  18.125   7.949   3.556 -0.3684  0.3512  0.1552
14503W        W30397   8.760   8.941   2.374 -0.1527  0.2225  0.4038
14504W        W30398  16.618   8.439   2.544  0.0846  0.0334 -0.0794
14505W        W30399  10.481  14.849   1.723 -0.0505 -0.1978 -0.2008
14506W        W30400   0.874  11.139  15.065  0.1088 -0.2194  0.2060
14507W        W30401  11.267  13.736   0.878 -0.1035 -0.1970 -0.3751
14508W        W30402  17.820   5.748  10.118  0.1390  0.2189 -0.0763
14509W        W30403  11.650  13.146   0.005 -0.0244  0.1397  0.0666
14510W        W30404  10.096   7.654   3.185 -0.2027 -0.1932  0.1169
14511W        W30405   1.842  13.735   5.203  0.0254  0.0902 -0.0606
14512W        W30406   7.347  15.607   1.263 -0.2152  0.2689  0.2498
14513W        W30407  11.432   3.868  13.204  0.1621  0.1576  0.5924
14514W        W30408   6.603  18.434   3.576  0.1752  0.0356  0.0056
14515W        W30409   6.674   9.765  13.780 -0.0026  0.2391  0.1295
14516W        W30410   5.056   1.344  14.182 -0.0930  0.0140 -0.1710
14517W        W30411   3.095   9.086   9.439 -0.1228  0.0776 -0.0892
14518W        W30412  15.658  14.781  13.672 -0.0710 -0.1359  0.3183
14519W        W30413  13.621   3.242   0.924  0.0647  0.0125 -0.0947
14520W        W30414   3.720   7.367   1.895  0.0706 -0.1691  0.1287
14521W        W30415   8.159  15.253   0.718  0.1000 -0.1542 -0.0063
14522W        W30416   4.354   3.682  13.571  0.3447 -0.0119  0.4334
14523W        W30417   6.551   8.674   3.328  0.1345 -0.1894  0.2074
14524W        W30418  11.039  18.330  11.475 -0.0108  0.3857  0.0292
14525W        W30419   9.124   1.647   3.897 -0.0157 -0.0221  0.1381
14526W        W30420  17.974  18.344  11.593  0.0371 -0.2611  0.0853
14527W        W30421  11.582   3.094  14.578  0.1001 -0.3719  0.2541
14528W        W30422   7.955   2.849   1.799 -0.3077  0.0669  0.3075
14529W        W30423   0.798  18.107   2.972 -0.1642  0.3010 -0.1503
14530W        W30424   5.301   4.092  12.467 -0.3821  0.1877  0.0177
14531W        W30425  11.958  13.848   3.144 -0.0655 -0.0052 -0.0533
14532W        W30426   1.207   1.863   0.270 -0.3004 -0.0863 -0.1331
14533W        W30427  18.225   4.319   0.307 -0.0382 -0.0854  0.0660
14534W        W30428  15.445   7.225   4.434  0.1195  0.0187  0.1544
14535W        W30429  17.261  17.741  12.484  0.3018  0.0179 -0.0768
14536W        W30430  10.738  14.984  15.008  0.1117  0.0775  0.2193
14537W        W30431  17.925   5.141  10.448 -0.0687  0.1611 -0.0935
14538W        W30432   9.619   8.470   0.934 -0.0776  0.0623 -0.0349
14539W        W30433   6.440   3.421  14.929  0.1380 -0.0244  0.2538
14540W        W30434   0.596  10.776  14.225  0.1874 -0.2106  0.2055
14541W        W30435   4.575  10.344  13.106 -0.1097  0.0812 -0.1302
14542W        W30436  13.934   8.720   1.069  0.0438 -0.0868  0.0917
14543W        W30437  14.990  14.475   4.141 -0.2285 -0.2060  0.5892
14544W        W30438  17.951   4.727  10.724  0.1091  0.2118 -0.0157
14545W        W30439   0.969   2.020   4.523  0.3624 -0.0635 -0.1164
14546W        W30440  14.745   0.682   0.190  0.0599 -0.1850  0.0240
14547W        W30441  18.640   5.712  10.354  0.0560  0.1046  0.0138
14548W        W30442  17.622  18.789  15.274  0.1119  0.1091 -0.1374
14549W        W30443   9.078   5.038  11.828 -0.0533  0.2237  0.1370
14550W        W30444  10.890   8.553   4.206  0.0783  0.0896 -0.2995
14551W        W30445   3.276   1.402  12.471 -0.0131 -0.0978 -0.0273
14552W        W30446   1.548   3.803  12.042 -0.2306 -0.1779 -0.1274
14553W        W30447  17.717   6.804   2.433  0.2169 -0.1318 -0.1176
14554W        W30448  10.376  12.184   2.555 -0.3319  0.4412  0.2736
14555W        W30449  16.849  17.618   2.845 -0.2344  0.0844 -0.1267
14556W        W30450   6.896  15.273  11.770 -0.2922  0.1864  0.2533
14557W        W30451   2.077  15.725   1.588 -0.0587 -0.1391  0.1994
14558W        W30452  18.408  18.848  14.246 -0.1946  0.1203  0.4161
14559W        W30453   1.429   3.965  12.499  0.0999  0.1772 -0.0262
14560W        W30454  16.996   4.419  15.168  0.0114 -0.0413 -0.2626
14561W        W30455  12.910   7.636   3.202 -0.0723  0.1797 -0.2671
14562W        W30456   4.373  14.570   0.887  0.1065 -0.1451  0.2069
14563W        W30457   2.703   9.854   0.543 -0.0648  0.0055 -0.2752
14564W        W30458  15.194  13.120  14.157 -0.0530  0.0401  0.2140
14565W        W30459   5.612   8.069   3.718  0.1273 -0.0714 -0.0552
14566W        W30460   9.514   1.138   0.658  0.0548  0.0463  0.1063
14567W        W30461   3.865  17.271   1.313 -0.2887  0.0164  0.1284
14568W        W30462  14.874   5.604   1.389 -0.0925 -0.0494 -0.4225
14569W        W30463   9.849   4.490  14.588 -0.1214  0.0867  0.0538
14570W        W30464   2.241   1.599  10.570  0.0443 -0.0017  0.2538
14571W        W30465   6.093   1.781   0.784 -0.2587 -0.1629 -0.1694
14572W        W30466  17.366   1.425  12.294 -0.0226  0.1082 -0.2850
14573W        W30467  16.068   8.615   0.467 -0.1622 -0.1274  0.0111
14574W        W30468   8.987   4.530   5.134  0.0083 -0.1255 -0.5677
14575W        W30469  16.789  15.050  14.806  0.1016 -0.2123 -0.1746
14576W        W30470  18.526  17.088   3.913 -0.0050 -0.0985  0.3642
14577W        W30471  12.408   0.644   0.871  0.0391 -0.1835 -0.1433
14578W        W30472   4.948  11.193  10.590  0.1588 -0.1119 -0.0240
14579W        W30473  18.055  14.504   4.640 -0.1625  0.0117 -0.1445
14580W        W30474   9.713   2.821   3.808  0.0528  0.3080  0.3660
14581W        W30475  15.074   6.670  12.228  0.0748 -0.0091 -0.2490
14582W        W30476  18.586   3.641   4.323  0.0844  0.0233  0.0767
14583W        W30477  10.329   0.796   0.845 -0.3886  0.5392 -0.1531
14584W        W30478   0.148   9.443  13.040 -0.1556  0.2118 -0.1277
14585W        W30479   8.071   4.866  10.520 -0.1407 -0.0003  0.1283
14586W        W30480   7.270   1.808  11.057 -0.0798  0.2319 -0.0028
14587W        W30481  10.978   5.598   0.501  0.2661 -0.0287 -0.0431
14588W        W30482   7.083  14.834  11.975  0.3533 -0.1316  0.1739
14589W        W30483  13.444   5.907  11.629  0.3367  0.0038 -0.1737
14590W        W30484   0.300   2.417   0.091 -0.1856  0.1444 -0.3178
14591W        W30485  14.534  16.377   3.569  0.0507 -0.0394  0.1871
14592W        W30486  10.013  11.009  11.145 -0.0632 -0.0910  0.1021
14593W        W30487   5.794   1.218   4.724 -0.1734 -0.0494  0.1703
14594W        W30488   6.326  16.808   3.760 -0.1330 -0.3917  0.1173
14595W        W30489   9.708  18.472  10.865  0.0602  0.2476 -0.0197
14596W        W30490  14.969   2.010   4.721 -0.1673 -0.2739 -0.3214
14597W        W30491   1.758   4.327  10.076 -0.2753 -0.1602 -0.0463
14598W        W30492  16.041  15.110   1.407 -0.3427 -0.1465  0.2757
14599W        W30493  11.756   2.504   1.023  0.0774  0.2952  0.1621
14600W        W30494   8.255   2.099  14.510 -0.1377  0.3129 -0.0994
14601W        W30495  13.389  12.411  14.310 -0.3358  0.0593  0.5061
14602W        W30496   3.875  14.647  13.192  0.0392 -0.0730 -0.0161
14603W        W30497   7.532   2.348  11.183 -0.1726 -0.0490  0.4889
14604W        W30498  10.430   9.776  10.806  0.4549 -0.1165  0.1475
14605W        W30499  17.208   7.070   1.664 -0.0785  0.2119 -0.0504
14606W        W30500   8.519   7.224  13.138  0.0598 -0.1744  0.1949
14607W        W30501  11.660  13.591   1.131 -0.1432  0.3488  0.0772
14608W        W30502   2.122   1.254   1.130  0.0362  0.3641 -0.3170
14609W        W30503  15.090   1.553  11.925 -0.1778 -0.3282  0.3135
14610W        W30504  11.081   6.409  12.337 -0.0922  0.2118 -0.0723
14611W        W30505  13.844  17.041  12.516 -0.1805 -0.1868  0.2127
14612W        W30506  17.054   5.373  10.492  0.0909  0.0036 -0.0844
14613W        W30507   3.633   9.132   4.283  0.1354  0.2615  0.1637
14614W        W30508   5.105   3.934   1.478  0.1651 -0.1169 -0.2154
14615W        W30509   3.592  14.352  12.940 -0.0851  0.0959  0.1254
14616W        W30510  12.363   9.891   1.804  0.0250 -0.2658  0.1208
14617W        W30511   6.130  14.077   1.274  0.3632  0.2567 -0.4875
14618W        W30512   2.572  15.862  12.294 -0.1560  0.0933 -0.1088
14619W        W30513  15.061   0.046   1.930  0.1060  0.0544  0.1857
14620W        W30514  16.928   4.936   1.240 -0.0207  0.1783 -0.1900
14621W        W30515   6.269   9.102   2.392  0.3682 -0.1873 -0.0969
14622W        W30516  16.562   5.040   2.075  0.2478  0.2635  0.3983
14623W        W30517   0.213   9.766  15.074 -0.4337 -0.3737 -0.0452
14624W        W30518  10.525   5.350  11.664  0.0749  0.0807  0.2017
14625W        W30519   1.471   6.303   3.553 -0.0687 -0.2237 -0.0793
14626W        W30520  17.826   7.563  12.878  0.0494  0.0378  0.1703
14627W        W30521  11.064  17.303   1.533  0.1600 -0.0499  0.1786
14628W        W30522  14.905   7.147  10.494 -0.0999 -0.0106 -0.2786
14629W        W30523   8.032   6.282  12.259 -0.3597  0.3597 -0.2653
14630W        W30524   6.197   6.303  13.204  0.0497 -0.1016  0.0556
14631W        W30525   2.169   7.826  13.856  0.1116 -0.1412  0.0832
14632W        W30526   0.447  18.810   4.234 -0.0255  0.0416 -0.0654
14633W        W30527  10.021   4.750  11.654 -0.3062  0.2004  0.3198
14634W        W30528   9.086   5.405  12.845 -0.0568 -0.2758  0.0004
14635W        W30529  12.592  14.885  11.823 -0.3714 -0.1518  0.1587
14636W        W30530  11.860  10.832  13.186  0.0695  0.0058 -0.2433
14637W        W30531  17.354   8.066  13.833 -0.1557  0.0829 -0.4641
14638W        W30532  18.373  16.243  14.437 -0.3177 -0.0425  0.0935
14639W        W30533   3.054   3.220  15.094 -0.5184  0.2959  0.2259
14640W        W30534  10.013  11.873   4.739  0.0396 -0.1658 -0.0300
14641W        W30535   3.744   4.105   3.972  0.2575 -0.2113 -0.0972
14642W        W30536  14.400  15.762  14.051  0.0604 -0.0554 -0.0861
14643W        W30537   2.995  16.866  12.974 -0.2041 -0.1143 -0.0856
14644W        W30538  18.362   7.225  12.890 -0.1689  0.3851  0.0594
14645W        W30539   8.260   6.091   4.220  0.0810  0.2241  0.0251
14646W        W30540   4.626   2.178  14.750 -0.0485 -0.3504 -0.6569
14647W        W30541  18.629  14.911   1.671  0.2433  0.0221 -0.2286
14648W        W30542  14.055   8.162  15.208  0.0169 -0.2048 -0.0815
14649W        W30543   9.347   9.066   2.457  0.1367 -0.0446  0.2280
14650W        W30544   6.787   3.843  13.589  0.0784  0.1042 -0.4345
14651W        W30545   1.855   3.334  11.335  0.2207 -0.3140 -0.2114
14652W        W30546  17.454  11.584   2.142 -0.0473 -0.1372  0.2325
14653W        W30547  17.950  12.407  13.879  0.2898 -0.1849 -0.1122
14654W        W30548  13.204   0.770  13.990 -0.4560 -0.0920  0.2487
14655W        W30549   9.547  13.028  14.327  0.2740  0.0449 -0.0963
14656W        W30550   1.246   3.603   4.603 -0.0080 -0.1469 -0.0819
14657W        W30551  18.784   3.108  14.502  0.0878 -0.1741  0.0369
14658W        W30552  18.605   9.259   1.921 -0.0826 -0.2092  0.3886
14659W        W30553  18.239   0.790  12.055  0.2108 -0.0952 -0.0016
14660W        W30554  10.258  10.131  15.285  0.1592 -0.1010 -0.0052
14661W        W30555   7.302  15.848  14.697 -0.3641  0.0766  0.1862
14662W        W30556  15.630  15.664   5.052  0.1745 -0.0760  0.0456
14663W        W30557   2.279   0.616   3.541 -0.2388 -0.2149  0.0193
14664W        W30558  13.996  17.957   1.379 -0.1376  0.2415 -0.2682
14665W        W30559  14.816  18.758  12.642  0.1880  0.3161 -0.1349
14666W        W30560   9.408  18.041  12.088 -0.0935 -0.2046  0.0910
14667W        W30561   3.901  11.532   1.895  0.2248  0.3882  0.5220
14668W        W30562   3.174  10.087  11.057 -0.0014 -0.0256 -0.0916
14669W        W30563  10.839   6.311   4.128 -0.1443  0.0036 -0.0122
14670W        W30564   9.930  17.978   1.033 -0.3094  0.0594 -0.4103
14671W        W30565  17.671   9.554   1.947  0.2779 -0.0592 -0.2147
14672W        W30566  14.581   8.365  15.112 -0.0749 -0.3450  0.2673
14673W        W30567  11.794   5.937  10.830 -0.1557 -0.0099 -0.1043
14674W        W30568  10.928  10.371  13.555  0.2189 -0.3321 -0.2164
14675W        W30569   6.534  13.636  12.395  0.0286  0.1679  0.0687
14676W        W30570  14.797   3.875   1.314 -0.0749  0.2202 -0.2813
14677W        W30571   0.394   9.579   3.251  0.1962 -0.0618  0.1348
14678W        W30572  10.084   0.093  10.930 -0.1989 -0.3398 -0.1249
14679W        W30573  11.022  18.548   3.754 -0.0802  0.0308 -0.2878
14680W        W30574  17.454  13.965   0.556 -0.3085 -0.1369  0.1311
14681W        W30575  16.760   6.167   4.450  0.1208  0.1192  0.3181
14682W        W30576  17.610  14.411   3.929 -0.1047 -0.1926 -0.1784
14683W        W30577   9.231  16.960  14.178 -0.0823  0.3427 -0.1276
14684W        W30578   7.194   8.997  11.861 -0.0837 -0.0720 -0.0419
14685W        W30579  13.434   9.579   1.575 -0.1611  0.0688 -0.0878
14686W        W30580  18.488  11.404  12.486 -0.0145 -0.0863 -0.0402
14687W        W30581  11.269   8.299  13.202 -0.0600 -0.1893  0.1321
14688W        W30582   0.101  17.156  14.407  0.3339 -0.1399  0.0215
14689W        W30583   3.815   0.139   2.752 -0.1588 -0.1140 -0.1108
14690W        W30584   0.529  14.086   4.927  0.1025 -0.0472 -0.1630
14691W        W30585   4.641   7.978  13.862 -0.0817 -0.0102  0.1680
14692W        W30586   4.667   7.741  13.427 -0.5581  0.1016 -0.2124
14693W        W30587   8.945  14.025   3.396 -0.1727  0.1557  0.1133
14694W        W30588  15.323  18.107  15.237 -0.0004  0.0021 -0.1735
14695W        W30589   6.049  13.915   4.326 -0.0709 -0.1946 -0.2323
14696W        W30590   8.770  13.652   0.863 -0.1069 -0.0575  0.0721
14697W        W30591  16.323  11.506   1.433  0.0007 -0.2140  0.0981
14698W        W30592   8.028   2.629  12.325 -0.0740  0.0349  0.4116
14699W        W30593  13.665   4.218   2.558 -0.0523  0.1000 -0.1713
14700W        W30594  17.702  16.141   5.058  0.1318 -0.1671  0.1981
14701W        W30595   8.948  15.105   3.920 -0.0863 -0.1072 -0.3064
14702W        W30596   9.340  15.381   3.106 -0.2115  0.5102 -0.1652
14703W        W30597  15.271  12.199  15.316  0.2846  0.2672 -0.0809
14704W        W30598  16.735   5.675  12.023 -0.0467  0.2856 -0.0235
14705W        W30599  18.371   7.212  14.846  0.2232  0.1399  0.0923
14706W        W30600  12.302  14.616   3.038 -0.0027 -0.4602 -0.4060
14707W        W30601  10.515   3.391   2.862  0.2448 -0.2135  0.2461
14708W        W30602  13.540  16.208   2.771  0.3296 -0.0223 -0.3870
14709W        W30603  17.726   9.801  14.325  0.0055  0.0484  0.1357
14710W        W30604   2.023  11.047  12.728  0.1357 -0.0984 -0.1019
14711W        W30605  17.258  13.193  11.505  0.0325 -0.1227  0.1952
14712W        W30606  16.265   2.107  11.701  0.3975  0.0159  0.2279
14713W        W30607  18.574  18.570   1.069 -0.4112  0.0578 -0.1005
14714W        W30608   6.905  18.297  13.638  0.0952  0.4320  0.1630
14715W        W30609   4.492  14.463  12.900 -0.1266 -0.0136 -0.1501
14716W        W30610  13.482   8.911   5.482 -0.0972  0.0843  0.0164
14717W        W30611  12.216  14.256  11.418 -0.1803 -0.0655 -0.0471
14718W        W30612  14.349  13.347   4.221 -0.1032  0.0947  0.1783
14719W        W30613   3.272   5.221   2.098  0.1110 -0.3622 -0.2165
14720W        W30614  17.885  17.064   4.570  0.0685  0.1110 -0.3662
14721W        W30615   1.905   6.243  11.921 -0.0425  0.0791  0.1063
14722W        W30616   6.478   2.205   9.594  0.1025 -0.1357 -0.0267
14723W        W30617   1.591  11.624  12.887  0.2085 -0.0339 -0.1023
14724W        W30618  15.829   2.925   0.142 -0.1052 -0.0787  0.0880
14725W        W30619   7.737   3.701   3.731 -0.1954 -0.0251 -0.3348
14726W        W30620  12.668   3.715   0.071 -0.2377 -0.0077  0.0119
14727W        W30621  14.034  11.476  14.578  0.0171  0.3382  0.1779
14728W        W30622   4.341  13.831   1.682 -0.1240  0.1780 -0.0985
14729W        W30623  16.853   1.834   5.275 -0.1211  0.1077  0.2337
14730W        W30624   7.700  10.450   2.665  0.1162  0.0126 -0.1119
14731W        W30625   7.037   5.189   3.273 -0.0310 -0.0721  0.6099
14732W        W30626  11.294   1.485   5.247 -0.1603 -0.0831  0.0521
14733W        W30627  17.303  17.866   0.168  0.0414  0.2511 -0.3559
14734W        W30628   4.740   0.506  13.558  0.0275 -0.0826 -0.1250
14735W        W30629   9.324   5.294   2.191 -0.1932 -0.2128 -0.0129
14736W        W30630   0.663  14.871  10.977 -0.3028 -0.0370 -0.0865
14737W        W30631   7.537   0.938   2.694  0.0630  0.5525  0.0913
14738W        W30632   3.722   5.098  12.601  0.0694 -0.2477  0.0307
14739W        W30633   1.319   9.981   1.798 -0.1760  0.1015 -0.1216
14740W        W30634   8.198   4.245   2.202 -0.1993  0.1448  0.0464
14741W        W30635  15.497   5.157   0.085  0.1158 -0.2306 -0.3308
14742W        W30636   9.429   1.916   2.447  0.1151  0.0772  0.0036
14743W        W30637  17.074   5.635  11.306 -0.1524  0.2820  0.1417
14744W        W30638   2.559  12.189  11.005 -0.0353 -0.0799 -0.2089
14745W        W30639  14.757  16.543   2.674 -0.2353  0.1250 -0.2708
14746W        W30640  13.460   0.976   3.282 -0.2556  0.3451  0.0683
14747W        W30641  11.423  14.226  10.712  0.0269 -0.1779 -0.1134
14748W        W30642   3.882   9.214  13.017  0.0406  0.2070  0.0979
14749W        W30643   0.146  14.272  12.118 -0.1625 -0.5631 -0.4633
14750W        W30644  13.041   1.479   1.199 -0.2409 -0.0893 -0.1378
14751W        W30645  17.088   1.478   4.547  0.1857 -0.0120  0.3229
14752W        W30646  10.257   3.492   1.525  0.0851 -0.1510 -0.4746
14753W        W30647  17.919   7.380   5.894 -0.1386  0.3401 -0.0018
14754W        W30648   9.775   7.148   4.122  0.0578  0.1043 -0.0919
14755W        W30649  17.888   6.309   2.154 -0.1140  0.0321  0.0725
14756W        W30650   5.438   1.861  12.116 -0.0136  0.0727 -0.2374
14757W        W30651   8.884  17.066   1.275  0.0593  0.3355  0.1363
14758W        W30652  11.018  12.382  14.430 -0.1265 -0.0259  0.1146
14759W        W30653   0.045   1.900  15.124  0.1608  0.4070  0.2378
14760W        W30654   0.216  12.773   0.646  0.0839 -0.3643  0.3169
14761W        W30655   7.099  13.272   9.370 -0.1398  0.0962  0.0348
14762W        W30656   6.864  11.075   4.310  0.0541 -0.1363 -0.0368
14763W        W30657   1.213   6.108  13.796 -0.4889  0.2072  0.2814
14764W        W30658   5.812   2.174   4.397  0.0275 -0.0341 -0.2409
14765W        W30659  10.153   6.681   4.631  0.0376  0.0133  0.2638
14766W        W30660   6.382  17.749  11.971 -0.0508 -0.0269 -0.0974
14767W        W30661  16.020  17.163  13.388 -0.0522  0.0760  0.0151
14768W        W30662   1.405   5.928   4.947 -0.2758  0.3061 -0.2981
14769W        W30663  12.383   9.179   5.439  0.2418  0.3033  0.0767
14770W        W30664   0.294   8.225   3.873 -0.1897  0.2651 -0.2180
14771W        W30665   0.614  16.851   2.898  0.1122  0.2583  0.0804
14772W        W30666   4.261  13.283   0.726 -0.0938 -0.0712  0.1687
14773W        W30667   0.867   5.927   0.344  0.0561 -0.1032 -0.1168
14774W        W30668  15.025   7.952  11.817  0.0226 -0.2803 -0.3666
14775W        W30669  17.305  15.863   2.157  0.2961 -0.1104 -0.0951
14776W        W30670   3.201  15.474  15.160  0.1443  0.0412 -0.0117
14777W        W30671   5.338   7.188   4.965 -0.1057 -0.0607 -0.0230
14778W        W30672   2.466  15.218   5.331 -0.0688 -0.1436  0.1246
14779W        W30673   2.215  18.076  12.776  0.3847 -0.1788 -0.3925
14780W        W30674  10.890   6.302  14.232 -0.2876 -0.0594  0.1728
14781W        W30675   5.814  16.645  11.336  0.0877  0.2433  0.3135
14782W        W30676   4.776   8.200  12.983 -0.0019  0.0857 -0.1330
14783W        W30677  13.656   0.640  12.234 -0.1505 -0.3447  0.2402
14784W        W30678  14.191  14.525  15.058 -0.2103  0.1549 -0.0899
14785W        W30679   8.019   0.023  12.556 -0.1880 -0.0434 -0.2114
14786W        W30680   2.286  11.092   3.917  0.1907 -0.0499 -0.0900
14787W        W30681  17.825   1.010   5.780 -0.0625 -0.0738 -0.0140
14788W        W30682  13.713  11.385  13.221  0.5001  0.0137 -0.1360
14789W        W30683  18.798  12.594   0.292  0.1839  0.1590 -0.0729
14790W        W30684  16.772   4.083  14.724  0.2088 -0.0533 -0.0167
14791W        W30685   6.929   9.250   0.527  0.0701 -0.2071  0.2324
14792W        W30686   5.439   5.428   2.903 -0.0176  0.1418  0.1478
14793W        W30687   3.151  16.954   3.951 -0.0056 -0.1973 -0.3309
14794W        W30688  11.656  10.416  14.573  0.0237  0.0370 -0.0988
14795W        W30689   2.026   6.360   4.421 -0.0387 -0.1924  0.1402
14796W        W30690  12.751  18.040   4.030  0.0022  0.1156 -0.0250
14797W        W30691  17.112   8.253  14.661 -0.1328 -0.0562 -0.0205
14798W        W30692  11.898   3.436  14.442  0.0192 -0.0648  0.1626
14799W        W30693  13.775  18.837   4.767  0.0283  0.0242  0.3018
14800W        W30694   5.006  14.935   4.767 -0.2038 -0.1289 -0.1502
14801W        W30695   6.996  18.643   1.831 -0.0120  0.0130  0.1864
14802W        W30696  17.838   7.486   2.261  0.1116 -0.1086  0.0613
14803W        W30697  10.123   5.059   1.993  0.0214 -0.1037  0.1526
14804W        W30698   2.665   0.415  10.834 -0.2140  0.6182  0.1311
14805W        W30699  18.443  13.003  11.577  0.4660 -0.0971 -0.2623
14806W        W30700  12.092   9.384  11.192 -0.1334 -0.0062 -0.0191
14807W        W30701   1.865   1.637  11.404 -0.2547  0.0596  0.2097
14808W        W30702   7.902   3.563  13.564  0.1822  0.1403 -0.2531
14809W        W30703   5.611   0.655  13.732 -0.1076 -0.0913  0.0225
14810W        W30704   1.481   3.735   5.011 -0.2389  0.1198 -0.0406
14811W        W30705   5.484   9.341  12.211  0.0290 -0.2875  0.3175
14812W        W30706  17.448   7.526  12.513 -0.0464  0.1626  0.1471
14813W        W30707   2.698  10.557   3.205  0.1388 -0.0946 -0.4279
14814W        W30708  15.560   9.057   4.179 -0.1818  0.0008 -0.0471
14815W        W30709   7.879   2.491  10.414  0.2085  0.3744 -0.4077
14816W        W30710   8.442   5.583  14.533  0.4598  0.1682  0.0975
14817W        W30711  12.759   7.533  11.080 -0.1066  0.1249 -0.1634
14818W        W30712  10.262   6.564  13.559 -0.0173 -0.0166 -0.1256
14819W        W30713   5.632  16.293  12.866 -0.3064  0.3074 -0.3252
14820W        W30714  11.256  12.721  11.151 -0.0321  0.0171 -0.2242
14821W        W30715   8.793  10.112   0.125  0.0513 -0.0446  0.1211
14822W        W30716   4.538  16.780  15.252 -0.3931  0.4687 -0.2407
14823W        W30717  18.583   1.908  11.817 -0.0869  0.2926 -0.0809
14824W        W30718  17.328  18.073  12.875  0.2293  0.0318 -0.1159
14825W        W30719  12.075   7.321   1.153 -0.0628 -0.0654 -0.2726
14826W        W30720  17.652  16.448   1.027 -0.2103  0.0605 -0.0520
14827W        W30721   3.852  14.149   0.852  0.4986  0.1254 -0.0554
14828W        W30722  11.339   9.431   1.807  0.1711 -0.1558 -0.3226
14829W        W30723  14.683  10.247  14.384  0.2208  0.1258  0.2637
14830W        W30724  10.333  16.855  14.949 -0.0324  0.1651  0.0328
14831W        W30725   6.336  17.295  13.661  0.4153  0.1390  0.0251
14832W        W30726   9.761  17.016   4.840  0.0367 -0.0061 -0.1742
14833W        W30727  18.510   9.763  10.721  0.1571 -0.2491 -0.4058
14834W        W30728   2.812   2.089   4.460  0.3362 -0.1007 -0.3496
14835W        W30729   5.053   5.726   3.580 -0.0903  0.1346  0.0768
14836W        W30730  14.251   6.640   4.726  0.2110  0.0492 -0.3580
14837W        W30731   8.275  12.437  15.434  0.1568 -0.0953  0.1530
14838W        W30732  12.122   9.179   4.125  0.1783  0.1108 -0.2625
14839W        W30733   2.986  10.256   2.728  0.1285  0.0254 -0.1379
14840W        W30734  16.498   5.755  11.164 -0.2518  0.1533  0.0560
14841W        W30735   5.616   7.753  13.261  0.3146 -0.0375 -0.2481
14842W        W30736   9.743   6.284  12.344 -0.1415 -0.1621 -0.3562
14843W        W30737  10.008  10.942  13.928  0.3014 -0.2064  0.0288
14844W        W30738  11.180   3.316   4.971 -0.2496  0.0816 -0.1067
14845W        W30739   1.580   2.851   3.641 -0.1986  0.1409  0.2570
14846W        W30740  12.777  12.344  13.330  0.2167 -0.0182 -0.0162
14847W        W30741  17.311  15.653  13.277 -0.0419 -0.0894 -0.0447
14848W        W30742  16.382   8.764  15.386 -0.1128 -0.4618 -0.2750
14849W        W30743   8.248   7.028  10.922  0.0740 -0.0430  0.0777
14850W        W30744  14.722  12.530   3.488  0.0673  0.1431  0.0716
14851W        W30745  13.519  17.170   1.911  0.0238  0.1612  0.1351
14852W        W30746  11.907   2.797   0.606  0.1465  0.0358 -0.0463
14853W        W30747  16.275   7.472  13.033  0.1960 -0.4097 -0.0222
14854W        W30748  13.154   6.978   4.707 -0.0578 -0.0641 -0.3303
14855W        W30749   9.974  15.090   5.219 -0.0179  0.1665 -0.0587
14856W        W30750  14.398   8.118   2.170  0.0281  0.2050  0.0321
14857W        W30751  15.833  15.286  15.393 -0.1699  0.0699 -0.1560
14858W        W30752   9.422   8.734   4.618 -0.0163 -0.1305  0.1155
14859W        W30753  13.381   0.243   0.766  0.2107  0.0224 -0.0211
14860W        W30754  17.077  17.214   0.659 -0.0402 -0.0674  0.0101
14861W        W30755  16.437  12.927   3.481  0.0622  0.2719 -0.1047
14862W        W30756  14.364  10.786   1.451 -0.1108 -0.0862 -0.0371
14863W        W30757   9.866  11.079   4.704  0.1803 -0.0289  0.1040
14864W        W30758   5.492  16.045  12.345  0.0356  0.1518 -0.3259
14865W        W30759   4.005  15.022  15.270  0.0446  0.1744 -0.0117
14866W        W30760  10.178   1.735   0.243 -0.2274  0.2090  0.1925
14867W        W30761   8.799  15.576   5.224 -0.2885 -0.0495 -0.0047
14868W        W30762   3.270  18.432   0.002 -0.0500 -0.0042 -0.2357
14869W        W30763   6.609   4.329  14.980 -0.1954 -0.0100 -0.1684
14870W        W30764  14.693   3.597   2.801 -0.0131 -0.2162  0.1389
14871W        W30765   0.199  12.892  11.430 -0.1001 -0.0381 -0.2845
14872W        W30766  17.098   3.540  13.388 -0.0225 -0.0697 -0.1917
14873W        W30767  15.235  13.607   4.086  0.0843 -0.1451 -0.1916
14874W        W30768  17.439   7.108  11.328  0.3129 -0.2341 -0.1540
14875W        W30769   5.726   9.242  15.234  0.0550 -0.0129  0.0375
14876W        W30770   4.268   3.683  12.999  0.0818 -0.1070  0.0345
14877W        W30771  12.022   8.012  10.877  0.1339 -0.3960 -0.3223
14878W        W30772   7.080   8.514   0.831 -0.0616  0.1968 -0.1678
14879W        W30773  14.714  16.796  15.075 -0.2119 -0.0445 -0.0173
14880W        W30774  17.827   0.382  12.536 -0.0573 -0.1956 -0.1028
14881W        W30775  13.422   3.407  12.712 -0.1329 -0.1447 -0.0330
14882W        W30776   1.968   3.077   4.658 -0.1613  0.0265 -0.0617
14883W        W30777  17.713   7.904   4.413 -0.0991 -0.0989  0.1032
14884W        W30778  10.470  10.953   3.762  0.1250  0.1444 -0.1170
14885W        W30779   3.024  16.246   2.575 -0.2948 -0.0136 -0.1512
14886W        W30780  12.020   3.644   2.311 -0.1800 -0.2174  0.2052
14887W        W30781  15.186   9.301  11.211  0.1002 -0.2200 -0.0051
14888W        W30782  15.937  11.017  14.505  0.2813  0.1720  0.2060
14889W        W30783  12.629   0.940   1.305 -0.1382  0.0111 -0.3135
14890W        W30784  15.234   4.101  14.408 -0.0199 -0.3258  0.2195
14891W        W30785  16.404   3.787   4.433 -0.4590  0.1878  0.2681
14892W        W30786   7.173   9.140   0.010  0.0031  0.1745  0.0033
14893W        W30787   4.513  11.583   2.807 -0.1441  0.1443  0.0074
14894W        W30788   1.335   2.668  10.795 -0.0490  0.0363  0.3332
14895W        W30789  17.759  15.282  14.922 -0.0922 -0.2632 -0.2375
14896W        W30790   3.721   4.429   1.674  0.1219 -0.0271 -0.0224
14897W        W30791   8.622   2.262  12.439  0.0184 -0.0964  0.1968
14898W        W30792   1.595   6.639  12.584  0.1419 -0.2081  0.1961
14899W        W30793  14.154  12.090  12.233  0.1055  0.2335  0.0153
14900W        W30794   4.960   2.079   1.606  0.0210 -0.0315 -0.2123
14901W        W30795  14.670  10.067   0.042 -0.0312  0.0281 -0.0639
14902W        W30796  15.030  17.147   3.434 -0.0532  0.1006 -0.1081
14903W        W30797  13.618   8.888   2.184 -0.0672  0.0705  0.1757
14904W        W30798   6.272   2.526   4.290 -0.2312 -0.1655 -0.3623
14905W        W30799   8.519  13.523   0.451  0.1081  0.1662  0.0787
14906W        W30800  13.773   5.513  10.383  0.1185  0.2142 -0.0771
14907W        W30801  11.943   0.640  12.487 -0.2909  0.2115  0.0379
14908W        W30802  16.334  16.833  11.295 -0.1053 -0.1440 -0.0444
14909W        W30803   3.267   2.065   4.876 -0.0117  0.0709  0.0813
14910W        W30804  13.523  16.425  12.576  0.1761  0.0022  0.2836
14911W        W30805  13.995  18.435  13.045 -0.0273  0.2773  0.3668
14912W        W30806  15.445   2.436  15.002  0.1265 -0.0261  0.2973
14913W        W30807  12.228  16.408  11.497 -0.3859  0.1337 -0.3105
14914W        W30808   3.466  10.117   1.909  0.1639  0.0909  0.0130
14915W        W30809   2.613  11.659  13.651  0.0712 -0.1673  0.2582
14916W        W30810   9.122  12.815   0.840  0.1917  0.1322  0.2055
14917W        W30811   9.556  17.118  11.616 -0.1526  0.0897 -0.0167
14918W        W30812   1.389   6.610  13.800  0.1686 -0.0460  0.2813
14919W        W30813  18.394   2.854  13.659  0.2845  0.0579 -0.2423
14920W        W30814   3.491   5.028  11.797 -0.1023  0.0397 -0.2177
14921W        W30815   6.280   4.859   4.526  0.0108 -0.1113  0.2845
14922W        W30816   9.474   4.669   4.420  0.4024 -0.3887 -0.0622
14923W        W30817   8.392  17.841  11.335  0.0215 -0.1208 -0.1609
14924W        W30818   2.163   9.176   2.684  0.1938  0.0173  0.0373
14925W        W30819  10.592  18.314   0.382  0.0617  0.3351  0.1631
14926W        W30820  12.039  18.624   2.663 -0.1600 -0.1187 -0.0051
14927W        W30821  10.049  16.055  13.440 -0.1850 -0.3177  0.0036
14928W        W30822   7.140  13.109  10.383 -0.2942 -0.0796 -0.3843
14929W        W30823   2.057  11.579  12.714 -0.3495 -0.1057 -0.1600
14930W        W30824  16.164  13.316   3.259 -0.0764  0.1837 -0.1441
14931W        W30825   4.247  18.535   0.090 -0.3435 -0.1025  0.3010
14932W        W30826   0.451   5.544  12.670  0.1852 -0.0006 -0.2096
14933W        W30827  16.131   9.703  12.195 -0.0305  0.0582  0.1981
14934W        W30828   5.951   7.286  13.266 -0.2565  0.0607  0.0814
14935W        W30829   2.354   8.144   0.832  0.2329  0.0236  0.2614
14936W        W30830   4.187  12.059  12.370  0.3572 -0.3298  0.0473
14937W        W30831   0.355   4.572   2.911 -0.1238  0.0582 -0.1531
14938W        W30832   7.471   3.751  11.375  0.2470  0.1973 -0.0669
14939W        W30833  16.781   6.060   3.388  0.3115 -0.0665 -0.0264
14940W        W30834  18.571   3.616  11.405 -0.3186 -0.2838 -0.6237
14941W        W30835   4.123  11.616  10.787  0.4332  0.3705 -0.1058
14942W        W30836  17.854  16.629  12.259 -0.0152  0.3610 -0.0749
14943W        W30837   8.082   0.646  13.508 -0.0160  0.1564 -0.0179
14944W        W30838   7.563   6.748  13.204 -0.0270 -0.5475  0.0811
14945W        W30839  16.913   2.887  14.188  0.0343  0.2202  0.2518
14946W        W30840  15.228   0.233   5.754  0.1101  0.0669 -0.1277
14947W        W30841   2.690   9.310  13.214 -0.3103  0.0876  0.1456
14948W        W30842  13.238   0.097  11.525 -0.0427 -0.2746  0.1017
14949W        W30843  13.733  11.836  12.964 -0.0841 -0.1921  0.1085
14950W        W30844   9.256  13.751   5.068 -0.0423 -0.0156  0.1396
14951W        W30845   0.044  15.543   2.432  0.1110 -0.0171 -0.2653
14952W        W30846  15.422   8.129  11.561  0.1227 -0.1658  0.1173
14953W        W30847  10.064  11.718   2.545  0.1774 -0.1948 -0.0687
14954W        W30848   3.979  12.024  14.360  0.1110 -0.3121 -0.0843
14955W        W30849   1.123  12.263   4.609 -0.0434 -0.1009 -0.1040
14956W        W30850  11.506   8.438   4.180 -0.2715  0.1364  0.1116
14957W        W30851  13.973  10.564   0.161 -0.0622 -0.1357 -0.1267
14958W        W30852   6.970  11.186   9.913  0.0640 -0.2639 -0.2036
14959W        W30853   7.956   7.059  13.809  0.0704 -0.3813 -0.1633
14960W        W30854   7.475   6.563  15.143  0.1239  0.3363  0.3195
14961W        W30855   2.588  12.579  13.779  0.2243 -0.2004  0.4191
14962W        W30856   1.412   0.208   4.040  0.1320  0.0970 -0.2598
14963W        W30857   6.447  15.654   0.101 -0.3167  0.0953  0.2698
14964W        W30858   3.794  11.496  13.442  0.1114 -0.0996 -0.1535
14965W        W30859   3.847   1.406   5.807 -0.2190 -0.0220  0.0927
14966W        W30860  14.660   8.336   0.145 -0.0343  0.0395  0.1218
14967W        W30861  10.243   1.444  12.734  0.2204  0.0258 -0.3590
14968W        W30862   4.066  17.873  13.591  0.3500  0.2453 -0.0037
14969W        W30863  12.813   4.383  13.529  0.0388  0.0064 -0.2609
14970W        W30864  16.172  11.641  11.045 -0.1099  0.0806 -0.2659
14971W        W30865   9.336  13.850   3.806  0.1343  0.0666  0.0259
14972W        W30866  18.466  11.518  13.461  0.3835  0.0615  0.1236
14973W        W30867  18.392  12.299  10.937 -0.4773  0.3012  0.2667
14974W        W30868  18.317   8.387   0.837  0.0092  0.1155 -0.0962
14975W        W30869  12.970  16.224  14.743  0.1418  0.2107  0.0326
14976W        W30870   3.039  16.408  15.489 -0.1470 -0.1029  0.3523
14977W        W30871  17.762  12.100   2.106 -0.1773 -0.1785  0.0037
14978W        W30872  13.802  11.167  14.923  0.0498  0.1155 -0.2922
14979W        W30873   0.935   9.399  14.122  0.0723 -0.1105 -0.3256
14980W        W30874  16.691   9.748  11.325  0.0627 -0.2512  0.1552
14981W        W30875   2.638  18.623   3.879 -0.1440 -0.0180 -0.1343
14982W        W30876   1.332  10.026  13.421  0.0649 -0.0313 -0.2274
14983W        W30877  16.421  10.805  14.985  0.2103 -0.0991 -0.2908
14984W        W30878  13.732   3.330   2.092  0.2869 -0.5111  0.3216
14985W        W30879  17.347  18.578  13.068 -0.0288  0.2104  0.0805
14986W        W30880   5.837   8.723  14.135 -0.1775 -0.0454 -0.1543
14987W        W30881   2.755  14.743  14.030 -0.0830 -0.5401  0.4142
14988W        W30882  16.334  12.798  15.222 -0.0806  0.2172  0.2524
14989W        W30883  12.343   8.513  13.120  0.0896  0.1806 -0.0938
14990W        W30884   0.445   5.691   0.196  0.1331 -0.3392  0.0373
14991W        W30885  13.080   2.511   3.143 -0.0366 -0.0124  0.2095
14992W        W30886  17.761  16.795   3.323  0.1962  0.0996  0.0052
14993W        W30887   3.489   6.329   1.641 -0.2107 -0.0430 -0.0934
14994W        W30888   0.485  16.498   4.904  0.1226 -0.0531  0.3790
14995W        W30889  13.271   8.321   3.281 -0.0386  0.3720 -0.1923
14996W        W30890  15.465   7.865  13.681  0.0904  0.0182  0.0857
14997W        W30891  18.267  14.516  14.888  0.2170 -0.2735 -0.0567
14998W        W30892   4.966  10.459   1.574 -0.2088 -0.0780 -0.0001
14999W        W30893   0.534   2.024  14.681  0.2111  0.1201  0.1801
15000W        W30894   7.223   7.176   1.964 -0.1515  0.0885 -0.1895
15001W        W30895   5.449   1.761   3.772 -0.0539  0.2818  0.0785
15002W        W30896   1.253   5.992  12.647 -0.2792  0.1520 -0.0483
15003W        W30897  12.162   9.829   3.620  0.0957  0.0051 -0.3051
15004W        W30898   4.322   4.592  11.219 -0.0150 -0.2976 -0.3470
15005W        W30899   8.488  18.380  10.540 -0.0639  0.0226  0.1292
15006W        W30900   9.707  17.716  14.434 -0.1789 -0.2342 -0.1137
15007W        W30901   7.466   0.385   0.667  0.2284  0.1009  0.1586
15008W        W30902  13.707  13.224  12.255 -0.3012 -0.2874  0.3259
15009W        W30903  16.992   4.236  12.228 -0.1354 -0.0269  0.0865
15010W        W30904   4.719   9.703  11.937 -0.0875 -0.0445 -0.0784
15011W        W30905  10.232  12.964   1.952  0.1629  0.1131  0.1952
15012W        W30906  10.695  16.223   2.248 -0.1571  0.0306  0.1257
15013W        W30907  18.352  14.976   4.788 -0.0981  0.1490 -0.2004
15014W        W30908  10.304  15.838  15.180 -0.0383 -0.1387 -0.0144
15015W        W30909  14.166   8.758   3.816 -0.2343  0.0486  0.1807
15016W        W30910  14.817  15.879   2.559  0.0217 -0.3231  0.2285
15017W        W30911  16.052  13.228  14.607  0.0633 -0.2615 -0.1290
15018W        W30912   8.860   0.617  15.411 -0.1947 -0.0408 -0.2333
15019W        W30913  13.699  17.893   1.821 -0.2433  0.0749  0.2238
15020W        W30914   0.539   9.815  11.157 -0.0786 -0.0971  0.1810
15021W        W30915  15.426   4.642   4.960  0.0538  0.0613  0.0280
15022W        W30916   2.757  17.852   1.345  0.0883  0.1036 -0.0088
15023W        W30917  15.939  15.574  13.021  0.1704  0.2180 -0.0553
15024W        W30918  15.093   5.512  13.884 -0.1538 -0.1008 -0.0352
15025W        W30919   9.121   4.552  11.829 -0.0593  0.0718  0.0186
15026W        W30920   7.694  16.659  14.785  0.0247 -0.2357  0.2602
15027W        W30921  18.507   1.255   3.361  0.0214  0.1431  0.1057
15028W        W30922   1.845   3.526   1.773 -0.2395 -0.1900  0.1098
15029W        W30923  11.932   3.216   0.244  0.0518 -0.1057  0.0954
15030W        W30924   4.962   9.854  14.747 -0.0713  0.4267 -0.0109
15031W        W30925   4.977  12.160  10.941  0.1316  0.0924  0.3052
15032W        W30926   4.705  15.961  12.774  0.2223  0.1588 -0.0778
15033W        W30927   6.233   7.419   0.533  0.2206 -0.2179 -0.1339
15034W        W30928  15.073  10.104   9.647  0.0347 -0.1826  0.2975
15035W        W30929   8.327   7.871  13.626  0.2208  0.2243  0.0172
15036W        W30930   5.134  15.929  10.908 -0.0380  0.0931  0.0570
15037W        W30931  17.762  12.793   3.724  0.0808  0.2216 -0.3442
15038W        W30932   7.319  12.565   1.085 -0.4445  0.1211  0.0018
15039W        W30933   5.937   0.254  10.340  0.1144 -0.3578 -0.2893
15040W        W30934   8.769  14.148   2.520 -0.0173  0.1427 -0.1734
15041W        W30935  11.348  11.890  13.165 -0.0086  0.1816 -0.0270
15042W        W30936  16.208  17.787   2.294  0.1634  0.1579  0.1716
15043W        W30937  18.667   0.714   0.038 -0.2578  0.0862 -0.0134
15044W        W30938  17.046   8.221   3.736  0.4905 -0.0625  0.1733
15045W        W30939   2.908  16.785   1.445 -0.0151  0.1374  0.1415
15046W        W30940   5.006   8.420   5.162  0.1968  0.1441  0.2074
15047W        W30941   5.882  15.760  12.068 -0.2343  0.1943  0.0227
15048W        W30942  13.517  17.974  14.833  0.0058  0.0155 -0.2305
15049W        W30943  15.182   6.534  11.689 -0.0194 -0.0982  0.4158
15050W        W30944   3.855  17.723   1.632  0.0850 -0.0136  0.1241
15051W        W30945  17.631  16.193  14.020  0.1522 -0.2998  0.3353
15052W        W30946   2.535   7.822   4.388 -0.2821  0.3608 -0.1284
15053W        W30947   4.747   5.173  13.847 -0.0563 -0.3025 -0.0737
15054W        W30948   3.020  14.357   5.255 -0.2256  0.1998 -0.1569
15055W        W30949   9.836   1.440   2.363  0.0249  0.0870  0.2638
15056W        W30950  11.045   9.922  15.035 -0.0586 -0.1256 -0.0717
15057W        W30951  13.558  15.496   2.141 -0.1287 -0.1344 -0.1456
15058W        W30952   0.241   6.428   0.707  0.2659  0.2355  0.0390
15059W        W30953  16.009   8.452  14.027 -0.0807  0.3846  0.0348
15060W        W30954   1.639  17.194   1.750 -0.3330  0.2274 -0.5051
15061W        W30955   8.726   9.495   4.143 -0.4567 -0.1019  0.1687
15062W        W30956   0.109   4.833   4.930 -0.1313  0.1369 -0.0708
15063W        W30957   1.396  12.807   3.940  0.0733 -0.4484 -0.1076
15064W        W30958   2.585  14.604   0.667  0.0760  0.3453 -0.1414
15065W        W30959   6.028   2.795  13.417  0.0769  0.0941 -0.0526
15066W        W30960  17.343  18.762   1.801 -0.0660 -0.4757 -0.1397
15067W        W30961  16.697   3.732  10.885  0.0557  0.0232 -0.1635
15068W        W30962  10.192   3.369   3.353 -0.2466 -0.2493  0.1768
15069W        W30963  17.659  12.826  11.748  0.1795  0.1794 -0.1436
15070W        W30964  16.956   4.294  14.240 -0.1595  0.1011  0.2331
15071W        W30965   5.313   9.146   3.401  0.5102  0.0940  0.0073
15072W        W30966   9.460  17.688  13.675  0.2789  0.1739 -0.0584
15073W        W30967  13.994  13.545  11.868 -0.0034  0.0190  0.0761
15074W        W30968  17.811   1.703   2.482 -0.1722 -0.0472 -0.1409
15075W        W30969  16.968   3.771   1.737 -0.2130 -0.0818  0.2521
15076W        W30970  12.008   9.726   4.742 -0.0941 -0.0275 -0.1512
15077W        W30971   4.801  15.919   4.210 -0.0679  0.0415  0.3314
15078W        W30972  13.422  10.658  10.758 -0.0331  0.1522 -0.1195
15079W        W30973  12.450   2.239   3.220  0.3100  0.1647 -0.4902
15080W        W30974   8.713   3.657   0.868 -0.1902  0.2647  0.0278
15081W        W30975  12.147  12.509   1.341  0.2464 -0.2793 -0.1339
15082W        W30976   8.862   8.122  11.166 -0.2600  0.4732  0.1017
15083W        W30977  12.028   3.363   4.905 -0.0907 -0.0403 -0.2698
15084W        W30978   2.209  12.927   3.515 -0.3353 -0.1696 -0.0989
15085W        W30979  17.119   3.674  11.901 -0.2972  0.2663 -0.0207
15086W        W30980   6.668  18.644  13.170 -0.0340 -0.0435 -0.5841
15087W        W30981   6.776   2.890   4.514  0.3059  0.1108  0.1323
15088W        W30982  14.211   8.139   3.675  0.1092  0.0354  0.1108
15089W        W30983  15.221  16.248  13.793 -0.0124 -0.2571 -0.0914
15090W        W30984   0.690   5.695  13.133  0.0759  0.1556  0.0156
15091W        W30985  13.181   3.154  13.710 -0.1245 -0.0197  0.2096
15092W        W30986  17.525   9.034  15.096  0.0371  0.0380 -0.1906
15093W        W30987   2.537  16.590  15.293 -0.1148  0.0028  0.0537
15094W        W30988  10.668   1.806  13.437  0.1833 -0.2159 -0.0397
15095W        W30989  15.791  15.576   1.630  0.0424 -0.0953  0.1816
15096W        W30990  11.404  10.526  12.358 -0.2202 -0.0976  0.2563
15097W        W30991   7.821  16.955   3.377  0.1256 -0.1111 -0.1693
15098W        W30992   3.586   2.722  11.717  0.0052 -0.0994  0.2551
15099W        W30993   9.902  11.452  13.763 -0.2095 -0.2453  0.1954
15100W        W30994  17.535   4.762   1.405 -0.1032 -0.2962  0.1675
15101W        W30995   0.334   6.904  15.311 -0.0675 -0.1803  0.1318
15102W        W30996  17.992   2.369  13.943  0.1536  0.2569  0.3963
15103W        W30997   3.781   5.696   5.714  0.1351  0.0710 -0.2172
15104W        W30998  18.630  10.067   2.118  0.0881 -0.2011  0.0658
15105W        W30999  16.146  15.894  14.886 -0.0071 -0.0426 -0.2701
15106W        W31000  16.738   7.079  12.927 -0.2782  0.3650 -0.1694
15107W        W31001  14.304  18.242   3.503  0.2054 -0.0036  0.3269
15108W        W31002   3.707  15.617   1.048  0.3265 -0.1483 -0.0198
15109W        W31003   4.533  15.135   3.294 -0.0872  0.0532  0.2864
15110W        W31004   8.815  14.221   0.888 -0.0437  0.0250 -0.1846
15111W        W31005  13.725  14.273  12.955  0.0802  0.1890 -0.0367
15112W        W31006  14.979   5.459   4.241 -0.1494  0.1314 -0.1065
15113W        W31007  16.770  11.306  11.035 -0.0063  0.2857  0.0890
15114W        W31008  10.972  14.843   1.490  0.1094 -0.1729  0.0530
15115W        W31009  15.054   9.265   0.258 -0.2185  0.3149 -0.0203
15116W        W31010  15.086   8.728   0.393 -0.2238 -0.0717 -0.0330
15117W        W31011   1.071  16.427   1.521 -0.3583  0.0475 -0.1293
15118W        W31012  17.109   0.528   0.207 -0.0243  0.0147  0.1805
15119W        W31013  18.062   8.769  11.131  0.1816 -0.0992 -0.1264
15120W        W31014  15.326   6.542   0.635  0.1559 -0.2728  0.0874
15121W        W31015  15.799   5.384  15.231  0.1043 -0.0912 -0.2180
15122W        W31016  10.395   8.366  12.752 -0.0508 -0.0352  0.1293
15123W        W31017   6.914   2.104  14.229  0.2172 -0.2616  0.3028
15124W        W31018  15.581  16.749  12.529 -0.1325 -0.0281  0.1357
15125W        W31019   4.970   8.986  12.944  0.2853 -0.1943  0.0425
15126W        W31020   5.766   9.662  11.859 -0.1170 -0.1713  0.2759
15127W        W31021   3.444   5.025   2.811  0.0522 -0.1685  0.0206
15128W        W31022   6.035   8.251  12.276  0.1242 -0.1951  0.4279
15129W        W31023   7.987  17.632   5.822 -0.2558 -0.2123 -0.0170
15130W        W31024   8.855   1.346   0.123 -0.1150 -0.0353  0.1493
15131W        W31025   5.813  10.122  11.219  0.3242  0.1901  0.1182
15132W        W31026   1.027   0.507   5.659  0.0620 -0.0733  0.0261
15133W        W31027  10.575   6.663  14.193 -0.0947 -0.0868 -0.0752
15134W        W31028  10.196   6.640  11.503  0.2482  0.3022 -0.0456
15135W        W31029   2.868  10.119   3.312 -0.1473 -0.0181 -0.3325
15136W        W31030   9.002  17.223   2.802  0.0819 -0.2206  0.2315
15137W        W31031   3.467   8.273  14.971 -0.0464  0.1256 -0.0314
15138W        W31032   1.600   3.755  11.529  0.0420  0.2207 -0.0947
15139W        W31033   3.340  13.225  10.601  0.2426 -0.4319 -0.2946
15140W        W31034  12.936   5.825  13.274 -0.0208  0.1137  0.2471
15141W        W31035  14.393   6.642   2.903  0.1382 -0.0851 -0.1448
15142W        W31036  16.368   1.077   3.597 -0.0189  0.0334 -0.2859
15143W        W31037  17.138   7.718   3.787  0.0996  0.5122  0.0683
15144W        W31038   9.270   4.062  11.863  0.2642  0.0281 -0.1295
15145W        W31039   5.436   8.558  12.927  0.3591  0.2526  0.2547
15146W        W31040  16.942  10.326  13.816  0.1509 -0.0870 -0.0565
15147W        W31041   6.197   4.021  15.390  0.1760  0.1799 -0.2263
15148W        W31042   2.293  16.398  13.169 -0.2879 -0.2852 -0.4397
15149W        W31043   8.134  10.771   4.371 -0.1488  0.3145 -0.2581
15150W        W31044  11.736   1.776  15.044  0.0030 -0.2787 -0.2689
15151W        W31045   9.511   6.739   4.908  0.0632 -0.1256  0.0682
15152W        W31046   2.509   7.416  14.780  0.0364  0.2969  0.3201
15153W        W31047  14.721  15.523   0.451  0.0480 -0.1679 -0.1543
15154W        W31048  12.526  14.583  12.437 -0.1282  0.3314  0.2569
15155W        W31049  17.990  15.633  15.188 -0.2443 -0.1532 -0.1656
15156W        W31050   8.443   3.576   2.361  0.2953  0.1486  0.2197
15157W        W31051   3.374  14.849   1.246 -0.2458  0.0502  0.1448
15158W        W31052  12.413  12.030  14.056 -0.0725  0.2465  0.1205
15159W        W31053   3.719   7.937   2.241  0.0523 -0.2013  0.3261
15160W        W31054   1.255  14.534   5.043  0.3503  0.0256  0.0973
15161W        W31055  13.511   2.335   2.289  0.2977 -0.0274  0.2839
15162W        W31056  10.497   7.777   1.112  0.0490 -0.1816 -0.1269
15163W        W31057   7.685  10.777  13.284  0.0632  0.0404 -0.1391
15164W        W31058  15.200  15.486   0.096 -0.1397  0.2573 -0.0778
15165W        W31059  11.715   8.006  14.746  0.1250  0.0676 -0.0505
15166W        W31060  12.975  18.330   4.650  0.2778  0.0219 -0.0665
15167W        W31061   9.487   1.598  13.238  0.0192  0.0928  0.1035
15168W        W31062   2.061   6.025  15.231 -0.1427 -0.0080 -0.0210
15169W        W31063  15.497  11.819   1.013 -0.2156  0.1883  0.2054
15170W        W31064   8.224  17.880   0.761  0.3236 -0.4079 -0.2003
15171W        W31065  11.699   5.532  14.115  0.2515  0.2429  0.0830
15172W        W31066   8.306   0.696   3.314  0.2127  0.0469 -0.1486
15173W        W31067   6.486   5.139   4.871  0.1041 -0.2416  0.0767
15174W        W31068   0.174  16.936   1.139  0.4921 -0.1890 -0.2110
15175W        W31069   3.208   4.801   2.358 -0.0002 -0.3200  0.0153
15176W        W31070   7.402   1.791   2.231 -0.1962  0.2168 -0.1081
15177W        W31071   5.250   2.130  13.742 -0.3290  0.1620 -0.2168
15178W        W31072   4.375   3.852  12.082 -0.1624 -0.2167 -0.1590
15179W        W31073  10.520   7.345   1.444 -0.0946  0.3171  0.1690
15180W        W31074  12.195  14.304   5.178 -0.1605  0.2011 -0.2340
15181W        W31075  16.477  10.335  15.005 -0.2163  0.2899 -0.2231
15182W        W31076   7.936   8.180  13.922  0.0082  0.0872 -0.2261
15183W        W31077   5.313   4.953  13.634 -0.0722  0.0891  0.1037
15184W        W31078  17.441   7.202   2.357  0.0337  0.1037 -0.0954
15185W        W31079   4.257  12.518   5.499  0.2305  0.0815 -0.5268
15186W        W31080  17.751  15.771   0.115 -0.3320 -0.0674  0.0461
15187W        W31081  11.721  11.210   1.831  0.0220  0.0352  0.1448
15188W        W31082  11.029   1.383   3.981 -0.0975  0.7040 -0.1025
15189W        W31083   9.640  12.203   1.962  0.0662 -0.0344  0.3317
15190W        W31084  17.104   9.805   2.144 -0.0028 -0.1949 -0.0578
15191W        W31085  13.348   7.623   0.463 -0.1325 -0.0390 -0.2121
15192W        W31086   7.473   6.625   1.959 -0.1724  0.0258 -0.0015
15193W        W31087  15.649   8.628   1.987  0.0679  0.3039  0.0362
15194W        W31088   5.695   6.388   2.207 -0.1206  0.1069  0.0894
15195W        W31089   2.898  15.415  12.365  0.0999 -0.2370 -0.1923
15196W        W31090  14.927  10.900   2.539 -0.0994  0.1668  0.2179
15197W        W31091   6.959   6.113   0.728  0.1809 -0.0371  0.4282
15198W        W31092  15.882   6.096  12.405  0.1801 -0.2510 -0.0369
15199W        W31093   6.481  14.866  13.845 -0.2149  0.0942  0.1887
15200W        W31094   9.911   0.666  13.559  0.1655 -0.0947 -0.0730
15201W        W31095  11.535  10.546  12.951 -0.0268 -0.1384  0.5361
15202W        W31096  16.609  10.144   3.157  0.0334  0.0075 -0.5457
15203W        W31097   9.041   8.438   2.529 -0.0456 -0.0626 -0.1319
15204W        W31098  16.365   0.384  14.711 -0.1551  0.0822  0.3013
15205W        W31099  11.754   8.558   3.709  0.2801  0.1654 -0.2347
15206W        W31100  14.204   9.817  13.288  0.1450 -0.0590  0.0305
15207W        W31101   5.527   6.058   2.720 -0.3016 -0.3412 -0.2751
15208W        W31102   6.259  10.379   0.317  0.0390 -0.1470 -0.0069
15209W        W31103  13.676  12.331  13.624  0.1159  0.1493 -0.1076
15210W        W31104   9.589   9.590   4.433  0.1673 -0.0616 -0.0192
15211W        W31105   2.880   6.665  14.166 -0.1284  0.0435  0.4511
15212W        W31106  11.481  15.905  13.933  0.0438 -0.0896  0.2475
15213W        W31107   7.041  11.432  13.275  0.0309  0.1939  0.1938
15214W        W31108   0.141  12.021   5.602 -0.1699 -0.1538  0.0944
15215W        W31109   5.781   4.233   1.944  0.0809 -0.1771 -0.2001
15216W        W31110   6.884  15.718  15.268 -0.3944  0.0183  0.0340
15217W        W31111  16.638   7.781   1.301  0.1390  0.1534  0.2286
15218W        W31112  12.143   8.362   4.437 -0.0989 -0.5369 -0.0072
15219W        W31113   7.089   8.018  13.272 -0.0599  0.3413  0.0478
15220W        W31114  11.472   0.257   4.641 -0.2463 -0.0437 -0.2919
15221W        W31115  13.544   9.078  11.419 -0.0582 -0.0135  0.0746
15222W        W31116  14.581   3.069   0.371 -0.0663 -0.4392 -0.4957
15223W        W31117  13.103   5.633  11.401 -0.2596  0.3598  0.2382
15224W        W31118   5.391  17.763  12.992 -0.1022 -0.0517 -0.0560
15225W        W31119   2.538   8.550  13.523 -0.0915 -0.1082 -0.4382
15226W        W31120  11.562  11.639   5.960  0.0943 -0.2137  0.2432
15227W        W31121  17.663  13.638  13.077 -0.1998  0.1323 -0.4985
15228W        W31122   0.108  11.403   0.514 -0.0028  0.0699  0.0242
15229W        W31123  18.616  11.816   0.941 -0.0672 -0.1781  0.0797
15230W        W31124   1.586  12.198   3.611 -0.0426 -0.0858 -0.3799
15231W        W31125   4.517   0.306  10.636 -0.0604 -0.2661 -0.2563
15232W        W31126  10.924   8.488   0.008 -0.0262  0.1168 -0.0002
15233W        W31127  14.152  18.609   3.808 -0.1475 -0.1784  0.1122
15234W        W31128  17.554  14.028   1.617  0.0273  0.2074  0.5017
15235W        W31129   1.591  15.862  14.327 -0.0454 -0.1796  0.2991
15236W        W31130   6.994   9.923   2.077  0.0525 -0.0650  0.0121
15237W        W31131  12.069   1.193   4.804 -0.1361 -0.4325  0.1274
15238W        W31132   2.798  17.068   5.275 -0.0697  0.2509  0.2009
15239W        W31133   3.885  16.517   4.313 -0.0150 -0.1393  0.0941
15240W        W31134   8.840   3.965  12.706 -0.4297  0.3391  0.2586
15241W        W31135   9.498  11.875  12.271 -0.0331 -0.1480 -0.2687
15242W        W31136   7.874  16.673   3.777 -0.0412  0.1230  0.2171
15243W        W31137  11.019  12.232   3.361  0.0084  0.0196  0.1271
15244W        W31138  16.323   0.836  14.516 -0.0235  0.1572 -0.1928
15245W        W31139   4.917   0.318  13.980  0.0316 -0.3307  0.1836
15246W        W31140  14.257  16.920   5.708 -0.0682  0.3313 -0.2281
15247W        W31141   8.610   3.214  11.970 -0.3717 -0.1166  0.3320
15248W        W31142  13.051   4.973  15.488  0.1574  0.1917 -0.2581
15249W        W31143  18.725  12.145  11.363  0.1114  0.2604  0.0578
15250W        W31144  14.155   9.210   4.037 -0.1927  0.0482  0.0896
15251W        W31145   4.965   1.495   2.157 -0.2797  0.2447 -0.1941
15252W        W31146   1.168   3.599  12.269  0.2181 -0.0827  0.0146
15253W        W31147  11.112   0.926   2.664  0.0326  0.0629  0.1441
15254W        W31148   4.749   5.969  10.640  0.2803 -0.0496 -0.1348
15255W        W31149  18.321   8.876   0.695  0.2224 -0.0182  0.1483
15256W        W31150   0.458   3.884  10.783  0.1399  0.0462  0.2290
15257W        W31151  10.403  15.495  14.766  0.2487  0.4331 -0.1403
15258W        W31152   3.578  17.736   3.962  0.3635  0.3023 -0.0497
15259W        W31153   5.555   1.563   3.276 -0.2987  0.1243  0.4378
15260W        W31154  10.895   0.774  12.360 -0.1472 -0.2875  0.4086
15261W        W31155  12.929  13.976  11.473  0.0817  0.1183 -0.0756
15262W        W31156   3.469  15.026  13.409  0.1140  0.0433 -0.2298
15263W        W31157   1.925   1.268   2.851  0.2739 -0.1065  0.0456
15264W        W31158   9.407  17.988   5.795 -0.4986  0.0788  0.0858
15265W        W31159   5.173   2.067  14.922 -0.1569 -0.1247  0.0464
15266W        W31160   7.671   3.595  11.971  0.0608  0.0114 -0.0730
15267W        W31161  18.345  17.922   1.528 -0.0060 -0.0364  0.1451
15268W        W31162   2.433   6.583  14.004 -0.1577  0.0497  0.0530
15269W        W31163  12.267   7.997  12.076  0.0018  0.0483 -0.2087
15270W        W31164   9.287  12.479   5.556  0.0345 -0.1256 -0.0227
15271W        W31165  14.687   3.618   3.332  0.0230 -0.2551 -0.1767
15272W        W31166   0.672   4.465  12.474  0.0913 -0.0055  0.3103
15273W        W31167  10.386   2.115  12.859 -0.0121 -0.2020  0.0204
15274W        W31168  17.900   1.058  13.057  0.3932  0.1619  0.1574
15275W        W31169  12.476   4.110   4.679  0.0354 -0.0329 -0.0216
15276W        W31170  13.403   4.659  14.689 -0.2723 -0.0329 -0.1089
15277W        W31171  15.113  15.831   0.407  0.2021  0.1046  0.1281
15278W        W31172  18.829  15.642   1.527  0.0216 -0.0986  0.0135
15279W        W31173  18.370   4.183   2.601 -0.3550 -0.3561 -0.2029
15280W        W31174  13.238  12.597   2.815 -0.2576  0.0721  0.0380
15281W        W31175   5.418  12.739   0.909  0.2616 -0.3392 -0.1707
15282W        W31176  14.435   1.730   2.313 -0.2625 -0.0172  0.0075
15283W        W31177  15.400   5.904  13.555 -0.1909  0.2449 -0.5016
15284W        W31178   9.742   0.343   0.820  0.0673 -0.1576 -0.0109
15285W        W31179   9.908  15.806   3.124 -0.0820 -0.2280 -0.0298
15286W        W31180   6.168   2.135   2.985 -0.0665 -0.0779  0.3474
15287W        W31181   2.774  13.870   3.181 -0.0288 -0.0043 -0.3253
15288W        W31182   8.686  12.635  11.426  0.1107  0.1500 -0.1078
15289W        W31183   6.537   8.819   4.731  0.0354 -0.0139 -0.1544
15290W        W31184   0.393   0.177   3.752  0.0217 -0.1240 -0.2948
15291W        W31185   5.399   6.623  15.211  0.0357 -0.2905  0.2888
15292W        W31186  13.177  14.258   5.231 -0.1154 -0.0242  0.2352
15293W        W31187   5.109  17.663   4.736 -0.1331 -0.1484  0.1281
15294W        W31188   7.159   5.253   4.220 -0.0497 -0.1078 -0.3993
15295W        W31189   2.928  13.485   4.850 -0.0514  0.0052 -0.0204
15296W        W31190  14.769   7.899   3.619  0.0165  0.0561 -0.0616
15297W        W31191  18.131  14.444  13.731 -0.0752  0.0484 -0.0983
15298W        W31192   6.616  13.177   5.719 -0.1915 -0.4347 -0.0764
15299W        W31193  17.068  11.724  13.982 -0.1665 -0.1592 -0.0819
15300W        W31194   8.414  10.120   0.472 -0.1272  0.0521 -0.3346
15301W        W31195   0.589  10.025  11.721  0.1829  0.0758 -0.0968
15302W        W31196  17.792  15.074  13.322  0.3408  0.2531  0.4898
15303W        W31197  18.411  12.802  14.815  0.3032 -0.0583  0.2232
15304W        W31198   6.128   8.573   0.553  0.2089 -0.0852 -0.0286
15305W        W31199  11.207  18.035  12.595  0.0106 -0.0482 -0.0850
15306W        W31200  16.169  12.374   0.482 -0.2567  0.2455  0.1044
15307W        W31201   0.166   6.750   3.931  0.1274 -0.1673 -0.1230
15308W        W31202  12.993   8.587  14.521 -0.0658  0.1132 -0.0318
15309W        W31203   2.664   8.006  11.989  0.0007  0.2129 -0.0620
15310W        W31204  13.205  14.843   2.712  0.2686  0.0810  0.2917
15311W        W31205  12.229  17.462  11.319 -0.1007  0.2270 -0.3820
15312W        W31206  13.037   9.460   0.375  0.0915 -0.3115 -0.1856
15313W        W31207  17.268  17.666  13.120  0.0003  0.0554 -0.4304
15314W        W31208   9.135   6.748   3.009  0.0814  0.0876  0.1234
15315W        W31209  13.894  16.641   4.319  0.0641 -0.3911  0.2290
15316W        W31210   2.375  17.153  11.231  0.3133 -0.1119  0.2449
15317W        W31211   5.560   8.067  11.186 -0.2654 -0.0982 -0.0954
15318W        W31212  17.694   6.359   3.793 -0.1587 -0.2210  0.0244
15319W        W31213   6.222  10.381  10.442  0.1623  0.3145 -0.1140
15320W        W31214  16.496  14.204   5.224 -0.2361  0.2633 -0.0861
15321W        W31215  14.660  17.156   4.485  0.0053  0.1970  0.0277
15322W        W31216  16.654  18.006  14.433 -0.0669  0.1555  0.0493
15323W        W31217  11.372   2.700   0.834  0.2356  0.1599 -0.0110
15324W        W31218  15.761  18.263   3.646  0.0336 -0.1975  0.2834
15325W        W31219   1.107   8.925   0.610 -0.0648 -0.1319  0.0306
15326W        W31220   6.191   5.716   5.202 -0.0263 -0.0678 -0.1917
15327W        W31221  12.304   7.930  13.997 -0.0879 -0.0997  0.0869
15328W        W31222  13.742   9.831   3.484  0.2423 -0.2255 -0.0759
15329W        W31223   3.623   1.074   1.186  0.0416 -0.4009  0.0324
15330W        W31224  12.729  11.873   1.117  0.4255  0.1087 -0.0369
15331W        W31225   4.795   4.233  15.113 -0.0846 -0.2479 -0.1411
15332W        W31226   4.066   3.549   3.332  0.1191 -0.0295  0.2131
15333W        W31227  11.175   0.063   2.158 -0.2753 -0.2946 -0.0475
15334W        W31228   7.719   9.358   2.129 -0.1770  0.1531  0.0315
15335W        W31229   0.240  16.926   5.020 -0.0374 -0.1319 -0.1768
15336W        W31230   1.095  16.010  14.238  0.1124  0.0084  0.1846
15337W        W31231   2.321  17.539  14.118  0.0336 -0.2398 -0.2482
15338W        W31232  17.133   2.524   2.435 -0.0289 -0.4711  0.0620
15339W        W31233  13.271  16.997  14.973 -0.0071  0.2053  0.4676
15340W        W31234   1.477   9.467  10.550  0.2076 -0.1332 -0.0011
15341W        W31235  12.130  12.908   3.356  0.0829 -0.0512 -0.0604
15342W        W31236  12.698  10.544   3.382  0.3243  0.1730 -0.2912
15343W        W31237  18.400   6.092  12.261  0.3040  0.2731  0.0999
15344W        W31238   1.221  16.212   4.455 -0.3388 -0.1306 -0.3002
15345W        W31239   5.564  17.381  13.627 -0.2637 -0.0267 -0.0918
15346W        W31240  17.997   6.637   3.441 -0.1482  0.3292 -0.0698
15347W        W31241   8.592  15.057  12.383 -0.2013  0.0107 -0.1302
15348W        W31242  15.241   1.545   3.401 -0.0043  0.1115 -0.3146
15349W        W31243  18.689   4.562   4.612 -0.1101 -0.0767 -0.2079
15350W        W31244   7.132   3.504   0.128 -0.0179  0.1309 -0.0577
15351W        W31245  11.359   6.479   4.643  0.1953 -0.0458  0.1505
15352W        W31246   4.610  17.624  11.758 -0.1863  0.3807  0.0864
15353W        W31247   6.738  14.551   0.388  0.1971 -0.0826  0.1373
15354W        W31248  15.713  16.265   1.678 -0.1986 -0.2506  0.1698
15355W        W31249  13.045   0.584  11.715 -0.1016 -0.5073  0.3725
15356W        W31250  15.856   6.802   4.199  0.1793  0.1891 -0.1726
15357W        W31251   7.620   1.484  13.966  0.2089  0.2274 -0.1727
15358W        W31252  11.987   0.117   5.453 -0.2272  0.0178 -0.0465
15359W        W31253  11.518   6.174   9.590 -0.1267  0.2068  0.0376
15360W        W31254   0.048   8.956   0.753  0.2458 -0.1790 -0.1122
15361W        W31255  13.001   1.698   0.310  0.2049 -0.2336  0.1114
15362W        W31256   8.400  12.683   4.428  0.1128  0.0047  0.0818
15363W        W31257   8.602   0.576  13.753 -0.0203  0.0094 -0.0579
15364W        W31258  15.852  17.521  14.822 -0.4503  0.0232 -0.1154
15365W        W31259  14.845   0.464  12.604 -0.0434 -0.2109  0.0525
15366W        W31260  13.841   2.478   1.832  0.4945 -0.0344 -0.0398
15367W        W31261   7.938   0.507   3.684  0.2093 -0.1499  0.3955
15368W        W31262  17.458   4.577  15.124  0.0597 -0.2081 -0.1226
15369W        W31263  14.336   7.598   5.004  0.1541 -0.2776 -0.0973
15370W        W31264   5.291   1.661  15.242  0.6824  0.0052 -0.1566
15371W        W31265   0.479  12.737  11.881  0.0363 -0.2256 -0.1490
15372W        W31266   9.682   9.109  13.286 -0.2823 -0.2390  0.0568
15373W        W31267  17.724   8.774   2.646 -0.0867  0.1483  0.1330
15374W        W31268   8.477   9.737  13.343  0.0562  0.2461 -0.0623
15375W        W31269  13.078  13.141  11.026 -0.0796 -0.0027 -0.0115
15376W        W31270   7.431  18.159   5.451 -0.2438  0.1083  0.3443
15377W        W31271  11.792  16.444   1.210  0.0698 -0.1823  0.0114
15378W        W31272  13.310  12.882   4.880 -0.0666 -0.0911 -0.1666
15379W        W31273  18.555  14.755  12.640  0.1042 -0.2096  0.2075
15380W        W31274   2.300  13.892  12.891 -0.0279 -0.1105 -0.0427
15381W        W31275  13.941  11.497   0.107 -0.3196 -0.2667  0.1765
15382W        W31276   5.521   7.824  12.222 -0.0392 -0.2513  0.0045
15383W        W31277  11.673  15.193  14.211 -0.3168  0.3352 -0.2119
15384W        W31278   7.118  12.569  15.143  0.0572 -0.0699  0.1502
15385W        W31279  11.269  17.041  15.004 -0.0101 -0.3031  0.0451
15386W        W31280  14.055   4.938  13.029  0.2487  0.0157 -0.1163
15387W        W31281   4.664   7.521   2.110  0.1630 -0.1341  0.2889
15388W        W31282  16.888   6.473   4.819 -0.0246 -0.1302  0.2599
15389W        W31283  10.493  18.105  15.409 -0.2809  0.4453  0.0533
15390W        W31284   7.483  14.565   3.513  0.0291 -0.1887 -0.0005
15391W        W31285  13.756   6.252   3.093  0.2476  0.4412 -0.1252
15392W        W31286   3.281  17.977  14.321  0.1986 -0.0602  0.1063
15393W        W31287   6.491  17.694   0.564 -0.1637 -0.0280 -0.2697
15394W        W31288  10.525   1.412   0.096  0.1734 -0.2509 -0.2674
15395W        W31289  18.568  10.357   4.917  0.1350 -0.0470  0.0692
15396W        W31290   1.850   0.213   3.779 -0.3534  0.1162  0.0289
15397W        W31291  18.199  16.677   2.082  0.3775  0.2445  0.1255
15398W        W31292  14.863   2.873   3.821  0.0108 -0.1650 -0.1600
15399W        W31293   8.646   7.573   4.179 -0.0851 -0.1990 -0.1354
15400W        W31294   7.932   8.990   9.821  0.0444  0.2968 -0.1216
15401W        W31295  15.946   4.994  12.954  0.0882  0.0388  0.2369
15402W        W31296  12.498   4.782   4.779 -0.2401 -0.0333 -0.1345
15403W        W31297   4.959   9.833  10.722  0.0416 -0.2105  0.0162
15404W        W31298   2.075  17.603   5.590 -0.1629  0.1107 -0.0915
15405W        W31299   7.398   6.118   3.481 -0.2148  0.1153  0.1738
15406W        W31300  18.206  11.774  12.597 -0.0798  0.0152  0.1392
15407W        W31301   3.415  11.232  15.082  0.0325 -0.1588 -0.0893
15408W        W31302  13.833   4.613   3.257  0.1632  0.1219 -0.0049
15409W        W31303   2.981  16.743  13.468  0.2855 -0.1461  0.2526
15410W        W31304  10.991  11.773   5.087 -0.1023 -0.1955  0.4008
15411W        W31305  17.083  10.490   3.439  0.1059  0.0489 -0.2371
15412W        W31306  11.311   8.243   1.441  0.1736 -0.1470  0.2219
15413W        W31307   8.670   3.693   3.936  0.1778  0.3035 -0.0286
15414W        W31308   2.261  11.346   0.092  0.0869  0.3183 -0.0521
15415W        W31309   4.866   7.465  11.355  0.0234  0.0522 -0.1575
15416W        W31310   8.967  13.547   0.260  0.2761  0.0846  0.3737
15417W        W31311  12.432  15.314   5.343  0.1040 -0.2476 -0.0392
15418W        W31312  15.759   6.128  12.934 -0.1347  0.3168 -0.1608
15419W        W31313  16.108  14.909   5.755  0.0380  0.1830 -0.2093
15420W        W31314  12.595   6.646  14.717  0.2350  0.2377  0.0820
15421W        W31315   5.955   7.956  13.513 -0.0991 -0.2182  0.1565
15422W        W31316  13.482  11.314   4.059 -0.0614  0.2372 -0.4096
15423W        W31317  17.338   9.828   0.195  0.1994  0.0405  0.2325
15424W        W31318   0.450  15.282  13.743  0.0278  0.1623 -0.0849
15425W        W31319  15.800  17.730  11.493  0.0584  0.1949 -0.1963
15426W        W31320  13.249  17.361  13.190 -0.2415  0.2587 -0.1541
15427W        W31321   3.948  17.637   3.143 -0.1250  0.0154  0.1283
15428W        W31322  15.001  13.792   0.521 -0.1545  0.1781  0.2138
15429W        W31323   5.563  12.698  14.648 -0.1839 -0.1411  0.0836
15430W        W31324  16.950  12.225  12.584  0.1993 -0.0035  0.0180
15431W        W31325   4.124   1.662   5.058 -0.0695 -0.0464  0.5277
15432W        W31326   7.961  12.733   5.089  0.1787 -0.0700 -0.3122
15433W        W31327  16.465  15.486  14.708 -0.1728  0.1375  0.0396
15434W        W31328   4.796   2.049   4.367 -0.0061 -0.0649 -0.2591
15435W        W31329  11.466  10.495   2.908  0.1466  0.2497  0.0877
15436W        W31330   0.603  18.002   3.722  0.0062 -0.0565 -0.0001
15437W        W31331  17.423   8.065   4.044 -0.1576  0.2041  0.0392
15438W        W31332  15.278   7.025  13.047  0.2552  0.0161  0.0440
15439W        W31333   6.252  12.109   3.126 -0.1696  0.2288 -0.1103
15440W        W31334   0.219  16.776  14.188  0.1129  0.0190 -0.0545
15441W        W31335   5.308   3.660   3.284  0.0582  0.2563 -0.1819
15442W        W31336  13.637   9.242   5.165 -0.2109  0.0964 -0.1453
15443W        W31337  11.082  16.093  12.430 -0.3727 -0.1361 -0.0678
15444W        W31338   2.858   3.280  14.608  0.0168 -0.1424 -0.1061
15445W        W31339   5.332   4.760  12.143  0.0080  0.2520  0.2104
15446W        W31340  13.155   6.861  11.897 -0.0692  0.0660 -0.1088
15447W        W31341   9.773  12.085  11.922  0.1109  0.0044  0.0741
15448W        W31342  13.772   4.282   4.091 -0.0168 -0.0244 -0.0305
15449W        W31343   4.346  12.457   3.752 -0.0770  0.0309 -0.0877
15450W        W31344   9.922   6.451   5.090 -0.0529 -0.0437 -0.2407
15451W        W31345  12.774  14.187  12.489  0.0102  0.2903 -0.1141
15452W        W31346   0.689  18.246  14.440 -0.0484 -0.2212  0.2419
15453W        W31347   1.722   7.912  14.663 -0.0453 -0.1583  0.0564
15454W        W31348   0.878  13.496  13.199  0.0417 -0.5548 -0.0552
15455W        W31349  12.732   4.550   5.245  0.0525 -0.1544  0.1021
15456W        W31350   0.606  12.323   3.216 -0.5489  0.0509 -0.0326
15457W        W31351  15.632   7.303  14.347  0.0108 -0.0999 -0.0151
15458W        W31352  12.679   6.538   1.964 -0.0405  0.1151  0.1670
15459W        W31353   2.414  17.726  11.905  0.0273  0.0187 -0.0812
15460W        W31354  13.625  14.844  12.072 -0.0293 -0.0853 -0.1573
15461W        W31355  14.339  15.188   4.036  0.4122  0.1896 -0.0090
15462W        W31356  14.701   3.779   1.808 -0.3047 -0.1311 -0.3056
15463W        W31357  18.229   6.779  10.768 -0.1613  0.1006 -0.1518
15464W        W31358   5.390   0.751  12.229  0.1071 -0.2219  0.2694
15465W        W31359  11.961   7.455  10.615  0.1388 -0.1342 -0.1720
15466W        W31360  18.738   2.469   2.878 -0.0852  0.2557  0.0571
15467W        W31361   8.166  12.234   0.438 -0.0711  0.2729  0.0848
15468W        W31362  15.493   8.173  13.307  0.4106 -0.1657 -0.2225
15469W        W31363   7.849   6.523   1.653 -0.2620 -0.3196  0.2904
15470W        W31364   8.780  17.960   5.222 -0.2721  0.3291 -0.1402
15471W        W31365   2.924  11.968  14.359 -0.0656  0.4276 -0.0193
15472W        W31366  18.500  15.898  15.361  0.0832 -0.0598 -0.0389
15473W        W31367  18.496  10.956  12.334 -0.2804 -0.0651  0.0954
15474W        W31368   9.046   0.710  12.818  0.3214  0.0324  0.1039
15475W        W31369  16.476   7.499  12.150  0.1832 -0.0266  0.1041
15476W        W31370   0.054  18.393  11.522  0.0014 -0.3009 -0.2436
15477W        W31371  15.826  15.366   2.706  0.0644  0.3056 -0.1365
15478W        W31372   8.005   6.885   3.787  0.3415 -0.2442  0.0130
15479W        W31373   3.571  17.728  13.419  0.0976  0.0990  0.1867
15480W        W31374   4.692  11.043   1.478 -0.0586  0.0884  0.2645
15481W        W31375  12.007   0.626   5.293 -0.2439 -0.0964 -0.4225
15482W        W31376   5.433  11.940   2.927 -0.1140  0.1031 -0.2945
15483W        W31377   9.809  18.774   1.044 -0.2301  0.0935  0.0026
15484W        W31378  13.739   9.326  12.449  0.1731 -0.1314  0.2104
15485W        W31379   4.749  18.050  15.196 -0.1039 -0.0176 -0.0282
15486W        W31380   3.132   7.644   1.393 -0.2218  0.1202 -0.0731
15487W        W31381   0.763   7.447   4.932 -0.0785 -0.2548  0.0174
15488W        W31382  10.318  11.796  13.606 -0.2723 -0.0393 -0.1707
15489W        W31383   0.173   2.608  10.562  0.1678  0.0408 -0.1805
15490W        W31384   8.099   9.676   2.013  0.0602  0.0529 -0.0382
15491W        W31385  11.437  15.265   0.802 -0.0282 -0.0258  0.0748
15492W        W31386  13.864   8.981   2.575 -0.0941  0.3623  0.0903
15493W        W31387  11.938  11.438  13.710  0.0158  0.0886 -0.0960
15494W        W31388  15.906  10.307  13.804  0.0174  0.2093  0.0551
15495W        W31389   9.532   0.119  14.104 -0.1385 -0.0324 -0.0604
15496W        W31390  11.665   7.660   5.313 -0.0657  0.1433  0.1213
15497W        W31391  13.844   9.452   4.418 -0.1172 -0.4686 -0.2332
15498W        W31392  13.177   8.186   2.425  0.1454 -0.0860 -0.0743
15499W        W31393  11.740   5.731  11.298 -0.2363  0.2669  0.6613
15500W        W31394   7.947   4.823   4.152 -0.0193 -0.1812  0.1481
15501W        W31395   3.680   4.626   2.623 -0.1141 -0.1308  0.1340
15502W        W31396   2.430   8.624   2.073 -0.3117 -0.0426 -0.1281
15503W        W31397  16.813   7.560  14.965  0.0219  0.0707 -0.4381
15504W        W31398   0.219   5.805   3.916 -0.2738 -0.0863 -0.0482
15505W        W31399  18.615   3.349   2.524  0.0411 -0.1731  0.1375
15506W        W31400   2.427  15.676   0.754  0.0233 -0.0925 -0.1968
15507W        W31401   5.287  10.109  11.026 -0.3950  0.0377 -0.2986
15508W        W31402   0.705  16.472   0.536  0.0248  0.0993  0.2291
15509W        W31403  13.797  12.680   1.389  0.0714  0.2790  0.0771
15510W        W31404   4.400  14.101  10.743  0.2828 -0.0847 -0.0666
15511W        W31405   2.427  13.077  13.671 -0.0906 -0.4058  0.0309
15512W        W31406  15.138  13.858   3.669  0.2925 -0.2338  0.0574
15513W        W31407  13.816  16.784   1.529 -0.1074 -0.1345  0.2141
15514W        W31408   6.198  11.274  13.251 -0.1399 -0.3423  0.0674
15515W        W31409  10.608  16.805   0.707 -0.0224  0.0982 -0.0296
15516W        W31410   0.828  16.533   3.271  0.3415  0.2466 -0.1112
15517W        W31411   0.908  14.869  10.220  0.0297  0.5710  0.1862
15518W        W31412   3.800   9.137   3.291 -0.0319 -0.0316  0.1399
15519W        W31413   5.904  14.602   2.277 -0.0351  0.0868 -0.2270
15520W        W31414   4.475   2.104  14.216 -0.0793  0.0494 -0.2143
15521W        W31415   0.071  14.305  10.024 -0.0257 -0.0871  0.0133
15522W        W31416   4.502   4.996   4.826 -0.2652 -0.4524  0.1197
15523W        W31417   6.432   3.999   3.706 -0.3478 -0.0812  0.3789
15524W        W31418   5.405  16.868   3.388  0.0544  0.4277  0.3149
15525W        W31419   7.755  12.635   0.774  0.3734 -0.0475  0.1464
15526W        W31420   2.316   1.463  15.056 -0.3033  0.1726 -0.4609
15527W        W31421   3.916  10.758   2.493  0.0952  0.0531 -0.0107
15528W        W31422   8.379   3.419  10.952  0.0080 -0.2668  0.1572
15529W        W31423   6.036  17.413  11.813  0.0536  0.1773 -0.4077
15530W        W31424   0.696  14.377  12.732  0.2210 -0.0794  0.1190
15531W        W31425   2.566   6.248  15.115 -0.2202 -0.0836 -0.0452
15532W        W31426   2.269  17.060   2.677  0.1296  0.0048  0.1584
15533W        W31427   5.291  17.660   3.305 -0.3131 -0.0279 -0.4091
15534W        W31428   3.790  16.921   5.280 -0.0048  0.0994  0.0182
15535W        W31429  18.801  16.042  13.522 -0.0072  0.1394  0.1112
15536W        W31430  13.351   2.473   1.756  0.3925  0.0344  0.0089
15537W        W31431   6.730   1.413  13.689 -0.1114 -0.0195 -0.0436
15538W        W31432   1.858   8.886  13.513 -0.2008 -0.3204  0.0026
15539W        W31433   4.700  16.205   0.414 -0.3626 -0.0371 -0.2352
15540W        W31434  14.667  12.194   5.518  0.0891  0.0118 -0.2376
15541W        W31435   5.910   2.630  12.806  0.0966  0.2148  0.1806
15542W        W31436   7.673  13.777  12.217  0.2215 -0.1485  0.1309
15543W        W31437  11.736  17.361  10.130 -0.0025 -0.0008 -0.0061
15544W        W31438  13.840  16.648  12.869 -0.0848 -0.1730 -0.0081
15545W        W31439  12.017   0.242  13.833  0.0827 -0.1603  0.0632
15546W        W31440   1.879   9.444   9.199 -0.1412 -0.0156 -0.1406
15547W        W31441   9.248   8.784   2.898 -0.3070 -0.1023  0.1450
15548W        W31442  18.136  11.430   4.160  0.1178 -0.0082 -0.0327
15549W        W31443   9.171  10.940  12.334 -0.4072 -0.0895 -0.0884
15550W        W31444   0.302  14.037  12.843 -0.0328 -0.1595 -0.1772
15551W        W31445  15.567  18.376   6.027 -0.0633  0.0446  0.2082
15552W        W31446  18.123  12.123  12.199  0.0903 -0.0125 -0.3943
15553W        W31447  16.655   8.005  12.147 -0.0129  0.1825 -0.1056
15554W        W31448   2.720  16.387   1.681 -0.0178 -0.1027 -0.0660
15555W        W31449  18.096   7.516  12.518  0.1226 -0.0603  0.0053
15556W        W31450  11.083  10.832  11.845 -0.1180 -0.1043 -0.2837
15557W        W31451   4.305  18.029  10.405 -0.1650 -0.0734 -0.3169
15558W        W31452   7.470   9.353  15.167  0.2584 -0.2526  0.0071
15559W        W31453  16.304   7.578   3.241  0.2967 -0.3188 -0.1524
15560W        W31454   5.467   8.859  12.042  0.5174 -0.0120 -0.1281
15561W        W31455   7.857   3.572   1.757  0.0505 -0.1662 -0.1399
15562W        W31456   6.638  11.688   0.538  0.1306  0.3344 -0.2902
15563W        W31457   5.749  18.583  13.367  0.0963  0.0528  0.1272
15564W        W31458  13.223   0.739   0.643 -0.1072 -0.0670 -0.1166
15565W        W31459  18.159   0.163   2.472  0.3990 -0.0521  0.1030
15566W        W31460   5.946   8.077   1.916 -0.1014  0.0576 -0.0983
15567W        W31461  11.893   8.318  12.225 -0.1420  0.1060 -0.0174
15568W        W31462   9.777   3.271   2.956  0.0769 -0.0692 -0.0128
15569W        W31463   4.771   5.935   2.190 -0.0656  0.1547 -0.1281
15570W        W31464   9.829   1.626   0.547  0.0338 -0.2156 -0.1634
15571W        W31465   8.502   9.534  15.085 -0.0150  0.0007  0.0157
15572W        W31466   5.320   7.891  10.599 -0.1541  0.1638 -0.3756
15573W        W31467   0.234   6.444  11.012  0.1406  0.1329 -0.1976
15574W        W31468   3.216  18.157  13.419 -0.0415 -0.2208  0.3034
15575W        W31469  13.241  15.388   3.666  0.1206  0.2427  0.5340
15576W        W31470  17.292  18.401   3.268  0.0759  0.1891 -0.3931
15577W        W31471   0.638  11.411   0.308  0.0966  0.1467 -0.1312
15578W        W31472   7.254   7.025   0.462  0.2644 -0.2602 -0.0552
15579W        W31473  11.498   6.888   1.730  0.1630 -0.1523 -0.1627
15580W        W31474   8.631   6.387   2.314 -0.1419 -0.0309  0.4548
15581W        W31475   3.143   8.694   5.034  0.4505 -0.1876  0.2106
15582W        W31476  12.999  12.282   4.675 -0.1471 -0.0306  0.3145
15583W        W31477   9.244  18.028  11.588  0.1892 -0.0465  0.0507
15584W        W31478   9.672   1.230  15.282  0.4078 -0.0976 -0.0586
15585W        W31479   0.580   6.746   3.097 -0.2554  0.0207 -0.0179
15586W        W31480  11.126  16.326  14.573 -0.3470 -0.0584 -0.3680
15587W        W31481   8.126   5.151   1.546 -0.0876 -0.0002 -0.3012
15588W        W31482   1.910   0.817  14.932  0.3070  0.0020  0.1469
15589W        W31483  13.269  12.055   3.083 -0.0142  0.2063  0.3231
15590W        W31484  13.652  13.474   1.067  0.3704 -0.2154  0.1774
15591W        W31485  17.460   4.235  11.049 -0.0921 -0.2543  0.1120
15592W        W31486   9.479   4.960  15.001  0.1092 -0.0843  0.1189
15593W        W31487  13.849   4.977   4.819 -0.3951 -0.0735 -0.1036
15594W        W31488   7.509   8.147  13.620 -0.1500 -0.3048 -0.2863
15595W        W31489   4.287   1.440  12.146 -0.4005 -0.0408  0.0238
15596W        W31490  12.883   4.421   1.968  0.2272  0.3034 -0.1459
15597W        W31491   0.084   7.496   1.467  0.2439 -0.1735 -0.3219
15598W        W31492   0.357  17.465  13.703 -0.1598 -0.1359  0.1388
15599W        W31493   0.222  10.061  13.785 -0.1415 -0.2546 -0.0613
15600W        W31494  16.297  11.903   4.107  0.0488 -0.3637  0.2329
15601W        W31495   2.797   3.350  11.215 -0.1344 -0.0646  0.2332
15602W        W31496   4.904   3.376  10.557  0.0234  0.1990  0.2508
15603W        W31497   4.313  18.303   3.803 -0.1473  0.1306  0.3747
15604W        W31498   8.596  17.541   2.793 -0.0759  0.0069  0.0471
15605W        W31499   8.261   1.391   4.724 -0.1644 -0.1178 -0.1336
15606W        W31500   1.073   0.638  11.579  0.0014 -0.0121  0.0335
15607W        W31501   9.590   1.881   1.397 -0.0521 -0.0024  0.1431
15608W        W31502  15.820   7.747  11.525 -0.1687 -0.1854 -0.0325
15609W        W31503   5.560  11.576   2.619  0.1540 -0.2181 -0.0028
15610W        W31504  10.849   8.378   1.592  0.1836  0.0146  0.0063
15611W        W31505  10.517  12.933  13.053  0.3860  0.2444  0.0340
15612W        W31506   0.569   0.475   4.172 -0.0801 -0.3248  0.2031
15613W        W31507  18.512  10.465  13.314  0.0257 -0.0205  0.2893
15614W        W31508   6.908  16.105  14.609  0.0610 -0.3146 -0.5117
15615W        W31509  15.347   2.883   3.567 -0.1007 -0.2015 -0.5053
15616W        W31510  13.825  17.729  13.484 -0.0721 -0.1146  0.2355
15617W        W31511   4.132   4.651  15.189 -0.3425 -0.2408 -0.1535
15618W        W31512  13.262  10.540  14.197 -0.2830 -0.0852  0.0190
15619W        W31513  15.190  14.845  12.558  0.3362  0.0378  0.0919
15620W        W31514   7.869   5.658   2.131 -0.0671 -0.0358  0.0106
15621W        W31515   8.377   2.539  11.360 -0.1735  0.3915  0.4490
15622W        W31516   4.548  14.910  15.442  0.2455 -0.1930  0.0814
15623W        W31517   5.751   2.860   1.906  0.2022  0.0702 -0.0943
15624W        W31518  12.845   2.024   2.986  0.0026  0.2111  0.0012
15625W        W31519  13.193  15.828   2.223  0.0853 -0.0189 -0.2169
15626W        W31520  18.722   4.344  10.357 -0.1444  0.1077 -0.1908
15627W        W31521   8.236   5.509   2.491 -0.1358 -0.2655  0.0304
15628W        W31522  18.242   2.260  12.220 -0.0403  0.1115  0.1302
15629W        W31523  16.206  10.183   3.504  0.0479 -0.0652  0.1428
15630W        W31524  14.783  11.622   1.665 -0.0119  0.0424 -0.2797
15631W        W31525   4.185   6.584   0.577  0.0723  0.1357  0.1045
15632W        W31526   5.290  10.273  14.805  0.1593  0.0936 -0.0487
15633W        W31527  11.604  10.113   1.666  0.1669  0.1320 -0.1424
15634W        W31528  18.761   8.110  12.610 -0.0999  0.1832 -0.2826
15635W        W31529   7.654  15.087   4.695  0.0038  0.1016  0.1150
15636W        W31530   6.530   8.296  12.489  0.1904  0.4118  0.0086
15637W        W31531  11.673  12.823   4.738  0.0076  0.1138  0.1266
15638W        W31532   9.048   7.305   1.917  0.0207  0.2666 -0.0885
15639W        W31533  16.037  15.630  10.005 -0.0723 -0.0944  0.1740
15640W        W31534   6.121  11.522   2.284  0.0026 -0.0304 -0.1907
15641W        W31535   2.468   1.742  12.108  0.0871  0.1774  0.1830
15642W        W31536  14.301  14.542  10.945  0.0481  0.0556 -0.0467
15643W        W31537   0.277   0.619   5.025 -0.1601  0.1200 -0.1977
15644W        W31538  11.054   8.385   5.429  0.2090 -0.4130 -0.0183
15645W        W31539   5.940   1.982   5.436  0.0132 -0.0220  0.3742
15646W        W31540  10.697  17.792  12.165 -0.2754 -0.1034 -0.3630
15647W        W31541   4.345   0.436   3.814 -0.0572  0.2496  0.1705
15648W        W31542  17.915   1.906  14.489  0.2151  0.1246 -0.1927
15649W        W31543  14.374   9.195   5.382 -0.0716  0.1932 -0.2470
15650W        W31544   6.704  10.361   1.895  0.0136 -0.0478 -0.0521
15651W        W31545  10.273  10.277   0.263  0.2569  0.1266 -0.5039
15652W        W31546   4.115   7.869   5.190  0.3271  0.5869  0.0104
15653W        W31547   6.043   8.231  15.338 -0.0676  0.5140 -0.1911
15654W        W31548   5.655  12.330   0.748 -0.0722  0.1013  0.0841
15655W        W31549   7.252   6.477  10.931 -0.1460 -0.0982 -0.2071
15656W        W31550  10.117   1.268   3.284  0.1158  0.0159  0.0542
15657W        W31551   8.485   7.035  13.614 -0.2131 -0.1722 -0.3269
15658W        W31552  15.422   4.515   4.435 -0.1348  0.1577  0.0815
15659W        W31553  13.535   7.953  13.028  0.0095  0.1999  0.2139
15660W        W31554   9.050   3.356  14.149 -0.3254 -0.0104  0.1855
15661W        W31555  12.198  18.543   5.711 -0.0178  0.3293  0.0694
15662W        W31556   4.653   3.952   3.123 -0.1592 -0.2371  0.1241
15663W        W31557   4.112  14.948   3.603  0.3543 -0.2750  0.0465
15664W        W31558   7.695  13.322  12.470 -0.1983  0.0177 -0.0643
15665W        W31559  16.158  10.811   4.166  0.1890 -0.0216 -0.4494
15666W        W31560   8.998  10.737  15.236  0.1839 -0.0247 -0.0623
15667W        W31561   4.435   2.090   0.022  0.1709  0.1777 -0.2049
15668W        W31562   1.211  18.339   5.540  0.0854  0.0331 -0.0017
15669W        W31563  14.399  12.912   3.033  0.1254 -0.2895 -0.3721
15670W        W31564  11.173   3.477   5.448  0.1746 -0.1544 -0.0533
15671W        W31565  10.327  15.891   2.934 -0.0959 -0.4083  0.0487
15672W        W31566  17.319  11.897   5.403 -0.0461  0.1292  0.1211
15673W        W31567  18.192  17.530   2.670 -0.2979 -0.2092 -0.3426
15674W        W31568   6.344  18.153   3.947  0.0708 -0.0355 -0.0579
15675W        W31569   5.227  15.673   0.887 -0.0453 -0.0934  0.3378
15676W        W31570   3.428   6.311   4.485  0.1650  0.0024  0.0382
15677W        W31571   2.968   3.154  12.414 -0.1562  0.3454 -0.1017
15678W        W31572   8.693   6.535   0.383 -0.0933 -0.0784 -0.0858
15679W        W31573   0.550   8.183   2.063  0.0592  0.3220  0.0541
15680W        W31574  10.099   8.515   1.648 -0.0607  0.1319  0.1874
15681W        W31575  15.410   5.443   3.874  0.4278 -0.0731  0.1855
15682W        W31576   8.500  11.651   0.979  0.0326  0.1858 -0.2693
15683W        W31577  10.506   3.481  12.124  0.4876  0.0627  0.4256
15684W        W31578  14.633   8.100   4.955 -0.0722 -0.1263  0.0087
15685W        W31579  14.063   5.528   0.550  0.0701  0.0387 -0.0476
15686W        W31580  10.676  18.517   2.875  0.1500 -0.0819 -0.1542
15687W        W31581  13.531   0.387   2.609 -0.5448 -0.0370  0.0725
15688W        W31582   2.997   4.561   1.924  0.3255  0.3462  0.1335
15689W        W31583   1.073  15.506  12.936  0.1037  0.0573 -0.0691
15690W        W31584  16.462   4.816   3.322  0.1691  0.1815  0.0561
15691W        W31585  12.306  16.191   5.160 -0.0725  0.0670 -0.2363
15692W        W31586   1.320   9.759   4.366  0.1625  0.1067  0.0583
15693W        W31587   3.859  14.560   2.238 -0.4730  0.2037 -0.1762
15694W        W31588   9.580   9.053  14.341 -0.0130  0.0763  0.1561
15695W        W31589  10.662  15.952   5.421 -0.2186  0.0493  0.0265
15696W        W31590   9.203   7.450  12.488 -0.1009  0.0527 -0.1694
15697W        W31591   4.478   9.234   1.596  0.2076  0.0218  0.0888
15698W        W31592  14.049  11.106   0.374  0.1721 -0.0225  0.2967
15699W        W31593   3.709   5.693  13.483 -0.1476 -0.0271  0.0071
15700W        W31594   7.385  18.687   4.700  0.1441  0.3193 -0.1414
15701W        W31595   1.400   7.596  10.704  0.0709 -0.0902  0.1420
15702W        W31596   1.782   9.367  13.945 -0.1250 -0.1339 -0.4078
15703W        W31597  13.964   2.509  14.166 -0.2288  0.0524  0.0494
15704W        W31598  15.437   5.354   1.357  0.1393 -0.0474  0.1623
15705W        W31599  14.480  16.962   2.880  0.1418 -0.0360 -0.1266
15706W        W31600  13.138   3.078   3.467 -0.1325  0.1882  0.1414
15707W        W31601   1.942  14.156  14.366 -0.1634  0.0658 -0.0800
15708W        W31602  14.638   1.298   1.597 -0.3462  0.0521 -0.2631
15709W        W31603   4.373   8.100  12.013  0.1923 -0.1376 -0.0250
15710W        W31604   4.581   4.216  14.238 -0.0789 -0.1961 -0.2792
15711W        W31605   0.049  16.958  12.304 -0.2230  0.0640 -0.1123
15712W        W31606  15.332   1.966  13.512  0.0599  0.0164  0.2821
15713W        W31607   4.355   2.271   1.494 -0.1721  0.4397 -0.2903
15714W        W31608  13.791  11.620  15.047 -0.0251  0.1670  0.0230
15715W        W31609  13.907  13.872   2.070  0.1192 -0.0770 -0.1661
15716W        W31610   6.934  15.346   1.518  0.1959  0.0874 -0.0238
15717W        W31611  14.862   6.661   4.266  0.1225  0.2493  0.1741
15718W        W31612  15.092   0.736   5.261  0.2200 -0.1537 -0.0417
15719W        W31613  17.077  14.840  15.168  0.0440 -0.1230 -0.0320
15720W        W31614   6.318   9.826  10.980  0.3488 -0.3671 -0.4594
15721W        W31615   8.371   2.901   2.524 -0.1602  0.0996  0.0370
15722W        W31616   6.745  17.214   0.641  0.3729 -0.0618 -0.0345
15723W        W31617   5.481   1.145  12.901 -0.5930 -0.0036 -0.1027
15724W        W31618  14.943   4.581   4.825 -0.0696  0.0350 -0.0373
15725W        W31619  12.962   5.840   0.813  0.0621 -0.0709 -0.3094
15726W        W31620   7.710  12.025  13.264 -0.2383 -0.0386 -0.1753
15727W        W31621   0.023   4.452  13.202  0.0519  0.2386  0.3740
15728W        W31622   2.884   0.416  12.391  0.0764  0.1047 -0.2142
15729W        W31623   8.689  16.750   0.976  0.0390 -0.0717  0.0271
15730W        W31624   9.159  18.418  13.314 -0.2604 -0.3316  0.0230
15731W        W31625  17.341   5.431  12.881  0.0282  0.3879  0.0432
15732W        W31626  14.489  16.634  12.802  0.1928 -0.2241 -0.1241
15733W        W31627   8.773  15.163  14.733 -0.1818 -0.0459 -0.1423
15734W        W31628  15.317  16.636   5.360  0.0677  0.1964  0.0033
15735W        W31629   6.829   5.646   1.676  0.0713 -0.1572 -0.0988
15736W        W31630   8.091  14.631   2.813  0.0605 -0.0579 -0.1422
15737W        W31631  16.175   0.869   0.545 -0.2134 -0.1034  0.3058
15738W        W31632  15.300   8.489  14.415 -0.2718 -0.0806  0.1097
15739W        W31633   9.040   7.282   2.878 -0.2969  0.0160 -0.4572
15740W        W31634  12.069   3.484   5.423 -0.2362 -0.2482 -0.1604
15741W        W31635   9.845   8.856  15.434  0.0634  0.1055  0.0707
15742W        W31636  17.752   5.240  13.355  0.4318  0.1255  0.0180
15743W        W31637   0.380  13.659   5.151  0.0574 -0.4176 -0.3589
15744W        W31638   1.020   9.821  11.448  0.0514 -0.1127  0.0068
15745W        W31639   7.438  16.583  15.222 -0.0237 -0.4327  0.1128
15746W        W31640  13.084   8.758  12.820  0.1196  0.0580  0.0263
15747W        W31641   1.949  17.357  13.214  0.0658 -0.1266  0.1488
15748W        W31642   7.605  15.713  13.772 -0.3460  0.3334 -0.0685
15749W        W31643   9.135  14.250  12.390 -0.2613  0.0478  0.0479
15750W        W31644   0.848   6.425  14.554 -0.1807 -0.0315  0.0191
15751W        W31645   0.604   0.278   5.273 -0.1188  0.0034 -0.0487
15752W        W31646   2.685  17.354   4.847 -0.0804 -0.2122 -0.3683
15753W        W31647   1.038  15.349  11.275 -0.1686  0.1244 -0.2604
15754W        W31648   3.016  16.359  12.859  0.2908  0.1239 -0.0134
15755W        W31649   9.246   5.520   5.644  0.0455  0.1149 -0.1400
15756W        W31650  12.571  15.389  11.780  0.1820  0.0058  0.1864
15757W        W31651   8.983  11.660  12.871 -0.2999 -0.0429  0.3645
15758W        W31652   6.528   8.383  14.626  0.0165  0.1983 -0.0181
15759W        W31653   5.076   3.699   3.800 -0.1588 -0.2737  0.2882
15760W        W31654   5.467   0.449  14.303 -0.1653 -0.1199 -0.0492
15761W        W31655   3.953  13.551   4.349  0.1804 -0.0589 -0.0031
15762W        W31656  16.631   1.405  14.285 -0.0317 -0.1201 -0.1057
15763W        W31657  13.527  10.243   3.191  0.2291  0.3391 -0.2022
15764W        W31658  10.243  10.433   5.551  0.2507 -0.0699  0.0705
15765W        W31659  14.150   1.223  11.994  0.4386  0.0346 -0.0227
15766W        W31660  12.551   2.147   5.536 -0.0205 -0.0689  0.0161
15767W        W31661  16.417   8.015   4.446 -0.2314 -0.0102 -0.0334
15768W        W31662  10.911   5.888  12.130 -0.3196  0.0773  0.2633
15769W        W31663  18.197  14.165   2.671 -0.3558  0.0295  0.0221
15770W        W31664   7.541   5.050   3.427  0.3355  0.1272 -0.4438
15771W        W31665   5.436   9.456   4.254 -0.0699 -0.1321  0.0287
15772W        W31666  16.628  15.591   4.600 -0.2885  0.2827  0.0280
15773W        W31667   2.083   9.138   3.916  0.2243 -0.0156  0.0922
15774W        W31668   1.487  10.386  12.952  0.1174 -0.3567 -0.0000
15775W        W31669   6.261   0.760  13.823  0.2172  0.1123 -0.4170
15776W        W31670  17.250  13.413  13.232  0.3158 -0.0235  0.1503
15777W        W31671   6.068   3.282  14.394 -0.0181 -0.1549 -0.3792
15778W        W31672  12.430   0.076  12.730  0.0902 -0.0417 -0.1589
15779W        W31673   2.809  17.188  13.661 -0.2039  0.2946 -0.3793
15780W        W31674   9.736  14.901   0.837  0.0811 -0.2038  0.0115
15781W        W31675   9.870  15.295   0.120 -0.1355 -0.0568 -0.2511
15782W        W31676  18.249   6.005   4.154  0.1761  0.2898 -0.1164
15783W        W31677   4.499  12.396   2.843  0.3113 -0.2583  0.0690
15784W        W31678  15.625  11.271  12.924 -0.2092  0.0446 -0.1577
15785W        W31679  17.657   2.583  11.017 -0.0088  0.2050  0.2472
15786W        W31680   2.906  16.788   4.376 -0.0185 -0.1260 -0.2735
15787W        W31681   4.268   6.417   2.834  0.0318  0.2442  0.0137
15788W        W31682  15.537  18.588   1.068 -0.2624  0.2063 -0.1267
15789W        W31683  14.489  14.113  14.299  0.0988  0.0239  0.1966
15790W        W31684   8.113  16.481  10.553 -0.3073  0.0979  0.1973
15791W        W31685  17.444  17.976  15.039  0.0843  0.5328  0.1092
15792W        W31686  14.556  16.620   1.346  0.0248 -0.2693  0.0753
15793W        W31687   5.876  10.202  11.749 -0.0763 -0.0218  0.0106
15794W        W31688   7.825   2.727  11.313 -0.1950 -0.1537  0.0160
15795W        W31689  10.422  11.816  15.217 -0.0110  0.2726 -0.1445
15796W        W31690   0.004  12.044   3.551 -0.2184  0.1181  0.1111
15797W        W31691  18.833  15.859  14.995 -0.2690  0.2128  0.1592
15798W        W31692  16.375   8.166   3.267  0.0879 -0.1521 -0.0693
15799W        W31693  16.014   4.552  11.960 -0.0667 -0.1991  0.4599
15800W        W31694   9.619  13.997  14.346  0.1746 -0.2638  0.0847
15801W        W31695  13.348   7.131   2.353 -0.1609 -0.1361  0.1570
15802W        W31696   0.345  18.576   2.858 -0.1232  0.2055 -0.0548
15803W        W31697   7.201   4.149  11.344  0.0170 -0.2663 -0.1661
15804W        W31698  13.560  12.732  14.645 -0.0058  0.2325 -0.1248
15805W        W31699  11.342   8.455  12.126 -0.0763 -0.2075 -0.0124
15806W        W31700  14.300   1.918  11.975 -0.0624  0.0081 -0.1576
15807W        W31701  14.963  13.914   5.275 -0.1178  0.0851  0.0681
15808W        W31702   1.650   6.182   2.205 -0.1647 -0.1466 -0.1175
15809W        W31703   7.958  16.702  14.307 -0.4292  0.0411 -0.0827
15810W        W31704   0.742   6.421  14.028 -0.1283 -0.0068  0.1638
15811W        W31705   2.173   7.540   4.757 -0.2110 -0.2818 -0.1254
15812W        W31706  18.209  10.282   4.522  0.2331  0.0737  0.0094
15813W        W31707   2.634   1.910  14.186  0.0294  0.0734 -0.1044
15814W        W31708   6.926  17.563  13.261  0.0984  0.0464  0.2417
15815W        W31709   5.402   5.180  14.530 -0.0823  0.0701 -0.1850
15816W        W31710  11.993   3.999   4.468 -0.2301  0.3069 -0.4146
15817W        W31711   3.305  15.273   1.018  0.0328  0.1399 -0.0693
15818W        W31712   5.607   4.395   2.375  0.0732  0.1695 -0.1128
15819W        W31713  16.929   5.774  13.307  0.1845 -0.1386  0.0632
15820W        W31714  15.583  17.526  15.220  0.1978 -0.2056  0.1220
15821W        W31715  18.861   2.656  11.146 -0.0758 -0.0078 -0.0384
15822W        W31716   9.243  11.957  13.236  0.2857 -0.2753 -0.0604
15823W        W31717  18.261   7.930  12.312 -0.0765  0.2131 -0.0527
15824W        W31718   7.241   4.390   4.523  0.0848 -0.5135  0.1315
15825W        W31719  15.570   4.978  14.594 -0.2013  0.2196 -0.0135
15826W        W31720  17.225   5.396   4.086 -0.0530 -0.2130  0.0311
15827W        W31721  12.982   3.885   2.301 -0.2661  0.1179  0.1494
15828W        W31722  15.120   1.412   1.480 -0.1604 -0.0773 -0.0759
15829W        W31723  14.308   9.911   1.117 -0.4445 -0.1482 -0.1770
15830W        W31724   1.762   8.838   2.503 -0.0894 -0.2828  0.2417
15831W        W31725   8.321   7.128   4.486  0.1110  0.3327 -0.3120
15832W        W31726  14.073   4.102  15.360  0.1386 -0.0157 -0.2587
15833W        W31727  18.489   7.124  10.339 -0.1110 -0.2665  0.3594
15834W        W31728   3.559  14.113  12.466 -0.0812  0.3300 -0.1502
15835W        W31729  17.387  15.473   4.970 -0.2683 -0.1684  0.0003
15836W        W31730   1.021   5.085   0.699  0.1594 -0.1566 -0.0638
15837W        W31731   9.024   2.859  14.428 -0.1532 -0.0336 -0.0833
15838W        W31732   8.898   4.030   4.228 -0.3953  0.0318 -0.3134
15839W        W31733   3.704   1.656  14.399 -0.1282  0.0744  0.2357
15840W        W31734   0.944   7.487   1.307 -0.1376 -0.0876  0.3232
15841W        W31735   2.751  16.836  10.940  0.0310  0.1191  0.1640
15842W        W31736  14.315  10.513  14.022  0.1885  0.0473  0.0666
15843W        W31737  10.341   8.777  13.146 -0.0254  0.0191 -0.1715
15844W        W31738  13.307  17.903   4.433  0.1242  0.0294 -0.0119
15845W        W31739   0.239   6.161   4.590  0.0393 -0.1771 -0.0937
15846W        W31740   3.871   0.543  12.642 -0.2204  0.1471  0.2388
15847W        W31741  12.575  11.548   3.295  0.0156  0.3233  0.0907
15848W        W31742  14.753  17.253  11.400  0.1881 -0.2040  0.1420
15849W        W31743  10.078   6.844   2.110  0.3093 -0.3164  0.0079
15850W        W31744   8.319  17.547  15.295  0.1343 -0.0568 -0.1027
15851W        W31745  15.976  15.739   5.533 -0.2654 -0.2099 -0.2259
15852W        W31746   5.004  10.980  14.263 -0.0547  0.0813  0.0246
15853W        W31747   7.410  14.132   0.763 -0.3757 -0.0936 -0.1632
15854W        W31748   6.547   4.363   0.014 -0.0645 -0.2762  0.0325
15855W        W31749   0.617   8.792   4.730 -0.4107  0.2269 -0.1186
15856W        W31750  11.759   4.493  15.474  0.0335 -0.1121  0.1456
15857W        W31751   1.625   1.803   5.754  0.6142  0.2314  0.2534
15858W        W31752   6.881   6.144  12.046 -0.0355  0.1467  0.0760
15859W        W31753  17.002  10.339   1.257  0.1005  0.1078  0.1366
15860W        W31754  18.359   8.731  13.284 -0.3459 -0.1906  0.0614
15861W        W31755  14.970   0.243  15.299 -0.1178 -0.1104  0.0646
15862W        W31756   1.430  15.361  10.424  0.3053  0.2109  0.1956
15863W        W31757   1.407  14.470  11.769  0.1715  0.1347 -0.1707
15864W        W31758  15.784  16.621   1.281 -0.1442 -0.1240 -0.1506
15865W        W31759  16.231  10.726   1.570 -0.0291  0.0397 -0.0941
15866W        W31760  11.589   6.387  11.698 -0.2492  0.0563  0.0477
15867W        W31761   0.204  15.452   3.689 -0.2528 -0.2579 -0.3757
15868W        W31762  15.756   4.398   2.873 -0.1784 -0.3277  0.0249
15869W        W31763  17.715   3.950   1.306  0.1102 -0.2437 -0.1926
15870W        W31764   8.895  10.097  11.970  0.3237 -0.1958  0.2694
15871W        W31765   9.519  13.258  11.618  0.2780 -0.0788  0.2277
15872W        W31766  15.899   5.027  14.191 -0.2749  0.1237  0.2545
15873W        W31767   8.631   8.064  12.594  0.1039  0.0061 -0.2215
15874W        W31768  11.229  10.658   0.458 -0.0385 -0.1235 -0.2367
15875W        W31769  13.589   5.877  11.194  0.0556 -0.4187  0.0802
15876W        W31770   3.081  13.234  13.534  0.4013 -0.1407  0.0545
15877W        W31771   8.398   3.529   9.606  0.1354 -0.0228  0.0272
15878W        W31772   2.950  13.377   5.601  0.2066  0.0215 -0.0901
15879W        W31773   2.226   2.868  11.032  0.1372  0.2758 -0.3781
15880W        W31774   6.616  16.647   0.645 -0.2761 -0.2027 -0.1949
15881W        W31775  13.186   0.544  12.216 -0.1695 -0.1497  0.0510
15882W        W31776   9.091   3.926  14.411 -0.1498 -0.3561  0.0867
15883W        W31777  10.368   9.439  12.203  0.0366 -0.0610 -0.3173
15884W        W31778  13.687  14.109  14.758  0.1551 -0.3615 -0.2446
15885W        W31779   7.281  12.305   4.407 -0.3174  0.0426 -0.2640
15886W        W31780  16.596  10.152   9.505  0.1779 -0.0364  0.1928
15887W        W31781  12.700  12.305   5.073 -0.3661  0.0264  0.3118
15888W        W31782  14.513   5.738  10.983  0.1106 -0.0983  0.0458
15889W        W31783   1.591   5.668  11.620 -0.0647 -0.0614  0.2991
15890W        W31784  14.992   8.362   3.692  0.3437  0.0295 -0.1366
15891W        W31785  13.951   0.099  14.849 -0.1335  0.4373  0.4084
15892W        W31786   4.516   0.568  13.052 -0.0726 -0.2278  0.1206
15893W        W31787   6.110   2.574   2.135  0.6731  0.2804  0.0129
15894W        W31788   2.980  14.259  15.309 -0.1616 -0.2154  0.0655
15895W        W31789  16.802   8.758  10.460  0.2451 -0.1894  0.0713
15896W        W31790  17.893  17.657  14.270 -0.0103  0.1213  0.0531
15897W        W31791  18.024   1.363  12.683 -0.2618 -0.1328  0.5959
15898W        W31792  12.015   8.210  13.341 -0.2083  0.1791 -0.0999
15899W        W31793   0.507   5.789  11.358 -0.3700 -0.3004 -0.0296
15900W        W31794   6.668  12.435   3.244  0.3270  0.5396 -0.2763
15901W        W31795  12.208  12.196  10.271  0.1639  0.0235 -0.0505
15902W        W31796  17.909   9.347  14.393 -0.2222  0.0891 -0.0686
15903W        W31797  12.865  17.077   0.339  0.0391  0.1794 -0.0807
15904W        W31798   1.456   4.745  14.960  0.0856  0.1845  0.0627
15905W        W31799   6.972   2.172   1.985 -0.1357  0.0462  0.1575
15906W        W31800  11.107   2.305   0.200  0.0442  0.2901 -0.1527
15907W        W31801  14.714  17.599  13.294  0.0384  0.3629 -0.3805
15908W        W31802   2.847   3.927  15.448 -0.1444 -0.2405 -0.1468
15909W        W31803  13.294  12.113  11.683  0.0731  0.1590 -0.0342
15910W        W31804  16.214  18.472  14.018  0.4312  0.1452 -0.0372
15911W        W31805  18.076  15.222   1.113 -0.1485  0.0180  0.0488
15912W        W31806  10.646  12.444  13.011  0.0398 -0.2319 -0.3016
15913W        W31807  15.788   9.991  10.994  0.2053 -0.1510 -0.2061
15914W        W31808  15.492   7.930  12.874 -0.1431  0.2062  0.0346
15915W        W31809   3.548  13.341  14.586 -0.0747 -0.0484  0.1064
15916W        W31810  16.235  12.463   3.409  0.1791 -0.1723 -0.2240
15917W        W31811   1.590   3.094   2.038 -0.1680 -0.0529 -0.2763
15918W        W31812  14.322   9.761   0.631  0.3855 -0.2583  0.1627
15919W        W31813  16.463   4.556   0.824  0.1681  0.2093  0.0012
15920W        W31814   7.162  15.975  12.331 -0.0071  0.0807  0.0147
15921W        W31815   7.013   4.033   5.398  0.0779 -0.2176 -0.0324
15922W        W31816  11.957   8.439   0.220  0.0873  0.1537 -0.2238
15923W        W31817  17.158   4.373  13.354  0.1096  0.4611  0.1529
15924W        W31818   9.584   6.376   6.073  0.1147  0.2238 -0.0697
15925W        W31819  11.190  17.919  13.070 -0.3074 -0.1129 -0.3303
15926W        W31820  15.667   8.272   3.901 -0.2613  0.1860  0.2229
15927W        W31821  16.453   4.617   1.490  0.1140  0.2223  0.1087
15928W        W31822   5.489  15.023   3.949 -0.2227  0.1654  0.2155
15929W        W31823   6.931  10.448   0.822 -0.0029 -0.0979  0.1318
15930W        W31824  18.121   1.937   5.084 -0.0027  0.1502 -0.1382
15931W        W31825  12.988  11.170  14.812  0.1411 -0.2863  0.1498
15932W        W31826  13.589   1.810   1.093  0.2510  0.0087 -0.1996
15933W        W31827  13.306   4.172   1.601 -0.1960 -0.0356 -0.1170
15934W        W31828   5.961  11.456  13.650  0.1282 -0.1967 -0.2142
15935W        W31829   6.257  13.788  11.325  0.0582  0.1641  0.2041
15936W        W31830  10.118   9.495   1.817 -0.1015 -0.2982  0.1304
15937W        W31831   3.368  13.313   0.921  0.2505 -0.2139  0.1150
15938W        W31832   0.383   5.931   0.620  0.1180  0.1969 -0.1533
15939W        W31833  16.788   8.252   0.598  0.0677 -0.2240  0.1182
15940W        W31834   0.175  17.454  11.961  0.0253  0.2754  0.0336
15941W        W31835   2.159  10.078  10.800 -0.1500  0.0895 -0.0137
15942W        W31836   2.277   6.690   2.696 -0.3135 -0.2710  0.1681
15943W        W31837   5.039  14.000   2.343 -0.2252 -0.1538 -0.1199
15944W        W31838   9.878  14.646  10.951 -0.0334 -0.0865 -0.3890
15945W        W31839  11.910  18.711   4.762  0.2443 -0.2577 -0.0941
15946W        W31840   8.075  10.265   3.545  0.2603 -0.3048 -0.1567
15947W        W31841  10.140   3.450   1.989  0.1617 -0.0751 -0.1917
15948W        W31842  12.306   2.793   0.157  0.0324  0.0893  0.1913
15949W        W31843  16.331   5.561   0.601 -0.1888 -0.1132 -0.0589
15950W        W31844   0.331   0.167  13.477  0.0088 -0.1562 -0.2503
15951W        W31845  12.144   5.616  14.991 -0.1115  0.0364  0.1334
15952W        W31846   5.825   3.100   3.980 -0.0933  0.2322  0.5068
15953W        W31847  16.548  15.093  14.366 -0.2120  0.0790 -0.3255
15954W        W31848   6.270   0.656  11.855 -0.1690  0.3248 -0.0858
15955W        W31849  13.565  11.350   0.335  0.2256 -0.2424  0.1652
15956W        W31850  18.406  13.255  13.891 -0.1820 -0.0154 -0.1926
15957W        W31851   3.378   5.907   3.151 -0.5353 -0.2469 -0.0939
15958W        W31852   9.154  12.102   5.928  0.0714 -0.0121  0.0214
15959W        W31853  13.709   4.186  10.601  0.0220  0.1376 -0.2329
15960W        W31854  14.758   2.369  10.832  0.0695  0.3755 -0.3559
15961W        W31855  17.514  16.478  14.894  0.0211 -0.1525  0.0150
15962W        W31856  11.650  11.534   4.316 -0.4782  0.2449 -0.3007
15963W        W31857  10.728  13.916   5.997  0.0378 -0.0735  0.2261
15964W        W31858  12.210   2.372  14.610  0.2876  0.2200 -0.4192
15965W        W31859  18.369   9.569   1.272 -0.1547 -0.0308  0.1668
15966W        W31860   7.872  15.022  11.629  0.0629  0.0282  0.0388
15967W        W31861  16.482  16.167  11.821 -0.2364 -0.0344 -0.0934
15968W        W31862  17.683  13.737  10.661  0.1902  0.0707 -0.0471
15969W        W31863  15.659  15.848  15.074  0.0183  0.2032 -0.0801
15970W        W31864  15.566   3.166   2.732  0.0980  0.1493  0.1561
15971W        W31865  18.098   8.126   1.662  0.0387 -0.2835 -0.0228
15972W        W31866   1.975   1.727  12.843  0.3005 -0.0372 -0.5082
15973W        W31867  13.096  15.852  14.398  0.0413  0.0339  0.0204
15974W        W31868   3.182   4.574  14.798 -0.1729  0.3249  0.0890
15975W        W31869  16.500   4.915  12.897 -0.0959  0.2691 -0.1704
15976W        W31870   1.806   9.589  10.837  0.0964  0.2093 -0.3452
15977W        W31871   0.725  13.686  11.728  0.0383  0.0928 -0.0101
15978W        W31872   8.570   5.527  15.308 -0.1616 -0.3461 -0.1050
15979W        W31873  14.579  18.779   2.679 -0.3206  0.3285 -0.1328
15980W        W31874   3.233  13.960  12.801  0.1829  0.0621 -0.0301
15981W        W31875  15.845   4.541   4.726 -0.0580 -0.0074 -0.1530
15982W        W31876  11.966  17.877  11.412 -0.1182  0.3233 -0.4155
15983W        W31877   2.055  13.670   2.385  0.0364 -0.2013  0.0102
15984W        W31878  16.385   9.328  14.364 -0.0349  0.3438 -0.2814
15985W        W31879  17.703   3.182  14.660  0.0666 -0.1695 -0.2221
15986W        W31880   3.011   2.283  13.890  0.4346  0.2111 -0.0304
15987W        W31881  11.046  15.847   0.956 -0.2078 -0.4384 -0.0546
15988W        W31882   5.301   3.883  15.081  0.3295 -0.2010 -0.2029
15989W        W31883  15.875   0.478   4.505  0.1348 -0.4187 -0.0366
15990W        W31884   3.640   8.905  12.656  0.4447  0.0485  0.1469
15991W        W31885  11.323  13.426   5.379 -0.0054 -0.0103 -0.0716
15992W        W31886   8.542   1.991   2.656 -0.0304  0.0711  0.0663
15993W        W31887  14.429  12.305   1.591 -0.0798 -0.0743 -0.1044
15994W        W31888   7.690  16.112  15.105 -0.2482  0.0360 -0.0280
15995W        W31889  17.843   5.602  12.960  0.1649 -0.4575  0.3085
15996W        W31890   4.704  13.831  10.481 -0.3138  0.1090 -0.2428
15997W        W31891   5.700  16.417  15.442 -0.3728 -0.0426 -0.2637
15998W        W31892   5.577  13.929   3.473 -0.3466  0.0141 -0.2730
15999W        W31893   2.087   2.158   3.126 -0.2318  0.1303 -0.1023
16000W        W31894   7.442  12.982  11.418  0.0494 -0.2163 -0.0003
16001W        W31895   6.019   1.184  13.000  0.0234  0.0130  0.1801
16002W        W31896   3.189  18.734  11.506 -0.1425  0.0364 -0.2337
16003W        W31897   7.010   4.379   5.031  0.4159 -0.4542 -0.0829
16004W        W31898  15.394   8.965   0.023 -0.1301 -0.0676  0.1465
16005W        W31899  16.041   4.245  13.941 -0.1871 -0.1435 -0.0674
16006W        W31900   8.723  15.954  14.359  0.0660 -0.0567  0.0702
16007W        W31901   1.711   7.623   0.385  0.0055  0.1642  0.0532
16008W        W31902  18.165  16.076  13.259  0.1131  0.1294 -0.0422
16009W        W31903  14.838   9.601   4.641  0.4959  0.1542 -0.0021
16010W        W31904   9.125   9.513   5.033 -0.2367 -0.0394 -0.1554
16011W        W31905   0.083  12.771   4.337 -0.3505  0.1100  0.3672
16012W        W31906   8.410   2.860  12.617 -0.1020  0.0300  0.3284
16013W        W31907   7.084  16.841  14.856  0.0141  0.0686  0.0801
16014W        W31908  14.143  18.454   4.305  0.0232 -0.1295 -0.1402
16015W        W31909  14.454   0.636  14.177  0.0466 -0.2090 -0.1803
16016W        W31910   0.324   6.464   2.763 -0.2414 -0.1112  0.0398
16017W        W31911  13.989   8.491   2.093  0.0495 -0.0827 -0.0189
16018W        W31912  14.962  12.456  14.567 -0.4537  0.1983  0.1123
16019W        W31913  11.952   9.813   5.828 -0.5692  0.1277 -0.5131
16020W        W31914   1.352  14.039   0.543 -0.0473  0.0637  0.4575
16021W        W31915   0.494   9.605   0.016 -0.0178 -0.1630  0.0942
16022W        W31916  18.581   7.992   3.357 -0.2228  0.0859  0.1527
16023W        W31917  17.183   5.405  11.765  0.0748  0.0383 -0.2303
16024W        W31918  18.826  18.570   6.016 -0.0749 -0.2115 -0.3684
16025W        W31919  10.402  16.560  11.666 -0.0167  0.2063 -0.1466
16026W        W31920   1.173   6.184   1.754 -0.1030 -0.2160  0.1724
16027W        W31921  18.135   3.904   2.987  0.0699 -0.3413 -0.0074
16028W        W31922   4.629   5.946   1.581  0.0614  0.1327  0.2892
16029W        W31923   8.199   8.301  11.076  0.1198 -0.3155 -0.0893
16030W        W31924   1.540  15.244   2.159  0.1759 -0.2845  0.0426
16031W        W31925   2.943  15.038   3.848  0.3615  0.0558 -0.0687
16032W        W31926  18.151  10.144  11.759  0.0840 -0.2405 -0.0636
16033W        W31927   3.422  13.219   1.886 -0.1415 -0.0963  0.1075
16034W        W31928   9.064  12.307   4.618  0.2935 -0.0821  0.2910
16035W        W31929  11.466   0.156   5.504 -0.0775 -0.0177 -0.1965
16036W        W31930  18.623   0.127   2.637  0.2427  0.1389 -0.1624
16037W        W31931  13.224  13.149  13.166  0.1848  0.1164 -0.3561
16038W        W31932   7.000  12.521  13.413 -0.2047 -0.2193 -0.0830
16039W        W31933  11.659   1.342   2.657 -0.2819  0.0865 -0.0753
16040W        W31934  10.662   9.320   3.720  0.0455  0.1133  0.1744
16041W        W31935  18.597   8.378   5.844 -0.1756  0.0659 -0.3333
16042W        W31936  14.215  17.464  13.302  0.1286  0.4004  0.0928
16043W        W31937   0.557   3.707   4.098 -0.2605  0.1193 -0.4411
16044W        W31938   6.884   1.620   3.883  0.0387  0.4956  0.1408
16045W        W31939  11.248   5.891  15.394  0.0871  0.2070 -0.1675
16046W        W31940  15.976   0.061   4.205  0.1841 -0.2104 -0.0412
16047W        W31941  18.402  17.958   3.959  0.0031  0.0641 -0.1541
16048W        W31942   6.952  10.268  14.599 -0.0628  0.2449 -0.0237
16049W        W31943   4.892   4.753   4.034 -0.1212 -0.0508  0.2343
16050W        W31944   1.821  16.293   0.344 -0.3011 -0.3401  0.1717
16051W        W31945   9.746  10.088   2.609  0.0330 -0.0180 -0.0666
16052W        W31946   9.631   8.332  11.693  0.0356  0.0526 -0.2402
16053W        W31947   1.741   1.022  13.370 -0.1860  0.1335 -0.2501
16054W        W31948   4.971   6.835   4.592 -0.2510  0.1682 -0.0820
16055W        W31949   6.495   3.226   5.408  0.0753 -0.3113  0.1872
16056W        W31950  18.257  10.915   2.101 -0.0063  0.4254 -0.0898
16057W        W31951   7.235  18.418   2.358  0.0561  0.1911  0.1856
16058W        W31952   0.505  17.861  13.968  0.0725  0.0543  0.2435
16059W        W31953   6.499   4.165   5.032  0.1896  0.1845 -0.2769
16060W        W31954  16.158   0.390   3.471 -0.1928  0.0719  0.1308
16061W        W31955   2.279  13.718  13.324 -0.0138 -0.1454  0.2561
16062W        W31956   5.766   7.900  14.462  0.2411 -0.1223 -0.3529
16063W        W31957  13.895  15.186  12.406  0.0220 -0.1216 -0.0696
16064W        W31958  11.371   6.803  11.968  0.1856 -0.2167  0.1529
16065W        W31959   2.950   4.356  12.700 -0.1794  0.1630  0.0837
16066W        W31960  13.320  17.800  11.522  0.3331 -0.0777 -0.1017
16067W        W31961  12.511   2.727   3.194  0.0885 -0.1214 -0.2334
16068W        W31962   7.899  15.513  10.968  0.1562  0.0364 -0.3449
16069W        W31963  13.174  18.331  14.492 -0.0093  0.3194  0.2266
16070W        W31964  18.253  14.963   4.304 -0.0847 -0.0151  0.1061
16071W        W31965   0.969   8.239  12.564  0.2124 -0.1669  0.0941
16072W        W31966  16.109   6.405  14.651  0.0263  0.0729  0.0059
16073W        W31967  11.548   5.018  14.046  0.1136  0.0328 -0.0398
16074W        W31968   7.341   2.243   2.996  0.1325  0.0639  0.5208
16075W        W31969   6.507   5.144   3.017 -0.0087 -0.1396 -0.2636
16076W        W31970  18.211   5.707   2.042 -0.0076  0.0358 -0.0325
16077W        W31971  17.877   2.652   9.952 -0.4137 -0.0174  0.3008
16078W        W31972   2.298   8.543   3.265  0.1740  0.0835 -0.1456
16079W        W31973   4.524   9.824   0.777 -0.1033  0.1809  0.0950
16080W        W31974   9.298   4.249  15.227  0.0725 -0.1008 -0.1362
16081W        W31975  13.696  18.431   4.023 -0.4141  0.2581 -0.0292
16082W        W31976  14.159  16.696  12.417 -0.0314  0.0636  0.0729
16083W        W31977   6.982   2.707   1.929  0.1765  0.0137  0.1433
16084W        W31978  13.616  12.635   2.088 -0.1523 -0.0574 -0.1571
16085W        W31979  13.430   9.423   3.546  0.1389 -0.5522  0.0622
16086W        W31980   9.085  15.261   4.367  0.0264  0.3932 -0.1488
16087W        W31981   7.606   8.164   4.635  0.0096  0.0766  0.4767
16088W        W31982  18.838  15.233  11.337  0.0773 -0.1906  0.0121
16089W        W31983   7.498  14.320  13.112  0.1958  0.1885 -0.1382
16090W        W31984  13.454   0.826   5.110  0.0368  0.0300 -0.0365
16091W        W31985   0.459   4.624  13.432 -0.0518  0.1153  0.3043
16092W        W31986  16.259  16.867   3.774 -0.1859  0.1217 -0.0483
16093W        W31987   4.452  10.217  10.546 -0.0372  0.2555  0.2436
16094W        W31988  12.545   9.296   5.910  0.2570  0.0108 -0.2948
16095W        W31989  13.061  10.868  13.837  0.0194  0.1679  0.2221
16096W        W31990   7.992   7.388   3.658 -0.0029  0.2023  0.1540
16097W        W31991  11.294  16.532  12.627 -0.3700 -0.3274 -0.1021
16098W        W31992  12.441   6.035  14.052 -0.3262 -0.1315 -0.1847
16099W        W31993  15.750  12.931   2.037  0.1356  0.2630  0.0986
16100W        W31994  11.063   6.866  13.382  0.4484 -0.3337 -0.2198
16101W        W31995  17.843  11.173  14.994 -0.1170  0.2677 -0.0022
16102W        W31996   7.260   2.958   3.805  0.4471 -0.4295 -0.0374
16103W        W31997  15.785  16.166  14.644  0.0112  0.1954 -0.2574
16104W        W31998   7.343  18.538  11.283 -0.0581  0.3953  0.1102
16105W        W31999   1.044  11.467   1.991  0.0820  0.1032  0.0554
16106W        W32000  14.924  13.618  13.547 -0.1214  0.0083  0.2366
16107W        W32001  12.249   5.189  11.751  0.1187  0.0708  0.1795
16108W        W32002   0.171   5.007  14.991  0.0606 -0.0852 -0.1181
16109W        W32003  10.580  10.636   5.113 -0.1138  0.0511  0.1077
16110W        W32004  15.269  18.482  11.628 -0.1525 -0.1308 -0.1514
16111W        W32005   9.972  13.925  13.794 -0.0316 -0.1655  0.2322
16112W        W32006   1.371  18.662   3.800 -0.1125  0.1503 -0.0696
16113W        W32007  14.758   6.872  12.947  0.3285  0.2204  0.2451
16114W        W32008  16.858  17.300   1.860  0.1081  0.1112 -0.2168
16115W        W32009   6.244  17.634   2.019 -0.0524  0.2245 -0.1866
16116W        W32010  18.430   9.167  12.128 -0.0026 -0.2507  0.0357
16117W        W32011   7.691   3.831   0.767 -0.2886 -0.1218  0.3506
16118W        W32012  10.727   7.416   2.469 -0.4231 -0.0516  0.0296
16119W        W32013   2.990  18.622   4.410 -0.1770 -0.0601  0.2925
16120W        W32014   8.760   5.108   3.742  0.1148 -0.0016 -0.6249
16121W        W32015   6.174  10.839  12.237  0.3126 -0.0574  0.3002
16122W        W32016  10.400  14.718  12.167 -0.1403 -0.1370  0.0666
16123W        W32017  11.336  14.185   4.782 -0.3306  0.3096  0.2290
16124W        W32018   2.615   1.463   1.119  0.1428  0.0197 -0.0514
16125W        W32019   2.360  18.259  11.619  0.0702  0.0314  0.0065
16126W        W32020  11.779   7.232  14.058  0.0924  0.1528  0.1181
16127W        W32021   3.253  17.735   2.486  0.0527  0.3231 -0.1227
16128W        W32022   7.495  17.436   3.314 -0.0277  0.3288 -0.1862
16129W        W32023  14.094  12.499  11.921 -0.3794 -0.0909  0.0211
16130W        W32024   6.124  11.908  13.443  0.1626 -0.2572  0.0699
16131W        W32025   8.039  13.609   2.603  0.2671  0.1421  0.2749
16132W        W32026  18.549  10.587  11.576 -0.0133  0.0995 -0.1844
16133W        W32027   0.534  15.388  11.320  0.2161 -0.3878  0.1654
16134W        W32028   9.149   1.546  14.414 -0.2330  0.1972 -0.2032
16135W        W32029   9.796  11.820   0.874  0.0967  0.1103  0.2286
16136W        W32030  17.124   0.111   2.339  0.0043  0.0984 -0.1547
16137W        W32031  13.005   3.109  12.037 -0.0576  0.2241 -0.2165
16138W        W32032  15.741   4.380  10.865 -0.4026 -0.3203 -0.1003
16139W        W32033  16.983  16.816  12.405  0.3504 -0.1088  0.1944
16140W        W32034  18.769  17.421   2.169  0.2630 -0.3366 -0.2404
16141W        W32035  11.529  13.955   5.228 -0.2535  0.1957  0.3059
16142W        W32036  15.274   4.293  13.399  0.0284 -0.0490  0.0025
16143W        W32037  16.574   9.737   2.321  0.0153  0.0674  0.1528
16144W        W32038  17.275  13.929  15.072 -0.0663  0.0653 -0.4349
16145W        W32039   5.409   0.343   4.484  0.1892 -0.4349 -0.1676
16146W        W32040  15.456  13.118   2.429 -0.1689  0.1145  0.2556
16147W        W32041  14.391  10.266   5.346 -0.1463 -0.2387 -0.0432
16148W        W32042   0.675  10.401   2.556  0.0135 -0.1303  0.3027
16149W        W32043  17.140   3.346  14.448  0.1298 -0.0773  0.1050
16150W        W32044  15.434  14.527   2.568  0.0067  0.0994 -0.0588
16151W        W32045   4.492   3.937   1.701 -0.0675  0.0288 -0.0286
16152W        W32046   1.327   3.663   0.875 -0.1676  0.0736 -0.1419
16153W        W32047   2.730   4.340   2.949 -0.2287  0.0468 -0.0860
16154W        W32048   7.711  14.680  12.580  0.0548 -0.1377 -0.3162
16155W        W32049   0.553  18.321   4.199  0.3011  0.4263  0.1912
16156W        W32050   0.402  13.795   0.247  0.0878 -0.0982 -0.1125
16157W        W32051  14.062  10.710  10.574 -0.0419 -0.0106  0.1717
16158W        W32052  15.095  12.850  13.723  0.0066  0.3604 -0.0440
16159W        W32053   0.676  18.166   2.159  0.0964  0.0735 -0.1558
16160W        W32054   9.100   3.666  13.487  0.0328 -0.0466 -0.2602
16161W        W32055   6.707  17.974  14.350 -0.0207 -0.1764 -0.0204
16162W        W32056   8.747  10.522   4.512 -0.1279  0.1027  0.2727
16163W        W32057  16.217  13.267  15.104  0.5553  0.2430  0.0999
16164W        W32058   2.812  13.095  11.377  0.2827  0.1339  0.0088
16165W        W32059  15.801  14.509  13.241  0.3371 -0.1668 -0.0252
16166W        W32060   1.847  13.492  13.441  0.1859 -0.1538 -0.2056
16167W        W32061  13.528   6.689  12.774  0.2686  0.2881  0.1010
16168W        W32062  16.521   9.647   2.842  0.2464 -0.0607  0.1772
16169W        W32063  14.066  15.881  14.460  0.0076  0.3115  0.1496
16170W        W32064   3.100  15.855  13.265  0.1797  0.0191  0.1559
16171W        W32065   4.698   3.038  11.713 -0.0234 -0.0012 -0.0178
16172W        W32066   8.503   0.815  14.758  0.0940 -0.1329 -0.4027
16173W        W32067   3.028   4.509   4.745 -0.0520 -0.0497 -0.0136
16174W        W32068  15.567  18.806   2.839  0.0798  0.4535 -0.0334
16175W        W32069  17.444  17.699   0.690  0.0930  0.2162  0.1743
16176W        W32070   7.866  13.182  11.614 -0.1372 -0.0220  0.0720
16177W        W32071  17.567  11.834   0.292 -0.1588 -0.1022 -0.3563
16178W        W32072   1.856  13.691   5.687 -0.2911  0.0290  0.1591
16179W        W32073  10.231  17.198   3.655 -0.1194  0.0219  0.0501
16180W        W32074   7.473  16.414   2.536 -0.3953 -0.2017  0.0567
16181W        W32075   0.005  13.426  14.044  0.0561 -0.2330 -0.1335
16182W        W32076  13.424   2.973  14.826  0.3779  0.4058 -0.0797
16183W        W32077   6.929   2.959  10.716  0.0058 -0.1006 -0.0663
16184W        W32078  11.035  15.953   1.554 -0.2687 -0.3777  0.1318
16185W        W32079  12.230  11.990   1.144 -0.2475  0.1880  0.0408
16186W        W32080   2.999   5.912   4.365 -0.2248 -0.0941 -0.2540
16187W        W32081   3.287  10.260   2.380  0.0207 -0.0491  0.1743
16188W        W32082  18.572   7.030   4.884 -0.3236  0.0685  0.1016
16189W        W32083   1.337   4.794  11.712  0.1035 -0.1273  0.1087
16190W        W32084   0.296  13.565   2.326  0.1158 -0.0272 -0.2862
16191W        W32085  10.678   5.567  14.981 -0.0365 -0.1602 -0.1835
16192W        W32086  12.442  18.793  15.124 -0.1299 -0.1307  0.2294
16193W        W32087   9.763  17.239   1.695  0.2844  0.0379 -0.1651
16194W        W32088   5.203  11.431  11.456 -0.2060  0.0507  0.1999
16195W        W32089  10.463   6.229   1.898 -0.3000 -0.0392 -0.2037
16196W        W32090  14.919   4.688   2.406 -0.2486  0.2216 -0.2529
16197W        W32091   3.781  16.815   2.533  0.1324 -0.0221 -0.0038
16198W        W32092   2.685  17.692   1.798  0.1806  0.2465 -0.3203
16199W        W32093   9.610  18.386   0.753  0.3581 -0.1230 -0.0898
16200W        W32094  14.861  15.212  11.617  0.3473  0.3141 -0.0119
16201W        W32095  10.467   9.675   1.415 -0.0164  0.3630  0.2782
16202W        W32096  16.525  16.408  15.120 -0.1866  0.4776  0.3174
16203W        W32097   8.986  13.342   4.462  0.0226  0.0168 -0.0440
16204W        W32098   0.040  11.599   1.330 -0.0195 -0.3779 -0.1220
16205W        W32099   8.173  13.079  14.563 -0.0059  0.1657  0.0500
16206W        W32100   7.287   7.005   1.113  0.0921 -0.3480 -0.0275
16207W        W32101  15.138  18.187   1.430  0.1889  0.0321 -0.1222
16208W        W32102   8.634   4.851  13.651 -0.5475  0.1912  0.1148
16209W        W32103   7.173   5.335   0.778  0.1277 -0.0399 -0.1796
16210W        W32104   2.953  18.779  10.569  0.1348 -0.2317  0.0093
16211W        W32105  10.494  10.977   3.161 -0.0543  0.0797  0.2942
16212W        W32106   9.975   6.622   4.032  0.0471  0.1956 -0.1695
16213W        W32107   9.882  16.242   4.493  0.0678 -0.1078  0.1555
16214W        W32108  14.205  18.458   1.350  0.0234  0.0676  0.1416
16215W        W32109  16.881   7.218  14.549  0.0703 -0.0159  0.0757
16216W        W32110  15.197  18.425  14.287  0.0170  0.0750  0.2944
16217W        W32111  12.610   1.465   1.539 -0.1712 -0.0140 -0.0073
16218W        W32112   9.911   8.706  13.533 -0.2250 -0.1567  0.1130
16219W        W32113   8.665   3.467   1.441  0.0281 -0.2170 -0.0736
16220W        W32114   2.772   9.542   3.320 -0.2083 -0.2062  0.0959
16221W        W32115   5.302   8.915   4.359  0.3478 -0.0081  0.2428
16222W        W32116  15.286   0.183  11.669  0.0787  0.0217 -0.3697
16223W        W32117   9.527  18.503  12.926  0.1347 -0.1399  0.0842
16224W        W32118   3.863  13.570   2.448  0.0457 -0.1033  0.2001
16225W        W32119   4.498   8.469   4.428  0.3174 -0.0838 -0.1955
16226W        W32120   4.623   7.709   2.619  0.2176 -0.0173  0.0249
16227W        W32121  18.869   6.436  14.664  0.0887 -0.1872 -0.1600
16228W        W32122   4.603   2.776  11.289 -0.1252 -0.1811 -0.0492
16229W        W32123   8.010   2.098  11.308 -0.0044  0.0762  0.0673
16230W        W32124   2.793   5.401  15.258 -0.3865  0.0476  0.2762
16231W        W32125  16.003  14.228   3.418  0.1250 -0.3107  0.0575
16232W        W32126   4.258  18.790  10.466  0.1143  0.4428  0.0297
16233W        W32127  15.224   9.679   0.508  0.0042  0.3728  0.4458
16234W        W32128  15.727   7.986   2.640 -0.1641  0.0013  0.0531
16235W        W32129   7.147  16.893  12.574 -0.0721  0.1781 -0.1005
16236W        W32130   2.742   8.590   2.936 -0.4312 -0.5012  0.0112
16237W        W32131   9.438  15.651   5.295 -0.4431 -0.0599 -0.4967
16238W        W32132   0.072  15.033  14.069 -0.1512  0.2099 -0.1011
16239W        W32133  12.195  17.864  12.228  0.1445 -0.1786 -0.0695
16240W        W32134  17.361   2.992  13.357  0.0093 -0.1954  0.2749
16241W        W32135   7.266  15.792  13.327  0.0227  0.2813  0.1039
16242W        W32136   8.969   8.444  13.871  0.0248 -0.0275  0.3722
16243W        W32137   1.384  14.302  10.531  0.1346 -0.0192  0.0610
16244W        W32138  16.407  12.151  13.408 -0.1113  0.4424 -0.1109
16245W        W32139   1.148   0.760  15.433  0.4581 -0.1486  0.0279
16246W        W32140   0.793  18.630   3.109 -0.0630  0.0164  0.0929
16247W        W32141   1.123   9.364  13.272 -0.0748 -0.0455  0.1158
16248W        W32142  11.161   9.451  11.098 -0.1256 -0.1344 -0.2560
16249W        W32143   0.706  13.667   0.626 -0.2799 -0.3407  0.0031
16250W        W32144  14.240   7.802  12.074 -0.0803 -0.1675 -0.1037
16251W        W32145   8.789   6.115  13.187  0.1599  0.0484  0.1127
16252W        W32146   0.368   9.301   5.361 -0.0491 -0.3081  0.3050
16253W        W32147   0.563  14.731  13.384  0.2483 -0.0778 -0.5336
16254W        W32148  17.490  12.087  10.629 -0.2574  0.3399  0.0793
16255W        W32149   1.917   2.814  13.618 -0.0203 -0.0018  0.2950
16256W        W32150   1.144   8.255   2.667 -0.2021  0.0862 -0.0703
16257W        W32151  17.812   2.681   0.541  0.1709  0.0661  0.0519
16258W        W32152  14.900   4.779   2.908 -0.0352 -0.0785 -0.0555
16259W        W32153   9.894  15.990   2.279 -0.0861  0.2060 -0.2555
16260W        W32154  17.039   5.679  14.408 -0.1248  0.2901  0.1665
16261W        W32155  11.157   0.362   3.021  0.1969 -0.0279 -0.0569
16262W        W32156  14.106   5.013   4.398 -0.1364  0.3663  0.0698
16263W        W32157  14.436  13.859   1.702  0.3863 -0.2280 -0.2750
16264W        W32158  16.476  15.579   0.735  0.0405 -0.0534  0.1793
16265W        W32159  18.504   6.727   0.482  0.0131 -0.1199  0.0270
16266W        W32160  12.087   6.778   2.854  0.0539  0.0281  0.0850
16267W        W32161  17.393  10.103   1.918 -0.5274  0.0396 -0.1503
16268W        W32162   4.332   9.051   0.406 -0.2485  0.1290 -0.0336
16269W        W32163  16.500  14.851   2.071 -0.0158  0.2144 -0.2638
16270W        W32164  17.388   4.098  15.447  0.1770  0.1720  0.0604
16271W        W32165   2.326   5.759   5.029  0.0822  0.0265 -0.1739
16272W        W32166  10.067   4.325   4.950 -0.2417 -0.0038 -0.0464
16273W        W32167  14.031   3.095   0.646  0.1453  0.0603  0.3017
16274W        W32168  17.102   8.627   0.410  0.2050  0.0515  0.0995
16275W        W32169   2.060   9.494   1.280 -0.1643 -0.0403 -0.1609
16276W        W32170   0.408  11.800   0.830  0.1063  0.0533  0.3580
16277W        W32171   9.934  13.668   3.169  0.0315  0.0869 -0.1045
16278W        W32172   0.019  15.614  14.056  0.1501 -0.1860 -0.0971
16279W        W32173  11.725  15.416   5.582  0.0811 -0.0025  0.1206
16280W        W32174   0.485   4.736  12.867 -0.1335 -0.1189  0.1321
16281W        W32175  10.060  13.211  14.297  0.0716  0.1343 -0.1690
16282W        W32176  10.836   4.515  14.249  0.0400 -0.0654  0.0013
16283W        W32177   3.050   7.911  14.139  0.0412  0.0050  0.2232
16284W        W32178  12.563  17.508  12.290 -0.3352  0.0438 -0.0210
16285W        W32179  13.942   1.014   1.008  0.0883 -0.2079 -0.0945
16286W        W32180   8.890  12.659  12.555  0.3624  0.3835  0.1641
16287W        W32181  11.320   9.684  12.469  0.4294 -0.0164 -0.0186
16288W        W32182   3.668  15.756  10.809  0.1040 -0.2387  0.0481
16289W        W32183   8.015   8.858  15.217  0.1737 -0.4325 -0.2668
16290W        W32184  11.167  11.275   4.847 -0.4783 -0.4661  0.0191
16291W        W32185   2.501  11.413   2.723 -0.0069 -0.1083  0.0794
16292W        W32186  18.017  13.244  11.355 -0.1142 -0.0770  0.0861
16293W        W32187  13.226   2.441  14.913 -0.2370  0.2997 -0.2435
16294W        W32188  16.457   4.465  11.586 -0.2782  0.2820 -0.0660
16295W        W32189  11.999  17.867  14.151 -0.1798  0.1312  0.2906
16296W        W32190   7.195   8.211  10.946 -0.0241 -0.1666  0.1364
16297W        W32191   9.409  11.785  15.432  0.0292  0.2982  0.1183
16298W        W32192  16.608   2.325   1.513 -0.0233 -0.0211  0.0495
16299W        W32193   1.815   5.831  12.627 -0.0482 -0.1210  0.0043
16300W        W32194   0.922  14.844  14.341 -0.2411 -0.1042 -0.1702
16301W        W32195   8.881   2.862  13.964  0.3098 -0.2616 -0.0848
16302W        W32196   2.085   4.458   1.715  0.4148  0.0290  0.2454
16303W        W32197  13.322  14.191  11.719 -0.0332 -0.1532 -0.1152
16304W        W32198   8.646   1.719   1.458 -0.4602 -0.0608  0.1627
16305W        W32199   3.018   0.933   4.170 -0.0880 -0.0278  0.1483
16306W        W32200  14.402   8.633  12.224 -0.1218 -0.1677 -0.1315
16307W        W32201   1.554  16.787  14.959 -0.0786  0.2601 -0.1070
16308W        W32202   3.237   9.971  15.275 -0.3416  0.0079 -0.1177
16309W        W32203   7.152   9.549  11.057 -0.0651  0.2424 -0.0379
16310W        W32204   6.560  10.928  15.217  0.0124 -0.0215  0.1105
16311W        W32205   7.425  15.708  15.187 -0.0169 -0.2330 -0.2910
16312W        W32206   4.486  14.347   0.078  0.1545  0.0367  0.1234
16313W        W32207  12.415  10.708   2.694  0.2233 -0.0433  0.0652
16314W        W32208  13.731   3.550   0.569  0.1180 -0.0716 -0.3154
16315W        W32209  15.737  18.635  11.718 -0.1506 -0.1661  0.1090
16316W        W32210  14.644  12.671   5.355 -0.1873  0.1372  0.0890
16317W        W32211   9.502   5.487   3.587  0.2571  0.2715  0.0329
16318W        W32212   4.582  10.818  14.019 -0.1139  0.0981  0.0046
16319W        W32213  13.128  11.515   0.142 -0.0743 -0.0169 -0.1897
16320W        W32214   6.779  17.001   2.448 -0.1244  0.0448  0.1809
16321W        W32215   2.470  15.166  15.412 -0.3434 -0.4517 -0.0670
16322W        W32216  16.818  11.107  15.064  0.0909  0.2156  0.1353
16323W        W32217  10.006   8.688   0.599 -0.1790 -0.2467 -0.1912
16324W        W32218   6.543  10.017  10.507 -0.1957 -0.2185 -0.0490
16325W        W32219   4.641   1.068  11.353  0.1459 -0.1534 -0.0474
16326W        W32220   2.845   9.337   1.475 -0.0473  0.1889 -0.3070
16327W        W32221   7.416   5.881  13.349 -0.0300 -0.0684 -0.1315
16328W        W32222   6.743  15.445  10.272 -0.0831 -0.0744 -0.2001
16329W        W32223  18.318   8.247   5.078 -0.0077  0.2178 -0.0402
16330W        W32224  15.690   9.152   0.353  0.2228  0.2298 -0.2055
16331W        W32225   5.592  12.993   1.350 -0.1597 -0.1377  0.0927
16332W        W32226  11.504   1.597   3.782  0.0244 -0.0253 -0.3661
16333W        W32227   5.333   0.298  15.274  0.2525  0.0535  0.2441
16334W        W32228   2.097   6.532  15.134  0.1280 -0.1579  0.3418
16335W        W32229  12.379   6.527  10.403  0.3045 -0.1614  0.2291
16336W        W32230   8.244   0.759   5.486  0.2629  0.2323 -0.1622
16337W        W32231  14.624  17.888   1.685 -0.1217 -0.0018  0.1953
16338W        W32232  16.476  14.525   4.847 -0.2146  0.2712 -0.0634
16339W        W32233   2.993   8.364   3.744  0.0205  0.2341 -0.0322
16340W        W32234  11.803   0.237   0.576 -0.0707  0.0127 -0.1187
16341W        W32235  11.349  16.242   0.908 -0.0113 -0.1393 -0.1274
16342W        W32236   3.567  13.543   3.615 -0.3831 -0.2529  0.1436
16343W        W32237  11.459   1.712  14.671  0.3209 -0.2092 -0.2204
16344W        W32238  11.259   1.808  15.192 -0.1976  0.1593  0.1210
16345W        W32239  18.787   1.142   0.371 -0.1089  0.0361  0.0604
16346W        W32240   2.586   6.928   4.241  0.0655  0.2247 -0.0643
16347W        W32241  14.713   2.149  12.661  0.0040 -0.0233 -0.1915
16348W        W32242  10.202   5.938  13.532  0.0575  0.4179 -0.0643
16349W        W32243   7.157   5.602   5.281  0.0091 -0.0623  0.2533
16350W        W32244  17.008   9.968   2.741 -0.1002 -0.0069 -0.0504
16351W        W32245  18.562  13.796  12.075 -0.0931  0.0872 -0.2068
16352W        W32246  17.326   4.185   3.650 -0.0335  0.2186 -0.8465
16353W        W32247   2.144  14.055  13.791 -0.0855  0.0941  0.3387
16354W        W32248   3.118  11.734   4.270 -0.1627 -0.3111 -0.1769
16355W        W32249  11.680   1.649   0.040  0.1868  0.0776 -0.0521
16356W        W32250  11.805  18.141  15.416  0.1073 -0.1264 -0.1709
16357W        W32251   7.552  17.335  13.907  0.0459 -0.3225  0.1367
16358W        W32252   8.734   5.774  12.087 -0.1896  0.2011 -0.1140
16359W        W32253  15.810   0.307  15.403  0.0541 -0.0313  0.2171
16360W        W32254   1.575  11.272   1.379  0.3073  0.0579 -0.0073
16361W        W32255   4.476  11.562  12.734 -0.3581 -0.0770  0.1920
16362W        W32256  10.527   3.587   3.690 -0.0761 -0.0777 -0.1361
16363W        W32257   5.135   2.579  11.119  0.0419 -0.4065  0.0195
16364W        W32258   7.874   6.344  14.351  0.0118  0.1033  0.4819
16365W        W32259  11.108   1.728   6.218  0.1818 -0.2102 -0.4302
16366W        W32260   4.840   6.770   1.499  0.6922  0.1480  0.1549
16367W        W32261   6.719   9.274   1.572  0.2293 -0.1330  0.1469
16368W        W32262   3.384  16.537  14.269 -0.2297  0.3043 -0.1259
16369W        W32263   7.291   9.057  10.736  0.0291 -0.3100  0.2567
16370W        W32264   3.422  16.841  13.330 -0.2244 -0.2055  0.3058
16371W        W32265   7.778   9.990   2.518 -0.0239  0.0383 -0.2976
16372W        W32266  14.617   9.960   4.972  0.0664 -0.1668 -0.0625
16373W        W32267   7.676   9.623   1.130 -0.1588  0.3345  0.1139
16374W        W32268   1.534  10.846   2.384  0.2174 -0.1445  0.2242
16375W        W32269  10.404   0.215  14.383  0.0827 -0.2848  0.0972
16376W        W32270  16.391   8.151   1.874  0.4045 -0.2567 -0.2694
16377W        W32271   5.414  13.416  14.160 -0.1469 -0.0292 -0.0538
16378W        W32272   6.701   2.586  13.997 -0.1411 -0.2086  0.1052
16379W        W32273   5.086   8.497   4.673  0.0596 -0.1489  0.1365
16380W        W32274   8.639   6.998  11.781 -0.1083 -0.2866 -0.0324
16381W        W32275   0.736   1.211  15.469  0.0434  0.3263 -0.1995
16382W        W32276   1.065  15.576   3.522 -0.1056 -0.1482 -0.0357
16383W        W32277   5.095   4.184   2.987 -0.1694  0.1672  0.0470
16384W        W32278   3.554  16.242   4.535  0.0126  0.0298 -0.0181
16385W        W32279  17.313   1.601   2.507 -0.1216  0.1202 -0.3291
16386W        W32280   4.837  14.221  10.908 -0.0336  0.6158  0.2433
16387W        W32281  14.212  13.549   4.638  0.0245 -0.3636 -0.0874
16388W        W32282  15.700   8.656   1.308 -0.1782 -0.0795 -0.0569
16389W        W32283  16.961   3.196   1.553  0.2918  0.1239  0.1641
16390W        W32284   8.162   4.030   4.577 -0.1485 -0.3144  0.0239
16391W        W32285   8.793  11.054   0.068 -0.2354 -0.2891  0.0941
16392W        W32286   1.506  15.097  11.166 -0.1928 -0.0766 -0.0640
16393W        W32287   2.986  11.964   0.083  0.2363  0.2009  0.3233
16394W        W32288   8.764  15.728   1.533  0.0309  0.0605  0.3192
16395W        W32289  15.906  10.303  14.399 -0.1785 -0.0857 -0.0218
16396W        W32290  14.436   3.855   0.878  0.0501 -0.1553 -0.1547
16397W        W32291  12.958   1.767   4.122 -0.1143  0.0500  0.1362
16398W        W32292   4.989  15.874   3.676 -0.1798 -0.1537  0.0430
16399W        W32293   9.285   1.289   4.690  0.0445 -0.1690  0.3980
16400W        W32294  11.191   6.944   3.117 -0.1021 -0.1609 -0.2360
16401W        W32295   2.275   7.583  10.695  0.0844  0.1981  0.3334
16402W        W32296   8.136  10.546  13.456 -0.0009  0.2067  0.2825
16403W        W32297  17.549  16.920   1.333  0.2543 -0.2848 -0.0367
16404W        W32298   2.111  14.945  13.421 -0.3977  0.2703 -0.1892
16405W        W32299  18.059  15.872  14.299 -0.4473  0.1955 -0.1015
16406W        W32300  15.387  15.801   3.884  0.1858  0.3320 -0.1084
16407W        W32301  16.914  15.621   1.787  0.2658  0.2061  0.1998
16408W        W32302   7.523   9.948   3.231  0.2841 -0.1378 -0.1015
16409W        W32303  17.358   6.945  12.326 -0.0321 -0.2253  0.1933
16410W        W32304   3.330   8.198  13.802 -0.0164 -0.0126  0.2112
16411W        W32305   5.252  14.622   4.284 -0.2072  0.3123 -0.3478
16412W        W32306   7.749   2.060   4.419  0.0225  0.3935  0.0964
16413W        W32307   7.719  16.652   1.608 -0.2467 -0.2835 -0.1414
16414W        W32308  14.729  11.783   6.016  0.0939 -0.0784 -0.2296
16415W        W32309   6.194   8.439  13.376  0.1306  0.0722 -0.0539
16416W        W32310   9.142  16.944   3.328 -0.1200 -0.1699 -0.5646
16417W        W32311   5.400   2.556   0.323  0.0930  0.5067  0.0103
16418W        W32312   7.046   6.055  11.129  0.2592  0.2065  0.1748
16419W        W32313   9.005  12.989  14.335  0.0190  0.0100 -0.1629
16420W        W32314  15.255   1.224  14.356 -0.1712  0.4173 -0.0791
16421W        W32315  10.409  10.375   2.037 -0.0081 -0.0564  0.0023
16422W        W32316  11.962  12.987   1.463  0.0449  0.1854 -0.1829
16423W        W32317  11.457  17.429   4.260 -0.0379  0.3767  0.1216
16424W        W32318  14.554   6.723  13.471  0.2326  0.3270 -0.1484
16425W        W32319   6.230   8.977   3.746  0.0840 -0.1371 -0.0094
16426W        W32320  11.883   6.143   3.847 -0.2469  0.1453 -0.0730
16427W        W32321  13.902   1.041  15.491 -0.0859  0.1225  0.1991
16428W        W32322   3.740  16.799  10.179 -0.0723  0.0655  0.1431
16429W        W32323   7.677   7.685   2.506 -0.0289  0.1673  0.1705
16430W        W32324  12.767   1.466   3.035  0.1592 -0.1143 -0.2017
16431W        W32325  11.788   9.832   2.535 -0.0936 -0.1104 -0.1574
16432W        W32326  11.078  12.772   3.543  0.0778  0.0524 -0.0190
16433W        W32327  10.452   5.219   3.393 -0.4880  0.0586  0.0467
16434W        W32328   6.267  14.597  12.571  0.1635  0.4053  0.0696
16435W        W32329   4.543  10.876  15.147  0.0556 -0.2600  0.0680
16436W        W32330   2.574   4.313  11.546  0.1299 -0.0366 -0.5343
16437W        W32331   5.898   1.847   3.438  0.0965  0.0620  0.2789
16438W        W32332   5.068  11.713  12.758  0.2498  0.0747  0.0615
16439W        W32333   2.802  12.428   2.582 -0.0065 -0.0972 -0.1457
16440W        W32334   1.710   0.181  13.754  0.1110 -0.2394  0.0328
16441W        W32335   3.753  15.387  14.267 -0.1962 -0.1311  0.0374
16442W        W32336  13.938  10.726   1.105 -0.1018  0.0531  0.0952
16443W        W32337  16.048  16.306  12.046  0.2420  0.0413  0.1608
16444W        W32338   2.519  11.956   3.963 -0.2362 -0.1639  0.1564
16445W        W32339  18.786  13.924  10.956  0.4220 -0.3284 -0.0419
16446W        W32340  12.850   8.515   4.049  0.3749 -0.0008 -0.0085
16447W        W32341   9.934  14.761   1.441  0.0283  0.1789 -0.0027
16448W        W32342   5.728   9.542   4.702 -0.3319 -0.1454 -0.5214
16449W        W32343  17.514  18.274   0.497 -0.1924 -0.3257 -0.0198
16450W        W32344   8.914   0.781   2.403 -0.1125  0.2465 -0.2446
16451W        W32345   5.402   5.042   4.087  0.3447  0.2650 -0.2010
16452W        W32346   6.869  11.716  11.585 -0.2354  0.1042 -0.1738
16453W        W32347   6.823  18.209   2.390 -0.0012  0.1865 -0.0705
16454W        W32348  16.589  13.934  13.117 -0.2426 -0.0317 -0.2147
16455W        W32349   3.460   0.178   4.489  0.0394 -0.1469 -0.1589
16456W        W32350  12.102   6.596   0.820 -0.1430 -0.1871 -0.1254
16457W        W32351   7.740   8.275  13.019 -0.4494  0.1341  0.1590
16458W        W32352  16.163   8.396   2.893  0.1765 -0.1161  0.0242
16459W        W32353   5.185  10.748  10.676 -0.1264  0.0508 -0.0894
16460W        W32354  10.921   7.872  14.722  0.2865 -0.0240 -0.0808
16461W        W32355  15.645  13.809  10.767 -0.0883 -0.1398  0.3123
16462W        W32356  16.048  16.933   2.212  0.3844 -0.2289  0.0743
16463W        W32357  18.481   0.538   1.544 -0.0568 -0.0167  0.1868
16464W        W32358  12.887   6.965   3.718  0.0646  0.1138  0.4023
16465W        W32359   4.791   3.590   4.789  0.1993  0.0009 -0.1657
16466W        W32360   5.756   7.474  13.685 -0.1910  0.0509 -0.4396
16467W        W32361   2.597   8.670  10.582  0.0296 -0.1247 -0.0383
16468W        W32362   9.236  10.968   1.667 -0.1215 -0.1231 -0.0501
16469W        W32363  15.671  14.472   4.389 -0.0711 -0.0325  0.1439
16470W        W32364   6.789  16.089   4.185 -0.0631 -0.0156  0.1710
16471W        W32365   0.816  13.273   9.942 -0.0417 -0.1323  0.3582
16472W        W32366  14.816   2.542   0.767 -0.1448  0.1189  0.0087
16473W        W32367   2.656   6.139  14.289  0.0635 -0.1097 -0.0207
16474W        W32368   6.717  16.613  12.483 -0.0041 -0.0417 -0.2896
16475W        W32369   1.787   1.874   4.056  0.0355 -0.4541  0.1617
16476W        W32370  18.203   0.874   0.253  0.2472 -0.1921  0.1207
16477W        W32371   3.381   9.365  13.176 -0.3427  0.2449  0.2031
16478W        W32372   4.828   9.484  13.763 -0.0811 -0.2111 -0.1257
16479W        W32373   4.874  11.620   2.305  0.1935  0.2460 -0.0856
16480W        W32374  12.290  18.285   1.281  0.1911 -0.1915  0.1756
16481W        W32375  17.654  13.143  12.835  0.1809 -0.1511  0.0715
16482W        W32376  10.525  13.129  10.318  0.0819  0.0905  0.0413
16483W        W32377   5.876  17.742   3.401 -0.2367 -0.0414 -0.0795
16484W        W32378   6.902  11.803  12.313  0.0647  0.3686 -0.1179
16485W        W32379   6.494   6.981   0.570 -0.4442 -0.0206  0.1749
16486W        W32380   6.152  15.054  12.096 -0.2194  0.2168  0.3393
16487W        W32381  18.334   9.569  11.946  0.1803 -0.1259 -0.2429
16488W        W32382  13.082   9.651  10.686  0.0531  0.0680 -0.3426
16489W        W32383  16.182   8.457  15.029 -0.1045  0.0183  0.2596
16490W        W32384   1.940   1.579  12.186 -0.0239 -0.2004 -0.1753
16491W        W32385   3.820  18.008  10.534  0.2257  0.2095 -0.0470
16492W        W32386   8.098   4.647   1.748  0.2572 -0.1323  0.3298
16493W        W32387   1.546  17.276   0.787 -0.1428  0.0459 -0.0708
16494W        W32388   8.321  18.563   5.739  0.1372 -0.2042 -0.2137
16495W        W32389   5.811   8.213  13.159  0.0073  0.1024  0.0183
16496W        W32390  12.910  17.794   1.275 -0.2912  0.0591  0.1777
16497W        W32391   9.515   7.968  14.353  0.0764  0.0491 -0.2056
16498W        W32392   6.179   5.577  12.826  0.0755 -0.0649  0.0980
16499W        W32393  10.722  16.857  11.277  0.0459 -0.1394  0.2560
16500W        W32394   1.409  17.411   3.269  0.3926  0.2625  0.4236
16501W        W32395  18.450  15.084   0.024  0.0973 -0.0539 -0.1109
16502W        W32396   0.708  18.117   1.697 -0.0776 -0.1191  0.2699
16503W        W32397   2.917  15.812  14.325  0.2063  0.2151  0.0473
16504W        W32398   6.836  16.742   5.276  0.1409  0.1119  0.1850
16505W        W32399   2.002   9.252   4.436  0.0193  0.0669  0.2544
16506W        W32400   3.161  18.776  14.853 -0.2178 -0.0285  0.1156
16507W        W32401  14.815  12.528   0.375 -0.4288  0.1890  0.1415
16508W        W32402  17.647   0.797   4.939  0.0976  0.0879 -0.4667
16509W        W32403   4.159   6.130  13.186  0.0850  0.1158 -0.2854
16510W        W32404   4.068   6.369   1.019 -0.0147  0.1663  0.2471
16511W        W32405  10.113   3.410   0.663  0.2991  0.0642 -0.2588
16512W        W32406  16.214   5.654   0.067 -0.2368 -0.1200  0.1836
16513W        W32407   6.007  12.425   0.196 -0.1036 -0.0331  0.0966
16514W        W32408   1.353  14.431  15.322 -0.0091 -0.2344  0.0749
16515W        W32409  12.187   6.136   1.772  0.0737 -0.4411  0.2000
16516W        W32410  11.853   2.872  12.017 -0.2055  0.0488  0.0196
16517W        W32411  18.483  15.108  12.236  0.0226  0.1768 -0.0016
16518W        W32412   1.036   6.961   2.398 -0.0905 -0.3036  0.5153
16519W        W32413  15.327  17.066  13.740 -0.1014  0.1144  0.1373
16520W        W32414   3.832   2.285   1.874 -0.0659  0.0704  0.0588
16521W        W32415   6.443  18.309   4.435  0.0722 -0.0962 -0.0892
16522W        W32416   1.132  12.516  15.118  0.0788 -0.3032  0.0919
16523W        W32417   2.073  16.779   5.454 -0.1524 -0.2870 -0.4626
16524W        W32418   7.083   4.506  12.664 -0.0457 -0.1556 -0.0469
16525W        W32419  15.680   6.675   2.041  0.1394  0.0227  0.0536
16526W        W32420  14.144   0.392  11.592 -0.0094 -0.2771 -0.1397
16527W        W32421   4.167   5.825   4.387  0.0792  0.0126 -0.4291
16528W        W32422  18.872  11.299   0.959  0.4227 -0.3601 -0.0446
16529W        W32423   2.509  15.923  11.823  0.1956 -0.0775  0.1778
16530W        W32424  13.395  11.890  15.135  0.0384 -0.1146  0.0937
16531W        W32425  16.409  17.572  13.556 -0.1369 -0.1426 -0.1966
16532W        W32426   1.243   4.201  14.596 -0.0276 -0.0360  0.0018
16533W        W32427  17.702   8.308   2.261  0.1929 -0.0180 -0.0001
16534W        W32428  18.226  15.953   9.959 -0.2328  0.3453  0.0902
16535W        W32429   5.842   4.152  11.763 -0.0625 -0.3058 -0.0165
16536W        W32430   9.899  15.898  11.814  0.2192 -0.1811  0.1083
16537W        W32431  13.689   9.792  12.735  0.1785 -0.2785 -0.0288
16538W        W32432  15.994   0.626   2.283 -0.3346 -0.1280  0.1608
16539W        W32433   3.075   2.340  15.055  0.0959  0.2026  0.1960
16540W        W32434  17.521  13.205   2.864  0.1013 -0.1655 -0.2086
16541W        W32435   2.319  13.716   5.380 -0.1703 -0.1328  0.3047
16542W        W32436  16.497  17.620  11.336  0.0349 -0.0762 -0.1353
16543W        W32437  14.135   0.695   1.516  0.1148  0.2761  0.2001
16544W        W32438  14.809   9.367  10.617  0.1700  0.1747 -0.2426
16545W        W32439   9.552  18.139   3.048 -0.0799 -0.0009 -0.2584
16546W        W32440   8.439  17.389   0.445  0.5496 -0.1076  0.2340
16547W        W32441   0.537  15.678  12.228  0.0225 -0.2359  0.0358
16548W        W32442   6.293   9.924  11.859  0.3569 -0.0119  0.2478
16549W        W32443   0.650   5.320   0.994 -0.1264 -0.1609  0.1596
16550W        W32444   6.579  10.304  11.058  0.1017 -0.1448  0.1281
16551W        W32445   1.076  13.400  12.662  0.0573  0.2624 -0.1259
16552W        W32446  18.688  15.587  13.186 -0.1953  0.0930 -0.4269
16553W        W32447   4.999  12.337  11.404  0.0970 -0.1912 -0.0012
16554W        W32448   1.733   0.706   0.558 -0.0319 -0.0240  0.1710
16555W        W32449   3.230  10.431  10.586 -0.0349 -0.0972 -0.2996
16556W        W32450   6.829  13.258   5.295 -0.2549  0.0061 -0.0396
16557W        W32451   1.700  16.147   4.242  0.0345 -0.0729 -0.4239
16558W        W32452  16.141  14.016  11.761  0.1866  0.0238  0.0782
16559W        W32453   0.042   6.845   2.866  0.0732 -0.3594  0.0198
16560W        W32454   2.248   5.306  14.414  0.4503  0.3920  0.2244
16561W        W32455   0.466  11.382  11.139 -0.0490  0.1266 -0.0768
16562W        W32456  10.502  13.511  15.024  0.2750 -0.0982 -0.1117
16563W        W32457   2.716  17.966  11.570  0.0005  0.1620 -0.1060
16564W        W32458  13.984   4.444  12.872  0.0080 -0.0381  0.0355
16565W        W32459   8.523   0.933   1.703 -0.1323  0.3780 -0.1415
16566W        W32460  13.931  17.990   4.385  0.2159  0.0088 -0.3439
16567W        W32461  11.587  17.454   3.781 -0.1712  0.0015 -0.0539
16568W        W32462  15.078   5.657  12.475  0.0081  0.0167 -0.2527
16569W        W32463   0.557   3.490   3.293  0.1164  0.3946  0.2191
16570W        W32464   4.661  12.926  14.451  0.3759  0.0859  0.2753
16571W        W32465   5.208   4.302   9.568  0.0845  0.2062  0.3574
16572W        W32466  10.172  11.974  11.608 -0.1175 -0.0773 -0.0988
16573W        W32467   9.112   6.214  10.364 -0.0028 -0.2418  0.0059
16574W        W32468   8.191  14.052  14.021  0.0067  0.0487  0.1144
16575W        W32469   4.588   5.214   0.398 -0.3157  0.1409 -0.0084
16576W        W32470  10.685   6.457  14.712 -0.0916 -0.1070 -0.0863
16577W        W32471  14.793  11.126   4.282  0.1432  0.1597  0.1811
16578W        W32472   0.586   1.392  10.600  0.2555 -0.0783  0.0224
16579W        W32473   2.757   6.238  11.905  0.3683  0.1427  0.2188
16580W        W32474  18.160   2.487  11.210  0.3236 -0.0350 -0.3195
16581W        W32475  11.714  12.600   4.296 -0.0929  0.1324  0.0263
16582W        W32476  11.375   7.495  12.178  0.4095 -0.1551  0.3451
16583W        W32477   1.936   4.186   2.346 -0.2273  0.1066 -0.0095
16584W        W32478  13.934   6.822   2.844  0.1510 -0.1736 -0.0452
16585W        W32479   8.182  16.068  14.865 -0.1560 -0.0865  0.0686
16586W        W32480   1.817   1.111   1.521  0.0217 -0.0331 -0.0179
16587W        W32481  13.166  10.894   5.262  0.0221  0.0264 -0.0868
16588W        W32482  18.743   2.094   3.822  0.1462  0.1324 -0.0030
16589W        W32483   1.126   1.758  12.182  0.1358 -0.2098 -0.2245
16590W        W32484  15.531  17.539  14.081 -0.0733  0.2058 -0.3943
16591W        W32485   1.479   1.027   0.188 -0.0610 -0.2263 -0.1768
16592W        W32486   0.248  15.176  10.960 -0.0365  0.0193  0.0168
16593W        W32487  15.661  15.659  14.398 -0.4376 -0.1265  0.0815
16594W        W32488  17.251   6.267   3.597 -0.0584  0.0955 -0.0404
16595W        W32489  18.215   3.996   3.592 -0.1320  0.0347 -0.3835
16596W        W32490  12.580  14.814   2.600  0.2834  0.0396  0.0439
16597W        W32491   5.534   0.284  10.712 -0.1374 -0.2777  0.1052
16598W        W32492   3.071   0.048  11.913  0.0507  0.1960 -0.1737
16599W        W32493  12.634   3.387  13.325  0.0064  0.2096 -0.0782
16600W        W32494  18.575   0.608  10.694  0.0915  0.0988 -0.3078
16601W        W32495  14.386   4.559  13.165  0.2462 -0.0466 -0.1949
16602W        W32496  14.276   8.650  14.109 -0.2346  0.1881  0.2229
16603W        W32497  15.680   3.720  10.139  0.3475 -0.1613  0.1992
16604W        W32498   2.254   1.548  13.442  0.0355 -0.2632 -0.2739
16605W        W32499  11.050   9.103  11.435 -0.0269 -0.0796 -0.0549
16606W        W32500  17.045   9.179  14.964 -0.3704  0.3197  0.0286
16607W        W32501   1.989   1.637   0.430 -0.1029  0.2747  0.0010
16608W        W32502  12.882  15.462   1.984 -0.1022 -0.2278 -0.0737
16609W        W32503  17.503   2.699  14.577  0.2052  0.1439  0.2680
16610W        W32504   4.884  15.839   2.889 -0.0994  0.3230 -0.1029
16611W        W32505   4.269   0.243  13.369 -0.1005 -0.0110  0.1159
16612W        W32506  18.141   0.684  12.818 -0.0921 -0.3741  0.0701
16613W        W32507   8.983   4.036  11.140 -0.1360 -0.0585  0.0138
16614W        W32508  14.654  14.633  12.417  0.2005  0.3473  0.2514
16615W        W32509  10.527   6.718   2.060  0.0585  0.0616  0.1637
16616W        W32510   3.506   0.912  15.388 -0.3462  0.1368  0.3483
16617W        W32511  11.047   4.325  15.238  0.0345  0.0951  0.1349
16618W        W32512   5.008  12.103   2.748  0.1775 -0.3480  0.0195
16619W        W32513   6.892   3.939   2.865  0.1253  0.0514 -0.1076
16620W        W32514   7.990   0.742  12.045  0.2545 -0.0880  0.2949
16621W        W32515  11.183   2.326   5.581  0.3471 -0.1818  0.0372
16622W        W32516  13.924   0.013  11.302  0.0882  0.1849 -0.1012
16623W        W32517  14.009   5.178   3.940  0.3871 -0.1385  0.0446
16624W        W32518   9.657  10.706   1.384  0.0459 -0.2531  0.2977
16625W        W32519   9.083   4.096   4.902 -0.0706  0.1148 -0.0424
16626W        W32520   8.020   0.849   1.681 -0.1205 -0.2179 -0.2020
16627W        W32521   2.930   0.403  11.277 -0.0590 -0.0487 -0.2552
16628W        W32522  10.418   4.136   2.742 -0.0306  0.3920  0.0884
16629W        W32523  14.979   5.588  15.283 -0.0673  0.3412  0.1427
16630W        W32524  13.121   9.840   4.785 -0.2626  0.2984 -0.1144
16631W        W32525   1.093   1.035   5.393 -0.1629  0.0610  0.0256
16632W        W32526   2.600  14.771  12.968  0.0014  0.1614  0.2374
16633W        W32527   9.504   3.801  14.957  0.0085  0.1335 -0.1346
16634W        W32528  14.085  17.341  14.505  0.0284  0.2201 -0.0677
16635W        W32529  10.245  13.098   3.411 -0.2040  0.1652 -0.0658
16636W        W32530  11.375  11.357   2.240  0.0151  0.2383  0.1395
16637W        W32531  10.908   8.962  10.972 -0.0249  0.0675 -0.0327
16638W        W32532  16.205   3.460  12.693 -0.1106 -0.3999  0.0147
16639W        W32533   5.205   9.749   4.687 -0.2808 -0.0365 -0.0208
16640W        W32534   2.603   1.590   4.457  0.0848  0.2312  0.1272
16641W        W32535   4.218  10.217   0.667  0.1310  0.1901 -0.0535
16642W        W32536   8.294  11.352   0.202 -0.0050  0.0417  0.1417
16643W        W32537  15.917   9.527   9.995 -0.1758  0.0419 -0.0810
16644W        W32538   8.428  12.481   3.946 -0.0695  0.0398  0.2328
16645W        W32539   8.743   9.144  13.234  0.0712  0.2903 -0.3063
16646W        W32540   6.152  14.137  10.434  0.0113 -0.0049  0.0186
16647W        W32541  15.781  13.922  14.106 -0.0584  0.0248 -0.0245
16648W        W32542   7.400  12.462  11.747  0.0918  0.0880 -0.1153
16649W        W32543  14.168   4.608  14.255 -0.1152 -0.1059 -0.2061
16650W        W32544   8.632   1.357  14.763  0.1236 -0.0933  0.1343
16651W        W32545  10.858   0.312   2.618  0.5225 -0.0505  0.1083
16652W        W32546   5.007   2.411   4.637 -0.2274  0.0260  0.0937
16653W        W32547   1.537   3.246   4.362 -0.0573 -0.2589 -0.0778
16654W        W32548   6.332   5.975   0.070 -0.0393 -0.0958  0.0520
16655W        W32549   4.706   0.786   0.884  0.0663  0.2288  0.1858
16656W        W32550   9.785   6.822   0.921  0.0724  0.1099  0.4516
16657W        W32551  14.754  14.115  12.303 -0.1800  0.0628  0.0475
16658W        W32552   3.428  15.218   2.229 -0.1627 -0.2534  0.0846
16659W        W32553  11.398  10.890   4.104  0.2759  0.4043 -0.1952
16660W        W32554  10.823   4.868   9.877  0.0258  0.0098  0.0467
16661W        W32555   2.789   2.054   3.926  0.1148  0.2820 -0.2120
16662W        W32556   8.274  14.539  12.590  0.4791 -0.1245 -0.1665
16663W        W32557   4.753  13.878   1.933  0.1219  0.0995  0.1403
16664W        W32558  12.383  10.553  10.967 -0.3499 -0.2998 -0.3734
16665W        W32559   2.745  17.923  10.108  0.0431 -0.5198  0.0866
16666W        W32560   8.666   9.082   1.806  0.3539  0.0566 -0.4572
16667W        W32561   8.608  15.255  14.075  0.0552  0.3699 -0.2460
16668W        W32562   6.823   4.211  12.310 -0.3796  0.0386  0.0917
16669W        W32563   4.394  11.648  13.271  0.0530 -0.4655  0.1731
16670W        W32564  17.818   4.111   3.317  0.0087 -0.0981 -0.3390
16671W        W32565   1.677   7.392   0.828 -0.4114 -0.1378  0.1469
16672W        W32566   8.797  11.433   3.508  0.0826  0.2604 -0.0590
16673W        W32567   1.580   3.551  13.584 -0.1519 -0.2178 -0.1236
16674W        W32568  17.232   8.888  14.208  0.0376 -0.1964 -0.0463
16675W        W32569   5.983  12.911  12.738  0.0109  0.2326  0.1259
16676W        W32570   8.580  14.886  13.640 -0.1727  0.3062 -0.0338
16677W        W32571  15.082  11.101  11.477  0.0357  0.0847 -0.1534
16678W        W32572   0.364  14.895  11.381 -0.0542  0.3139 -0.4294
16679W        W32573   4.742  10.625  12.252  0.1971 -0.1512  0.0504
16680W        W32574  18.193  10.737   4.047 -0.1873  0.3385  0.0485
16681W        W32575  11.277   9.242   4.714  0.1389 -0.1301 -0.1677
16682W        W32576   4.443  15.212   1.347  0.0814 -0.0354 -0.1199
16683W        W32577   1.330   0.144   4.567 -0.1341 -0.0391  0.1976
16684W        W32578   2.276  14.235   0.931  0.1317  0.1955  0.1273
16685W        W32579   4.294   0.357   1.280 -0.0615 -0.2680 -0.1806
16686W        W32580  10.568   8.912  11.387 -0.2544 -0.1630 -0.0966
16687W        W32581   7.575  18.135  13.723 -0.2106  0.1080  0.0565
16688W        W32582  12.916   1.903  12.261  0.2724 -0.1555  0.0963
16689W        W32583   5.582  10.518  11.073 -0.4405 -0.0602  0.2266
16690W        W32584  12.365  16.569   3.750  0.2123 -0.2445 -0.2431
16691W        W32585   7.086   3.468  12.887  0.1590  0.3184  0.0521
16692W        W32586   9.469  16.712  13.005  0.0535 -0.2375  0.1162
16693W        W32587  10.128  16.441   3.146  0.1201  0.3685  0.1738
16694W        W32588  11.073  14.991  14.608 -0.0802  0.3249 -0.1154
16695W        W32589   5.105  12.833  14.843  0.0486  0.0956  0.2212
16696W        W32590   3.002  11.326   1.554 -0.0064 -0.0685  0.0624
16697W        W32591   4.134  14.671   0.154  0.1712 -0.1889  0.5356
16698W        W32592   5.085  15.236   0.618 -0.0767 -0.0467  0.1077
16699W        W32593  11.952  15.869  14.756 -0.1744 -0.0383 -0.1085
16700W        W32594  11.752  11.943   0.169 -0.2307 -0.1019 -0.0040
16701W        W32595   9.192  17.413  15.452  0.0056 -0.2664  0.0191
16702W        W32596   7.798  12.651  11.460  0.1494  0.0791  0.0554
16703W        W32597   8.010  15.057   9.714 -0.3216  0.3442 -0.3598
16704W        W32598   4.162   4.689   5.160  0.4124 -0.3120 -0.0553
16705W        W32599  11.361   0.635  14.508  0.3786  0.0717 -0.0500
16706W        W32600  12.700  17.096  14.162  0.2446  0.0813  0.2434
16707W        W32601  14.341   0.764   2.319  0.2794 -0.1277  0.2796
16708W        W32602   2.180  14.111   2.688  0.1535 -0.1423  0.1231
16709W        W32603   6.178   9.594   2.309  0.3556 -0.1360  0.1490
16710W        W32604  11.428   9.197  14.308  0.2904  0.0012 -0.2730
16711W        W32605   2.532  18.588  14.699  0.3293 -0.1333 -0.1382
16712W        W32606  13.698   3.174   0.301  0.2216 -0.0631 -0.3061
16713W        W32607   0.193  12.825  12.893 -0.1527  0.1003 -0.0704
16714W        W32608   4.807   8.348  14.658  0.0464 -0.2533 -0.2330
16715W        W32609  15.454   8.590   0.834 -0.2716  0.0479 -0.0306
16716W        W32610  11.175   4.148  13.704  0.4642 -0.0361  0.0855
16717W        W32611   9.978   8.672   4.877 -0.0170 -0.0841 -0.0791
16718W        W32612   3.877   9.102  11.318 -0.1048 -0.0732  0.2172
16719W        W32613   2.544  13.755   4.755 -0.2578  0.0680 -0.1945
16720W        W32614   4.501   0.757  13.953 -0.0784  0.0936 -0.0941
16721W        W32615   2.459   5.737  14.520  0.0781 -0.2472 -0.0806
16722W        W32616   4.224   2.540   4.787  0.0815 -0.0646  0.0897
16723W        W32617  18.195  13.278   2.418 -0.2353  0.1257  0.0259
16724W        W32618  18.578   9.195  11.630 -0.0302 -0.0540  0.2576
16725W        W32619  16.913  16.344  14.749  0.1430 -0.0595  0.2004
16726W        W32620  14.632   8.060  14.740 -0.2987  0.1185 -0.1275
16727W        W32621  16.661   8.406  14.151 -0.1020 -0.1138  0.0780
16728W        W32622  11.261   0.774   4.767  0.0891 -0.2746 -0.0503
16729W        W32623  14.839   9.949  12.587 -0.2704 -0.2011 -0.1184
16730W        W32624   0.794   6.484   1.458  0.1599  0.1474  0.4898
16731W        W32625   1.533   6.314  13.422 -0.1831  0.6770  0.1956
16732W        W32626  13.446   4.695   1.280  0.0751  0.1224 -0.1050
16733W        W32627  16.299   1.624   4.807 -0.1813  0.0598  0.0860
16734W        W32628   4.490  17.115   3.729 -0.0373  0.2334  0.0059
16735W        W32629   8.443   7.838  11.939  0.1994 -0.0053 -0.1027
16736W        W32630   6.079   1.607  13.238  0.2037 -0.0605  0.0892
16737W        W32631   0.253   7.749  11.977 -0.1024  0.1053 -0.1497
16738W        W32632   0.725  13.329   4.258 -0.4602  0.1889  0.2022
16739W        W32633  17.294   4.061   4.126  0.1058 -0.3122 -0.0308
16740W        W32634  18.563  12.710  15.359 -0.1703  0.1801 -0.3580
16741W        W32635  18.470   3.106   1.180  0.1589 -0.1254  0.3352
16742W        W32636   7.961   5.525   1.314 -0.1886  0.3269 -0.1520
16743W        W32637  12.513   2.179   0.840  0.0933  0.1046 -0.0612
16744W        W32638  15.395   8.756  10.920  0.2180 -0.1812 -0.3461
16745W        W32639  15.898   7.890   3.575 -0.2728  0.3031  0.1550
16746W        W32640  15.546  11.225   1.777  0.4337  0.0347  0.0877
16747W        W32641   1.664   3.415   3.424  0.2104 -0.2060 -0.3225
16748W        W32642   6.331   1.965   1.707 -0.0360 -0.1883  0.5614
16749W        W32643   3.936   0.734   3.909 -0.0390  0.2383 -0.1060
16750W        W32644  12.825   4.616  12.122  0.0059 -0.0848 -0.1462
16751W        W32645   0.426   0.931   3.959  0.0513  0.0847  0.1341
16752W        W32646   5.868   3.664   3.583 -0.1611  0.2273  0.1167
16753W        W32647   0.354  17.405   2.380  0.0829  0.4460  0.0801
16754W        W32648   1.072  12.776  14.243 -0.0246 -0.1998 -0.0978
16755W        W32649   1.815  18.565   4.829  0.0336 -0.3421 -0.0267
16756W        W32650   2.060   9.734  12.530  0.1982  0.1554  0.1183
16757W        W32651   9.698  13.453   0.615 -0.1191  0.4396 -0.0205
16758W        W32652   8.886  15.603   4.052 -0.2307  0.1008  0.0354
16759W        W32653   5.968  12.604  13.175  0.0171 -0.1790  0.0850
16760W        W32654  11.526   1.480   3.141  0.0502 -0.0098  0.2046
16761W        W32655   5.992  16.509   1.380  0.0042 -0.1675  0.1307
16762W        W32656   5.260  14.815   1.176  0.0509  0.2095  0.2690
16763W        W32657  16.372  14.294  11.226  0.0731 -0.2847 -0.2654
16764W        W32658   0.271  10.750  14.690 -0.1245  0.0503  0.0113
16765W        W32659   5.466   4.321   0.810 -0.0735  0.0091 -0.0823
16766W        W32660   1.336   1.408   2.910 -0.1267 -0.0490 -0.0477
16767W        W32661   9.972  13.067   0.591  0.1951  0.0343 -0.1707
16768W        W32662   7.204  17.451  10.824 -0.0077 -0.2938  0.1086
16769W        W32663  10.569   2.961   3.475  0.2010 -0.1671  0.2701
16770W        W32664   5.063  14.631   3.734  0.0103  0.2119 -0.0280
16771W        W32665  17.724   2.710   1.637 -0.1179  0.5393 -0.0865
16772W        W32666  17.073   4.596   3.510 -0.0732  0.1312 -0.0806
16773W        W32667  15.440   5.259   3.423 -0.0602 -0.2968  0.2438
16774W        W32668   3.697   2.248   3.512 -0.1904 -0.2811  0.1079
16775W        W32669  16.344  10.830   3.692 -0.3396  0.1383 -0.0507
16776W        W32670  14.596   5.609  14.000 -0.0048 -0.0833 -0.2026
16777W        W32671   2.981   2.943   4.451  0.0180 -0.1823 -0.1617
16778W        W32672   8.900   5.914   4.480 -0.1551 -0.0611  0.2195
16779W        W32673  14.486  14.836   0.010 -0.1281  0.0514 -0.2072
16780W        W32674   5.343   6.184   5.111 -0.0950  0.2214 -0.0317
16781W        W32675   1.084   4.345   3.912  0.2919  0.5403  0.1320
16782W        W32676  17.043   4.438   1.458  0.0863 -0.1716  0.0229
16783W        W32677  17.427  11.456  12.233 -0.0334 -0.0291 -0.0072
16784W        W32678  14.650  11.914   2.720 -0.1566 -0.1926 -0.3138
16785W        W32679   5.517  11.867  15.020 -0.0178  0.0073 -0.0218
16786W        W32680  14.771  16.118   2.985  0.2217 -0.1296 -0.2684
16787W        W32681   8.857  12.170  11.323 -0.1399  0.1277  0.3126
16788W        W32682   9.645   5.771   1.335  0.0012 -0.2353  0.1502
16789W        W32683  17.096   9.713  13.935 -0.0006  0.0473  0.0732
16790W        W32684   8.827   3.643   3.422  0.2721 -0.1802 -0.1254
16791W        W32685   4.828  16.619   1.684  0.0872 -0.0577 -0.1155
16792W        W32686   6.171   5.980   4.795 -0.1240 -0.1925  0.0381
16793W        W32687  10.879   5.663  14.136  0.2405  0.0499 -0.0752
16794W        W32688  16.803   2.105  11.049 -0.0815  0.1462  0.2553
16795W        W32689  12.716   1.606  14.860 -0.0072 -0.0242 -0.1473
16796W        W32690  15.163   7.770   4.450 -0.0402 -0.2629  0.0518
16797W        W32691  10.441   0.074  11.950  0.0977 -0.0075  0.1540
16798W        W32692   5.137   5.126  15.115  0.2075 -0.2434  0.0230
16799W        W32693  11.995   9.786   0.006 -0.1997 -0.2489 -0.1959
16800W        W32694   0.206  14.657   0.420 -0.0043  0.1991 -0.1497
16801W        W32695  15.051   2.992   2.101 -0.1887  0.0391 -0.1829
16802W        W32696   6.986  11.063   3.222 -0.1155  0.1061  0.2231
16803W        W32697   5.347  13.973   5.668  0.1377 -0.1570  0.4191
16804W        W32698  15.368  15.308   3.244 -0.0674 -0.3141  0.0592
16805W        W32699   8.987   0.873   4.515 -0.1457 -0.2754 -0.1591
16806W        W32700   2.980  16.899  10.477 -0.0260  0.3027  0.0586
16807W        W32701   8.970  17.138  14.991 -0.2869  0.2250 -0.1826
16808W        W32702  18.645   6.277  14.250  0.0867 -0.3161  0.1467
16809W        W32703  18.634   8.972   1.128 -0.0830  0.3311  0.1321
16810W        W32704  10.438   4.500  14.552  0.1352  0.0502  0.1156
16811W        W32705  10.649   0.502   3.865 -0.0914  0.0178  0.1765
16812W        W32706  13.464  13.679   3.018 -0.1441 -0.2737  0.2036
16813W        W32707  16.650  13.477  13.420  0.0791  0.2682  0.2489
16814W        W32708  10.461   3.447   4.943  0.0530 -0.0679 -0.3634
16815W        W32709  17.652   8.111  14.910  0.0892  0.3953  0.1155
16816W        W32710   3.576   7.564   4.529  0.0796  0.1853  0.0447
16817W        W32711   4.127   8.163  14.353 -0.1148 -0.0525 -0.0236
16818W        W32712  16.634   5.418  15.163 -0.0732  0.0685  0.3706
16819W        W32713  14.421  16.172   2.613  0.0317 -0.1571 -0.3536
16820W        W32714   9.062  17.355  12.457  0.0440 -0.1752  0.0197
16821W        W32715   1.512  10.196  15.088  0.0565  0.1011  0.0520
16822W        W32716  12.000   2.200  15.086 -0.1194  0.0574 -0.1167
16823W        W32717   3.369   7.184   2.213  0.4571 -0.0593 -0.0047
16824W        W32718  10.969   2.598   2.963 -0.0328 -0.0274 -0.2579
16825W        W32719  15.707   3.326   1.441 -0.0574 -0.4159  0.1363
16826W        W32720  12.194   3.305  14.069  0.1345  0.2283  0.1057
16827W        W32721  10.275   5.340  14.690 -0.2401  0.1446 -0.0305
16828W        W32722   4.163   5.687  12.734  0.2248  0.0806 -0.3660
16829W        W32723   6.352  12.606  11.432  0.0289 -0.3521  0.0924
16830W        W32724   9.317   2.806   1.210 -0.1284 -0.4146 -0.2758
16831W        W32725   3.414   0.650   2.584  0.1109  0.0028  0.1862
16832W        W32726   8.874   0.881   1.331  0.0367 -0.0357  0.3909
16833W        W32727   1.369  15.908   1.216  0.1649 -0.0311 -0.0885
16834W        W32728   2.173  15.952  13.360  0.0313  0.4324  0.1555
16835W        W32729   8.533  12.142   1.102  0.2122  0.0919  0.0582
16836W        W32730   3.311   8.792   4.007  0.1003 -0.1283 -0.2157
16837W        W32731  12.734   8.214   5.257  0.2304  0.2295  0.0302
16838W        W32732   3.086  16.877   3.083 -0.0451  0.0447  0.0526
16839W        W32733   3.616  13.643  15.428  0.1498  0.2664  0.0114
16840W        W32734  15.079   6.714  13.421  0.4273 -0.2230  0.0874
16841W        W32735  11.040  13.169   6.286 -0.0519 -0.0886 -0.1616
16842W        W32736   9.505  10.765   5.310  0.0485 -0.0039 -0.1270
16843W        W32737  12.108  15.076   1.359 -0.3348 -0.0510 -0.1113
16844W        W32738   7.116  14.897  12.490  0.0572 -0.0630 -0.1894
16845W        W32739  14.341  10.382   4.816 -0.1855  0.0787  0.1605
16846W        W32740   2.334  13.666   2.895 -0.1614  0.2579  0.0557
16847W        W32741   1.568  13.809   2.096  0.1000  0.1803 -0.1855
16848W        W32742  18.522  16.895   4.947  0.4327 -0.2043 -0.0529
16849W        W32743  17.835  12.925  10.073 -0.1147 -0.0008  0.1280
16850W        W32744   4.023  12.636  13.272 -0.0550  0.2157 -0.2636
16851W        W32745  18.749  13.880  14.087 -0.0991 -0.0926  0.0442
16852W        W32746  10.896   1.452  15.299 -0.0576 -0.0670  0.0917
16853W        W32747   0.558   6.185   3.646 -0.1561 -0.0392  0.0189
16854W        W32748  16.738   0.897  12.275 -0.1145  0.2375  0.0116
16855W        W32749   4.342  16.331   2.206  0.0508 -0.4256  0.1081
16856W        W32750  10.796   3.614  14.362  0.2015  0.4715  0.0872
16857W        W32751   0.950  12.527  11.061 -0.1956 -0.2934  0.0272
16858W        W32752  16.939   2.794  12.183  0.1637  0.2260  0.1738
16859W        W32753   1.408   9.945   3.452  0.2621  0.0277 -0.1464
16860W        W32754  16.819  18.625  11.850 -0.1542 -0.0080  0.0760
16861W        W32755   3.499  11.386   2.637  0.0129 -0.2455 -0.1574
16862W        W32756  11.410   2.875  13.209  0.3146  0.0307  0.0530
16863W        W32757  13.547  10.319   0.270 -0.0945  0.3702 -0.2398
16864W        W32758  15.050   0.496  12.093 -0.1773  0.0803  0.0356
16865W        W32759   9.994  12.279  13.720  0.0028  0.0796  0.0974
16866W        W32760  13.540  10.435   2.453  0.0557 -0.1394  0.2492
16867W        W32761  15.988  13.226   1.524 -0.0384 -0.1816 -0.1352
16868W        W32762  10.304  14.621   5.264 -0.1133 -0.1588 -0.0257
16869W        W32763  11.093   7.414   3.176  0.1269  0.0194 -0.0658
16870W        W32764   7.788  16.006   2.760  0.4979 -0.1638 -0.1513
16871W        W32765  16.918   4.201   9.429  0.1089 -0.1830  0.1965
16872W        W32766   0.685  14.300  10.840 -0.0151 -0.3706  0.1883
16873W        W32767  14.200   9.327  13.398 -0.0522  0.1071 -0.0203
16874W        W32768  16.188   7.877  12.353 -0.1621  0.2405 -0.1099
16875W        W32769  18.253   2.660  15.188 -0.0077  0.0424 -0.2043
16876W        W32770  10.700   5.991   2.775 -0.1572 -0.1579  0.1673
16877W        W32771  13.662  16.685   4.937  0.0683 -0.2408 -0.0668
16878W        W32772  13.564   9.432   2.787  0.1972  0.1047  0.1625
16879W        W32773  11.475   0.683  10.688 -0.0911 -0.1640  0.1049
16880W        W32774   4.659  12.392  13.236  0.1679  0.0774  0.0602
16881W        W32775  16.084   8.309  12.082 -0.3972  0.0127  0.0460
16882W        W32776   9.818   7.019  14.088  0.1716 -0.0706  0.2407
16883W        W32777   2.222   4.549  14.075  0.0946  0.0319 -0.3083
16884W        W32778   8.510   7.849  14.124 -0.1735  0.2060 -0.0622
16885W        W32779   1.863  15.758  12.432 -0.2322 -0.1547 -0.1446
16886W        W32780  17.842  15.741  12.520 -0.1076 -0.2238  0.1038
16887W        W32781  11.806  14.375   3.905  0.0156 -0.2400 -0.1332
16888W        W32782   3.129   7.831  15.300  0.2765  0.1351  0.3081
16889W        W32783  11.462   9.892   2.148  0.0921  0.3049  0.1696
16890W        W32784   4.845   4.690  13.796  0.0891 -0.1781 -0.2650
16891W        W32785   5.527  12.516   0.294  0.2900 -0.1429 -0.0208
16892W        W32786  12.083   8.929   3.549  0.0151 -0.2180 -0.0228
16893W        W32787   8.736  12.292   1.999  0.0433 -0.0793 -0.1364
16894W        W32788  13.413   0.302  13.009 -0.1371 -0.1371  0.3168
16895W        W32789  14.045   6.930  14.667 -0.0168  0.3543 -0.0546
16896W        W32790   5.752  18.378  14.232  0.2267 -0.1364 -0.2361
16897W        W32791   6.260  10.207  11.398  0.0158 -0.0077 -0.2784
16898W        W32792  12.006   8.236  15.108  0.0133 -0.0045 -0.3122
16899W        W32793   3.036  14.485  14.426  0.1227  0.1429 -0.1934
16900W        W32794  17.738  10.915   4.954 -0.0065 -0.0777 -0.1146
16901W        W32795   3.748   2.392   5.183  0.2723  0.1853 -0.0766
16902W        W32796   9.250   7.287   1.129  0.0008  0.1153 -0.2009
16903W        W32797  16.594   1.342  11.623 -0.0437 -0.0454  0.0420
16904W        W32798  12.992   7.983   0.724 -0.0473 -0.2912  0.0027
16905W        W32799  10.224  10.557  14.948 -0.1665 -0.0825  0.1347
16906W        W32800   9.522   8.353  15.393  0.0803  0.2023 -0.1210
16907W        W32801  13.863  10.723   3.386 -0.5622 -0.0314  0.0948
16908W        W32802  18.569   8.791  12.437 -0.2544 -0.1929  0.1964
16909W        W32803   5.230   7.203   0.301 -0.0293 -0.0565 -0.0275
16910W        W32804  16.006   4.094   4.649  0.3608  0.2298  0.0667
16911W        W32805  10.915   0.127   3.568 -0.0829  0.0347  0.0621
16912W        W32806  10.257   3.962   4.001  0.1867  0.0973 -0.0006
16913W        W32807  12.558   2.228  15.395 -0.1093  0.0584 -0.2157
16914W        W32808  12.617  16.320  13.401 -0.0509  0.1360  0.0917
16915W        W32809   8.997  10.342   0.837  0.1728 -0.2179  0.3157
16916W        W32810   0.039   3.281  13.003  0.2067 -0.0672 -0.1525
16917W        W32811  17.777   9.314   2.871  0.3989  0.0754  0.1337
16918W        W32812   5.135   1.301   3.101  0.0108 -0.1905  0.3701
16919W        W32813   0.658  17.975  12.013 -0.1170 -0.2681 -0.0336
16920W        W32814   0.621  10.785   2.869  0.0783  0.0941  0.1357
16921W        W32815   3.285   9.918  13.411  0.2036  0.2361 -0.0229
16922W        W32816   2.830  10.271  13.366  0.0082 -0.2049  0.0942
16923W        W32817  11.629  12.555  12.645  0.3086 -0.0845  0.0372
16924W        W32818   6.594  11.277   2.047  0.1591 -0.1496  0.2119
16925W        W32819  10.129   1.745   1.098 -0.3190  0.0346 -0.1230
16926W        W32820   3.868   9.773   2.171 -0.1215 -0.0997 -0.0971
16927W        W32821   0.599  11.641  15.012 -0.0082 -0.1682  0.2476
16928W        W32822   2.619  17.987  14.552 -0.1464  0.1923  0.1105
16929W        W32823   7.692  10.201   1.098  0.3659 -0.0567 -0.0224
16930W        W32824   3.683  11.968   2.774  0.0160  0.1450  0.0721
16931W        W32825   1.075   7.303  10.454  0.1591  0.0669  0.2449
16932W        W32826   9.548  17.214  11.129  0.0878  0.0249  0.2697
16933W        W32827  10.715  15.405   0.876 -0.0466 -0.0467  0.1669
16934W        W32828   0.430   1.924   4.579  0.1136 -0.1037 -0.2295
16935W        W32829  17.933  16.686   1.470  0.2901 -0.3102 -0.0859
16936W        W32830  18.677   0.899   1.932  0.2518  0.2077  0.0945
16937W        W32831   1.865  11.936   4.214  0.2492  0.1097  0.0467
16938W        W32832  18.246   4.862   0.939 -0.0386 -0.0551  0.0206
16939W        W32833  17.507  14.195   3.248  0.5225 -0.1514 -0.1896
16940W        W32834  18.345  11.266  13.004 -0.0934  0.2198  0.1605
16941W        W32835   1.511  15.487   0.323 -0.1646  0.1025 -0.1013
16942W        W32836  13.223   1.696  14.857  0.0288  0.0657 -0.1554
16943W        W32837  18.616   0.719   3.659 -0.0437 -0.0400 -0.2332
16944W        W32838   1.774  11.942  14.892 -0.0655 -0.3884 -0.1776
16945W        W32839  10.049  13.962   0.144 -0.0068 -0.1637 -0.2375
16946W        W32840  18.476   6.952  11.218 -0.1887  0.1542  0.0482
16947W        W32841  17.829  11.224  14.259  0.0881 -0.4259  0.2398
16948W        W32842   9.337  13.293   3.716 -0.2920  0.0416  0.0956
16949W        W32843   8.961   7.175  11.397  0.4626  0.2122  0.0466
16950W        W32844  12.602   3.365   2.336 -0.1598 -0.1397 -0.2531
16951W        W32845  15.274   0.535  13.745 -0.2886 -0.2002  0.0903
16952W        W32846  16.830   2.207  11.555 -0.0984 -0.0260  0.0403
16953W        W32847  14.826  11.708   3.182 -0.0379 -0.1174  0.0349
16954W        W32848   4.516  13.241   3.671 -0.0477  0.0134  0.0572
16955W        W32849  10.140   2.029  13.445  0.0118 -0.2025  0.0356
16956W        W32850  15.975  11.430   2.843  0.1811 -0.4551  0.2343
16957W        W32851   2.304   3.394  10.514 -0.1772  0.0168 -0.1066
16958W        W32852  12.705   0.509   1.786 -0.1481 -0.1366 -0.1844
16959W        W32853   4.461  16.578   0.774 -0.1161  0.1641  0.1684
16960W        W32854   8.357   4.252  10.928  0.5148 -0.5166 -0.0431
16961W        W32855  18.538   9.783  12.471  0.1244  0.1175  0.3153
16962W        W32856   1.327   1.768  10.815 -0.0238  0.1962  0.0548
16963W        W32857  13.792   3.590  10.689  0.0610 -0.1160 -0.3376
16964W        W32858   7.869  15.907   2.236 -0.1768  0.0510 -0.3718
16965W        W32859   2.663  14.891   3.001 -0.1707 -0.0169 -0.1343
16966W        W32860   0.995  16.786  11.764  0.0988 -0.0368  0.1572
16967W        W32861  17.390   7.163  12.977 -0.1032 -0.1422 -0.1543
16968W        W32862  17.520  14.016  14.541  0.0762  0.2193  0.2834
16969W        W32863   5.759   3.403  10.825  0.1581  0.2274 -0.0877
16970W        W32864  14.756   1.383   4.666 -0.0697  0.3992 -0.1002
16971W        W32865   3.247   4.612   2.848 -0.0917  0.2832 -0.0648
16972W        W32866  14.274  17.606   1.796 -0.0595  0.3108  0.3035
16973W        W32867   8.432   9.712  13.840 -0.0820 -0.0843 -0.0923
16974W        W32868   4.836   7.415  10.552 -0.1818 -0.1305 -0.1731
16975W        W32869   0.459  15.497   3.264 -0.1547 -0.0338 -0.0345
16976W        W32870  16.190  16.934  12.706  0.1271 -0.1070 -0.0541
16977W        W32871   3.299  11.067   4.673  0.3696 -0.4642 -0.0632
16978W        W32872   6.229  18.866  14.180 -0.0112 -0.3514  0.3801
16979W        W32873   6.598  14.528  13.463 -0.0951 -0.1613  0.0305
16980W        W32874  15.624  16.283  11.261 -0.1005 -0.0157 -0.4587
16981W        W32875   6.717   0.965   4.652 -0.0313 -0.0346 -0.1632
16982W        W32876  15.096  10.881  11.020 -0.1877  0.1916  0.0570
16983W        W32877  13.380   7.416  15.009  0.2401  0.1766  0.0259
16984W        W32878   6.250  12.375  10.968 -0.3103  0.0975 -0.3330
16985W        W32879   2.579   1.622   3.546  0.1043  0.0649 -0.0407
16986W        W32880  12.917  11.865   2.770  0.0324  0.0303 -0.0826
16987W        W32881   2.005   0.105  12.209 -0.0930  0.0272 -0.0253
16988W        W32882   3.922  14.556   1.108  0.3470 -0.0072  0.0391
16989W        W32883  13.193  12.585  10.927 -0.0359  0.2321  0.1791
16990W        W32884  14.205   0.027   0.841 -0.0339 -0.0572  0.1592
16991W        W32885   5.353   8.509   9.921 -0.3994 -0.0443  0.3438
16992W        W32886  18.815  10.734   5.697 -0.0503 -0.0112 -0.1393
16993W        W32887  17.587   9.625  13.861 -0.2834 -0.0130  0.2419
16994W        W32888  12.727   3.858  13.420 -0.1431 -0.4695 -0.3155
16995W        W32889   6.171  10.502  15.317 -0.1361  0.2724 -0.0664
16996W        W32890   0.033   4.960   4.267  0.0143 -0.2904 -0.1002
16997W        W32891  15.968  18.587   4.650  0.0134 -0.2497 -0.3585
16998W        W32892   5.006   7.210   4.248 -0.0309 -0.0970 -0.1515
16999W        W32893  10.133   0.872   0.109  0.1840  0.0772  0.2689
17000W        W32894  13.164  10.036  14.470 -0.0983 -0.3361 -0.1306
17001W        W32895  14.009   5.655  13.803 -0.2621  0.0395 -0.2669
17002W        W32896  18.516  17.925  14.984  0.3108  0.1651  0.1208
17003W        W32897   1.411  17.251   4.447 -0.3610  0.1863  0.1165
17004W        W32898  11.898  12.414   3.061 -0.0327  0.3707 -0.0826
17005W        W32899  17.087   0.143  10.859  0.0676  0.1405 -0.2431
17006W        W32900   8.432   6.370  13.647  0.0531  0.2490  0.1308
17007W        W32901   3.440   0.787   3.806  0.0888 -0.2303  0.0201
17008W        W32902  16.635   2.334   0.604  0.1728 -0.3469 -0.4607
17009W        W32903   2.136  11.395   3.152  0.1799  0.0443 -0.2775
17010W        W32904  18.800   5.328  14.494  0.0755  0.2822 -0.1036
17011W        W32905  11.189  16.511   2.296  0.1422 -0.1441  0.3910
17012W        W32906  12.204   7.851  15.340 -0.1401  0.2688  0.0371
17013W        W32907   9.012   3.330   0.427 -0.1978  0.1070  0.1720
17014W        W32908   2.202   1.105  13.646  0.0171  0.2907  0.1743
17015W        W32909  13.143   7.325   5.638  0.0197 -0.0366 -0.0901
17016W        W32910  10.455  10.690  11.943  0.2248 -0.0082 -0.1218
17017W        W32911   1.561   9.316   2.667  0.3185  0.1889 -0.3668
17018W        W32912  16.535   3.746  15.049  0.0097  0.0903  0.2059
17019W        W32913   2.652   0.363   3.226 -0.0977 -0.1848  0.2065
17020W        W32914  10.305  16.916   5.637 -0.1674 -0.2106  0.0992
17021W        W32915   1.656   6.894   1.699 -0.0345  0.1688  0.0025
17022W        W32916   7.282  13.151   0.789  0.0022 -0.2217 -0.0563
17023W        W32917   6.036  10.926  14.948 -0.4252 -0.1115  0.1504
17024W        W32918  17.086   5.404  14.936 -0.0121 -0.3737 -0.0315
17025W        W32919  14.654  15.676  13.512 -0.1844  0.0583 -0.0367
17026W        W32920  18.625  13.580   1.528  0.2738  0.0981 -0.2275
17027W        W32921   4.465   3.193   0.126  0.0003 -0.1460  0.1644
17028W        W32922  13.037  17.176   1.975 -0.0653  0.1453 -0.3672
17029W        W32923  18.562   8.841  10.861 -0.1401 -0.1580  0.1231
17030W        W32924  14.730  11.694  12.907  0.1113  0.1863  0.2958
17031W        W32925  11.180  13.187   3.913 -0.0461 -0.1376 -0.2516
17032W        W32926  10.751   7.675   2.011  0.0925  0.2831 -0.1530
17033W        W32927  12.276  13.852   5.314  0.0246 -0.2317 -0.1810
17034W        W32928   7.802   5.932  15.241  0.1212  0.0086 -0.1416
17035W        W32929   3.133  11.705  14.761  0.0695  0.2062  0.0587
17036W        W32930  14.442   8.897   1.011 -0.1551 -0.1203 -0.0146
17037W        W32931   1.605   1.497   0.165  0.1840  0.1885 -0.0194
17038W        W32932  14.681  11.934   0.299  0.2579 -0.2832  0.1781
17039W        W32933  15.183  16.432   2.432  0.0234 -0.1047 -0.0569
17040W        W32934   3.579   0.912   2.178 -0.1198  0.1552 -0.2105
17041W        W32935  18.716   8.774   2.074  0.1869  0.0001  0.0731
17042W        W32936  13.726   3.968  14.657  0.0439 -0.3656  0.1975
17043W        W32937  10.839  13.201  11.748  0.0862  0.1965 -0.0112
17044W        W32938  17.952   9.859  12.813 -0.1416 -0.3399 -0.0841
17045W        W32939  14.311   9.281   0.465  0.2080 -0.2499  0.1194
17046W        W32940   4.739  13.287  12.180 -0.1939  0.1266 -0.0477
17047W        W32941   5.334  15.865   2.609 -0.2816 -0.3782 -0.2868
17048W        W32942   4.156   6.178  12.675  0.1171 -0.1326  0.0337
17049W        W32943  11.666  13.309   4.883  0.0603 -0.3121  0.1444
17050W        W32944   7.851   0.629   0.883  0.2308  0.0495  0.0643
17051W        W32945   3.101  14.531   0.454  0.3304 -0.0526  0.2470
17052W        W32946   3.166   1.199   0.423 -0.2669  0.1196  0.0620
17053W        W32947  16.453  12.152  11.896  0.0803  0.1637  0.0442
17054W        W32948  13.539   7.527  12.676  0.2660  0.5112  0.0894
17055W        W32949   1.185   4.482   3.429  0.0885  0.1149  0.2880
17056W        W32950  16.934  10.250  13.193 -0.0135 -0.1456  0.3444
17057W        W32951   4.280   5.341   4.513 -0.2942  0.0282  0.0316
17058W        W32952  12.999  16.116   1.295 -0.1335 -0.1840 -0.1036
17059W        W32953   7.132  11.219   3.705 -0.3796  0.0436  0.2698
17060W        W32954   3.733  17.825   0.718  0.1084  0.1199  0.1680
17061W        W32955   0.180  16.658   5.789 -0.0568  0.1212 -0.0140
17062W        W32956  11.028   2.993  11.879  0.4559  0.0413 -0.3185
17063W        W32957  17.932  12.612   5.576  0.0683  0.1538  0.3307
17064W        W32958   4.527   5.945  12.417  0.2375 -0.0929 -0.0905
17065W        W32959   6.653  10.914  11.898  0.0934  0.0109 -0.1192
17066W        W32960   1.845   6.635  12.189 -0.0225  0.0672 -0.0032
17067W        W32961   0.111  14.658  14.869  0.4287  0.3490  0.2169
17068W        W32962  15.223  14.378   5.216  0.3629 -0.2385 -0.2837
17069W        W32963   0.762   9.797   5.154  0.0332 -0.2317 -0.3535
17070W        W32964  18.520   4.071   1.258 -0.0669  0.1414 -0.1801
17071W        W32965   5.605  14.517   1.382 -0.1312  0.0375 -0.0792
17072W        W32966  10.158   0.342   3.862 -0.1806  0.0023 -0.0340
17073W        W32967   3.194   2.334  10.880  0.1396  0.0017 -0.0373
17074W        W32968  16.185  15.997   3.454  0.2518  0.0860  0.2129
17075W        W32969   5.853   7.736   0.058  0.0601  0.1829  0.2688
17076W        W32970   2.650   6.130   4.743  0.0170  0.1503 -0.0740
17077W        W32971  11.550  17.669   1.056  0.1206  0.1568 -0.0266
17078W        W32972  14.658   0.974   2.918  0.0632 -0.1329  0.0550
17079W        W32973   2.264  17.087  14.352  0.1500  0.2185  0.2649
17080W        W32974  16.167   5.465  14.399 -0.0184 -0.0359 -0.2144
17081W        W32975  14.538   8.888  10.564  0.2212  0.1536  0.1567
17082W        W32976  11.513  16.047  12.914 -0.2480 -0.0600 -0.0298
17083W        W32977  11.694   4.893  11.965 -0.0392  0.0415 -0.0262
17084W        W32978  11.456  16.572   0.370  0.0264  0.0832  0.0343
17085W        W32979  10.393   0.513  13.698 -0.0134  0.1235 -0.3311
17086W        W32980   4.620  12.297  11.989  0.1360  0.3791  0.1266
17087W        W32981   4.186  12.864   2.423  0.1763 -0.1514 -0.0379
17088W        W32982   0.054   8.216  10.432 -0.2055  0.0748  0.0558
17089W        W32983   0.308   4.027   5.533 -0.2382 -0.3965  0.0862
17090W        W32984   3.334  16.369   3.656  0.4855  0.1247 -0.0141
17091W        W32985  11.164   0.941  11.961  0.0270  0.0466  0.0377
17092W        W32986   6.644  11.418  12.015  0.1066 -0.0032  0.0554
17093W        W32987   5.159   6.841  13.564 -0.2167 -0.1841 -0.2096
17094W        W32988   7.209   8.016  11.925  0.0598 -0.0388  0.0858
17095W        W32989  13.754  17.036  14.831 -0.0889 -0.1704 -0.1320
17096W        W32990   2.053  16.689  15.107 -0.3390 -0.0807  0.0030
17097W        W32991   1.067   9.771   0.816  0.0573  0.0460  0.3808
17098W        W32992   2.403  12.264   5.401 -0.1272  0.1530 -0.0766
17099W        W32993  14.485  11.547  11.162  0.1150  0.1690  0.4468
17100W        W32994  12.404  17.684   4.267 -0.0512  0.1704  0.1839
17101W        W32995  15.286  13.533   5.161 -0.1057 -0.0895 -0.1535
17102W        W32996  12.909  13.295   0.782  0.3175 -0.0529  0.1443
17103W        W32997   5.855   7.637   9.867  0.3532 -0.0046 -0.0458
17104W        W32998   4.293   8.357  12.447  0.3792 -0.1382  0.1059
17105W        W32999   7.125   9.413  11.562 -0.0308  0.2718  0.3169
17106W        W33000   5.806   2.153   0.465 -0.0841 -0.2169  0.0716
17107W        W33001   0.769   0.984   9.546 -0.0719 -0.1180 -0.3612
17108W        W33002  12.470   7.485  11.971 -0.0526 -0.1631 -0.2804
17109W        W33003   8.402  10.047  10.530 -0.1098  0.1954 -0.0760
17110W        W33004  18.264   1.802  12.500 -0.1901 -0.1591 -0.0855
17111W        W33005   7.562  15.412  11.373 -0.0159  0.0539 -0.0330
17112W        W33006  12.548   2.168  13.091 -0.2375 -0.0982 -0.0679
17113W        W33007   1.160  12.984   2.018  0.2484  0.0873  0.2017
17114W        W33008  12.224  12.546   4.952  0.0266 -0.2347  0.0200
17115W        W33009   2.621  12.872   0.022  0.2660  0.2163 -0.0669
17116W        W33010   2.403  14.562  13.613 -0.0442  0.1144  0.2236
17117W        W33011   3.281  13.790   3.167 -0.1681 -0.0403 -0.0598
17118W        W33012   0.944  14.382   0.000 -0.1256  0.3354 -0.3970
17119W        W33013   3.020  18.865  13.745 -0.0734 -0.0266 -0.0753
17120W        W33014   0.462   0.262  14.450 -0.2960 -0.1320 -0.1846
17121W        W33015  18.754   6.733   3.432 -0.4131  0.0113 -0.0742
17122W        W33016  18.165   6.770   4.818 -0.3800  0.1610 -0.0343
17123W        W33017   6.360   2.747  13.025  0.2456 -0.1252 -0.0038
17124W        W33018   3.388  15.216  12.467 -0.2478  0.1903 -0.2393
17125W        W33019   7.427  17.673   0.999  0.0070  0.1339  0.1865
17126W        W33020  10.221   4.942  15.438  0.2520  0.0563 -0.3399
17127W        W33021   4.950  11.909  10.477  0.0272 -0.0077  0.2611
17128W        W33022   0.081  15.404  12.328 -0.1985  0.0883 -0.1217
17129W        W33023   2.315   2.822  13.952  0.2310  0.0011 -0.1326
17130W        W33024  10.106   7.416  15.406  0.2038  0.1752  0.0369
17131W        W33025  12.282   3.306   1.336  0.0814  0.2709  0.3889
17132W        W33026  12.639   5.341  15.054  0.1442  0.2380  0.2493
17133W        W33027   5.644  13.862  11.155  0.2343  0.1120  0.3437
17134W        W33028  14.143  12.205  13.724  0.0260 -0.2517 -0.4868
17135W        W33029  18.274   2.395   1.650  0.0094  0.0592  0.1175
17136W        W33030   7.699  17.105  13.026  0.0152 -0.2643 -0.2427
17137W        W33031   0.832  13.430   3.029 -0.0878  0.1466  0.0236
17138W        W33032  11.844  17.145   0.751  0.2436 -0.0622 -0.1138
17139W        W33033   7.515   7.617  14.579 -0.1572  0.2249  0.3935
17140W        W33034  12.565  11.347   5.755  0.1340 -0.0058 -0.1422
17141W        W33035  18.878  17.162  15.303 -0.0596 -0.0298 -0.0347
17142W        W33036   7.092  10.252   3.287  0.2228 -0.1154  0.0538
17143W        W33037   8.199   3.789  14.052  0.0361 -0.2352 -0.1580
17144W        W33038   3.776   7.876  10.569 -0.0710 -0.0503  0.1923
17145W        W33039   1.443   7.631   1.359 -0.1948  0.0882 -0.2005
17146W        W33040   8.371  10.059   3.213  0.1498  0.0786  0.1634
17147W        W33041  12.933  11.531   1.832  0.0625  0.3757 -0.3563
17148W        W33042   4.006   7.498   9.670  0.0826  0.2250  0.1145
17149W        W33043  16.751   6.511   2.815 -0.1430 -0.0976  0.1899
17150W        W33044   7.542   5.776  11.910 -0.2000  0.1338 -0.1203
17151W        W33045  10.199   4.735   5.768  0.1302  0.1581 -0.3724
17152W        W33046  11.397   8.808  11.769  0.1509  0.4222  0.4080
17153W        W33047   2.643  17.875  10.644 -0.2656 -0.0218 -0.1532
17154W        W33048  10.732  10.170   3.529 -0.1144  0.0436  0.2017
17155W        W33049  17.543  18.002  14.054 -0.0459 -0.1378  0.1603
17156W        W33050  11.298   4.020  11.714 -0.0518 -0.1649  0.0183
17157W        W33051   0.267  15.836   2.916  0.2839 -0.1055 -0.3951
17158W        W33052   8.460   4.036  15.244 -0.1010  0.0795  0.0531
17159W        W33053  10.712   8.534   3.726 -0.1590 -0.1125  0.2052
17160W        W33054   7.459  15.052   2.493 -0.1287  0.2472 -0.1988
17161W        W33055  18.029  15.173   2.318 -0.0851 -0.3222  0.2980
17162W        W33056  10.851   7.346  12.284  0.0808  0.1360 -0.1768
17163W        W33057   4.674   2.350   3.324  0.0131 -0.0741  0.0726
17164W        W33058  14.029  16.934   1.995 -0.2655 -0.0341  0.1184
17165W        W33059   2.850   4.880  15.204 -0.1883 -0.0928  0.1841
17166W        W33060  12.102  16.819   4.261 -0.1402 -0.2556  0.4960
17167W        W33061   5.311   9.564   2.543 -0.2509 -0.0441 -0.2388
17168W        W33062   3.876   8.053  14.836 -0.1774  0.0885 -0.0635
17169W        W33063  18.682   1.753  10.874 -0.4624  0.2077 -0.0387
17170W        W33064  15.923   7.105   0.345  0.0663 -0.1524 -0.2056
17171W        W33065   2.490  11.680   1.602  0.0491 -0.1450 -0.0602
17172W        W33066  13.689  15.724  11.011 -0.0184 -0.1431  0.3250
17173W        W33067  12.073   4.943   3.483  0.0824 -0.2127 -0.1322
17174W        W33068  12.034  18.705   3.288 -0.1185  0.0504 -0.2537
17175W        W33069   9.773   8.692  14.610 -0.1227  0.2082 -0.0631
17176W        W33070  17.335   2.166   5.266 -0.0127 -0.3621  0.0024
17177W        W33071   7.078  18.241   3.207 -0.2244 -0.0042 -0.1359
17178W        W33072  11.991  12.511   1.859 -0.1605  0.0945  0.4934
17179W        W33073  16.389   4.311  10.222  0.0073 -0.2369  0.0667
17180W        W33074   3.475  17.293   0.712 -0.1576 -0.0227  0.2387
17181W        W33075   0.564   0.639  14.879 -0.0576  0.2010 -0.2692
17182W        W33076   9.583   8.929   3.352  0.2178 -0.0847 -0.1980
17183W        W33077   5.453  11.793  11.711  0.0758  0.2308 -0.4697
17184W        W33078   2.884  11.108  13.037 -0.1985  0.5086  0.3082
17185W        W33079  14.603   3.312   1.921  0.1972 -0.0095 -0.1496
17186W        W33080   2.038   6.495  11.306  0.3243  0.6207  0.0299
17187W        W33081  11.745   4.022   1.633 -0.0110 -0.2700  0.2138
17188W        W33082  11.409   4.915  11.568  0.3223 -0.1350  0.2067
17189W        W33083   3.096  15.196  11.246 -0.3500  0.2875 -0.1971
17190W        W33084  14.445   2.711   2.383 -0.0476 -0.2834  0.0482
17191W        W33085   2.970  14.662   3.530  0.0418  0.2979  0.1009
17192W        W33086  11.356  14.636  14.367  0.0217 -0.2084  0.2986
17193W        W33087  12.516  11.071  13.877 -0.3679 -0.1577 -0.0062
17194W        W33088  13.299   4.587  12.462  0.0782 -0.4543 -0.4681
17195W        W33089   3.696   6.861   1.728  0.1211 -0.3046 -0.3033
17196W        W33090   4.502   1.790   4.036 -0.1220  0.3727 -0.2541
17197W        W33091   1.387   7.687  11.484 -0.1303  0.0364  0.1720
17198W        W33092  14.591  12.742  11.677  0.2496  0.2065  0.0460
17199W        W33093  12.014   8.776   1.176 -0.2147 -0.1229  0.1190
17200W        W33094   5.533   8.997   1.728 -0.1165  0.0010 -0.1494
17201W        W33095   0.745  11.940  13.283 -0.0225  0.0511  0.1015
17202W        W33096   6.846   5.287   0.345  0.3837  0.0168 -0.0261
17203W        W33097  14.619  16.495  12.341  0.1845 -0.1275 -0.3803
17204W        W33098   1.640   0.197   0.534 -0.0851  0.0193 -0.2561
17205W        W33099   6.026   1.515  11.489 -0.0767  0.2141 -0.0795
17206W        W33100   8.533   4.624   2.073 -0.1050 -0.0911  0.2917
17207W        W33101  15.513  13.528  12.167 -0.0952 -0.0129  0.1525
17208W        W33102  12.493   8.013  13.359 -0.2322 -0.2602 -0.0786
17209W        W33103   5.178   4.509  10.388 -0.0458 -0.3144  0.4890
17210W        W33104  10.072   5.901  10.570  0.0465  0.0403  0.0949
17211W        W33105  16.676  15.759   5.047 -0.0189  0.0615  0.1319
17212W        W33106  12.581  12.989   0.181  0.0729  0.1025 -0.0276
17213W        W33107  12.995   9.339  11.495  0.1143 -0.3058 -0.0664
17214W        W33108   4.267  13.118  14.154  0.0634 -0.0168 -0.0095
17215W        W33109   3.088  12.598   3.185  0.0492  0.1041 -0.4193
17216W        W33110   5.183   5.777  11.362 -0.0032  0.2247 -0.2185
17217W        W33111  12.868   6.635   4.987 -0.0049 -0.1791 -0.3453
17218W        W33112  14.334  14.494   1.004  0.1885  0.1205  0.4035
17219W        W33113  15.289   6.451  11.208 -0.0959  0.0959  0.1404
17220W        W33114  13.457   1.099   4.022  0.0910 -0.0148 -0.2196
17221W        W33115   0.043  12.874  10.958 -0.0380  0.1774  0.2255
17222W        W33116   6.070  13.695   3.588  0.0939 -0.2120 -0.2279
17223W        W33117   7.784   7.506   1.522  0.6362 -0.1589  0.1297
17224W        W33118   7.096   7.653  12.326  0.2046  0.0423  0.2955
17225W        W33119  16.610  13.300   3.029 -0.0869 -0.0959  0.3208
17226W        W33120   2.768  18.452  13.247  0.0436  0.1358  0.1632
17227W        W33121   9.609   7.712   4.094 -0.3096  0.1157 -0.1925
17228W        W33122   5.872  17.585  13.259 -0.0157 -0.0427  0.0554
17229W        W33123  11.416  15.581   1.534  0.0688  0.0486 -0.1618
17230W        W33124   9.810   2.649  14.760  0.3271  0.1545  0.0890
17231W        W33125  12.853   8.716  13.841  0.0122  0.4209 -0.0999
17232W        W33126   5.101   0.947   5.062 -0.1129  0.0422  0.3009
17233W        W33127   6.398   1.114  11.994  0.0921  0.0946  0.1470
17234W        W33128   3.423  11.305   0.518 -0.0993  0.1555 -0.2939
17235W        W33129  17.733  15.618  12.013  0.1481  0.0952  0.0824
17236W        W33130  11.629  14.347  12.142  0.0396 -0.0639 -0.0482
17237W        W33131   3.301   6.166  12.926  0.0909 -0.0489  0.0349
17238W        W33132  17.651   7.903   0.888  0.0976  0.0291 -0.1783
17239W        W33133  11.636  17.386   1.616 -0.2887  0.1105 -0.0880
17240W        W33134   1.724  11.058   4.782  0.2236 -0.0514 -0.1006
17241W        W33135  16.687   5.820   0.142  0.1895  0.3204  0.4666
17242W        W33136   4.433   3.935   0.943 -0.1990  0.0316 -0.3058
17243W        W33137   6.251  13.027  14.130 -0.0475  0.0418  0.0368
17244W        W33138   7.721  13.883  14.271  0.1483 -0.0967  0.1308
17245W        W33139  10.023  15.383  14.390  0.0397 -0.1279 -0.1659
17246W        W33140   5.627  12.346   2.125  0.1801 -0.0813 -0.1659
17247W        W33141  17.911   6.108  14.436 -0.0533 -0.3240 -0.2440
17248W        W33142  15.500   5.039  12.604  0.2669  0.2417 -0.3095
17249W        W33143   5.763   9.231   2.480 -0.3616 -0.2512 -0.3078
17250W        W33144   4.752  14.737  13.233  0.0165  0.0093 -0.0141
17251W        W33145  16.772   9.537   4.658  0.1641  0.2449  0.0606
17252W        W33146   1.437  10.714  13.871 -0.0520  0.1322 -0.1919
17253W        W33147   7.670   7.793  11.417 -0.3202 -0.0770  0.1166
17254W        W33148   4.179   0.862   2.030 -0.2308 -0.0489 -0.2161
17255W        W33149   9.213  15.063  13.843  0.1355 -0.0986 -0.0265
17256W        W33150   3.160  14.102  14.787  0.3544  0.0383 -0.1365
17257W        W33151   1.038   0.075   0.605 -0.0226  0.2996  0.2000
17258W        W33152   9.406   9.712  15.068  0.0526  0.2890  0.4147
17259W        W33153  12.948   6.716   0.140  0.0699 -0.3298 -0.1491
17260W        W33154   7.786  12.249  11.031  0.1153  0.0844  0.0984
17261W        W33155   3.513   0.091   1.777 -0.2339 -0.0227 -0.3191
17262W        W33156   3.758  10.937  13.358  0.2407 -0.0302 -0.3030
17263W        W33157  12.156   7.718  11.666 -0.0524  0.2205  0.1551
17264W        W33158  18.240   9.709  14.494 -0.0543  0.1518  0.1158
17265W        W33159  11.021   7.601   4.664  0.0065  0.0284 -0.0232
17266W        W33160   1.102  13.149   1.535  0.3861 -0.4150  0.2941
17267W        W33161   7.059   1.612  11.796  0.0416 -0.1278  0.0232
17268W        W33162  13.219   2.569   1.292  0.1995  0.2328  0.0811
17269W        W33163   1.628   3.014  12.698  0.0985  0.3858  0.0191
17270W        W33164   5.941   8.955   2.871  0.2779 -0.0475 -0.0442
17271W        W33165   8.911   0.165   0.709 -0.0400 -0.3920 -0.3205
17272W        W33166  10.609   3.678  12.615 -0.3053 -0.0141  0.2106
17273W        W33167  13.781   3.479  14.447  0.1784  0.2671 -0.0549
17274W        W33168   3.968   4.164  11.178 -0.1155 -0.3948  0.1379
17275W        W33169   5.529  12.803  12.433  0.1383  0.0832 -0.1551
17276W        W33170   2.242   4.324  10.226  0.0357 -0.0901 -0.0669
17277W        W33171   7.755   0.258  12.154  0.0821 -0.3857 -0.1013
17278W        W33172  10.565   1.768  13.982 -0.0543 -0.2889  0.0625
17279W        W33173  13.536  12.856   3.433 -0.2360  0.0405 -0.2779
17280W        W33174   2.861  17.850   5.076  0.0366  0.0235  0.1013
17281W        W33175   8.769   3.359  13.716  0.0907 -0.0284  0.0439
17282W        W33176  12.077   7.184  11.516 -0.1184 -0.1888 -0.0501
17283W        W33177   5.315  12.335  14.904 -0.3271  0.0674  0.0688
17284W        W33178   6.754   7.697  13.447  0.3155  0.3398 -0.0649
17285W        W33179   0.379   2.251   0.555  0.1642 -0.3587 -0.1782
17286W        W33180   5.890   0.748   2.218  0.0177  0.2692  0.0785
17287W        W33181   9.256   2.268   3.143 -0.0447  0.1656  0.0391
17288W        W33182  15.908   5.729  13.562 -0.3373  0.2429  0.3110
17289W        W33183   4.892   3.923  12.280 -0.0923  0.0820 -0.3228
17290W        W33184  13.673   7.151   1.993 -0.3932 -0.0564  0.0109
17291W        W33185  16.148   3.438   1.140  0.0535  0.1570 -0.0139
17292W        W33186   8.407   8.425   1.389  0.0547 -0.0589 -0.3010
17293W        W33187   4.459   3.342   1.566 -0.0648 -0.1612  0.2592
17294W        W33188   0.912   9.789  13.351 -0.0809 -0.0203 -0.1620
17295W        W33189   4.359  16.550   4.608  0.0295 -0.3511  0.0126
17296W        W33190  14.565  15.129   3.576 -0.2024  0.1170 -0.1888
17297W        W33191   7.458   2.253  13.624 -0.0294  0.2052  0.1300
17298W        W33192  12.435   4.220  14.387 -0.1436 -0.2286  0.1588
17299W        W33193   5.959  14.218  10.867 -0.0596  0.1480  0.2316
17300W        W33194   8.942   1.790  13.957 -0.1038  0.0393 -0.2233
17301W        W33195   2.677  14.227   3.522  0.2305  0.0115 -0.0821
17302W        W33196  17.827   6.904  11.096  0.1725  0.1868 -0.0355
17303W        W33197  16.699  16.570  11.482  0.2904  0.0828  0.1956
17304W        W33198  11.051  14.299   0.026 -0.2030 -0.1389  0.2688
17305W        W33199   9.562  11.864  13.905  0.2265  0.0100 -0.0826
17306W        W33200   4.077   5.349  14.531 -0.0335 -0.0266  0.0200
17307W        W33201   5.156  11.075  11.052  0.0568 -0.0024 -0.1471
17308W        W33202   7.963  14.844   0.964  0.0884  0.2901  0.4090
17309W        W33203  10.321   4.296  13.683  0.1749 -0.3162 -0.0258
17310W        W33204   3.383   4.286  12.414 -0.0686 -0.1773  0.1039
17311W        W33205  11.768  14.347   3.200  0.1263  0.0353  0.0854
17312W        W33206  14.179  12.222   5.757  0.2531  0.1446  0.1398
17313W        W33207   4.419   9.394   4.399  0.1494  0.1599  0.0068
17314W        W33208  15.570  15.171  12.812 -0.0852 -0.1204  0.1548
17315W        W33209  16.605   3.984  10.473 -0.0584  0.0465  0.1988
17316W        W33210  16.551   6.882  11.078 -0.0033 -0.2317  0.0314
17317W        W33211   4.089  13.914  11.700  0.1625  0.1522 -0.0578
17318W        W33212  12.356  12.145   1.688  0.5291 -0.2309  0.1223
17319W        W33213  13.779   6.796  13.926  0.0741  0.2910  0.1945
17320W        W33214   2.759   1.007   3.647  0.1909 -0.0115 -0.3048
17321W        W33215  17.648  16.729   3.856  0.1650 -0.1720  0.0568
17322W        W33216   7.869   4.025  12.106  0.2339  0.1336  0.1234
17323W        W33217  12.806  10.902  12.476  0.0539  0.1743 -0.1176
17324W        W33218   0.050   6.901   0.779 -0.1075  0.0420 -0.2039
17325W        W33219  15.768  18.067  13.336  0.1014  0.3278  0.0057
17326W        W33220   2.248  13.737  11.251  0.0825  0.1339 -0.0736
17327W        W33221   2.130  15.564  11.690  0.2101 -0.3966 -0.1402
17328W        W33222   0.147   4.401   5.180  0.0442 -0.2197 -0.0046
17329W        W33223  16.924  12.934   6.046  0.0104 -0.0775  0.0939
17330W        W33224   2.826   6.364   0.182  0.0554 -0.3302  0.0816
17331W        W33225   8.084   2.528   0.380  0.0659  0.4300  0.2527
17332W        W33226  13.002  14.713   0.584 -0.1848 -0.1398 -0.3264
17333W        W33227   0.050   5.774  14.484 -0.1212  0.1056 -0.0322
17334W        W33228   4.156   6.218  11.941  0.0362  0.2279 -0.3171
17335W        W33229   3.555  10.813  11.066 -0.2913 -0.2312 -0.0863
17336W        W33230   0.418   5.240  14.589  0.1129 -0.0398  0.1447
17337W        W33231  15.943  15.923   0.478 -0.1340  0.0857 -0.5285
17338W        W33232   0.512  13.599  14.229 -0.0994  0.0308  0.0784
17339W        W33233  14.646  10.875  11.214 -0.1073  0.2721 -0.0936
17340W        W33234   3.485  15.567   5.199  0.2462  0.0080  0.1813
17341W        W33235  17.706  10.692  13.465 -0.2893  0.0067 -0.0227
17342W        W33236  13.400   5.263  12.509 -0.3745 -0.2011  0.3906
17343W        W33237  13.831  11.065  15.390 -0.0945  0.1500 -0.1474
17344W        W33238  16.590   8.743  10.923  0.0412  0.3746  0.4050
17345W        W33239   6.535  18.210  12.865  0.1045  0.4150 -0.1729
17346W        W33240   4.862   9.926  15.309 -0.2739  0.3525 -0.0476
17347W        W33241   1.783   6.537  14.713  0.3231 -0.3269  0.2744
17348W        W33242  10.884   3.271   5.790  0.2703  0.2099 -0.0903
17349W        W33243   0.146   5.562  11.044 -0.0374  0.1349 -0.0320
17350W        W33244  17.147  15.025  11.666 -0.1129 -0.2312 -0.0210
17351W        W33245  13.921   4.908  15.467  0.3018  0.0340 -0.1383
17352W        W33246   5.679  10.651   0.994  0.0465 -0.2080 -0.0412
17353W        W33247   9.035   6.992  14.159 -0.2629 -0.0424 -0.1493
17354W        W33248   1.591   0.951  11.451  0.4741 -0.3006  0.1548
17355W        W33249   7.997   0.271  13.915  0.1349 -0.2550  0.1602
17356W        W33250  10.415  13.196  12.626 -0.1756  0.0143 -0.2214
17357W        W33251   5.001  15.674   1.379  0.0540 -0.0401  0.1664
17358W        W33252  15.724   2.270   1.537  0.0857  0.0857  0.0515
17359W        W33253   5.944  18.712  10.019  0.3029  0.1723  0.0538
17360W        W33254   8.022   4.107  14.378  0.2796 -0.2362 -0.1438
17361W        W33255   3.457   8.873  11.483 -0.0131 -0.1362 -0.0804
17362W        W33256   0.660   1.726   3.664  0.2025  0.1365  0.0416
17363W        W33257  16.467  13.134   5.793  0.1470 -0.0919 -0.1816
17364W        W33258  10.781   8.851   5.399  0.0894 -0.1894  0.0607
17365W        W33259  17.161  10.790  10.906  0.0882 -0.0463 -0.2146
17366W        W33260  10.262  11.691   0.746 -0.0253 -0.4993 -0.4335
17367W        W33261   4.591   7.076   0.664  0.1584 -0.0689 -0.1101
17368W        W33262   1.004   3.840   1.217  0.0506 -0.1629  0.0130
17369W        W33263   4.115  16.833   3.388  0.0201 -0.4202  0.0431
17370W        W33264  13.439   6.632   2.041 -0.0720 -0.2007  0.1563
17371W        W33265   7.725   1.659  11.041 -0.3919  0.2097 -0.0222
17372W        W33266   9.627  14.390  13.134 -0.1648 -0.1057 -0.1704
17373W        W33267   6.199  12.228  15.223  0.1909 -0.0142  0.0412
17374W        W33268  18.414  17.388   0.455 -0.0870  0.1185 -0.1206
17375W        W33269   7.701   2.766  11.934 -0.2467 -0.0492 -0.1513
17376W        W33270  13.412   9.378  11.029  0.0007  0.0231 -0.1619
17377W        W33271  13.906   2.019  13.686 -0.1034 -0.0765  0.0056
17378W        W33272  11.405   9.496   3.302  0.0858  0.1461 -0.2540
17379W        W33273   0.239   3.855   3.401  0.2472 -0.0306 -0.0846
17380W        W33274  10.359  12.913  11.689 -0.4396  0.1066  0.0334
17381W        W33275  16.451  13.918   4.363 -0.0090  0.0852  0.0515
17382W        W33276   0.381  12.532   1.062 -0.2244  0.0629  0.1254
17383W        W33277   4.384  15.866   3.102  0.1806 -0.0887 -0.1087
17384W        W33278  10.897  15.127  11.665  0.0273  0.1742  0.2869
17385W        W33279   6.395   3.791  11.143  0.2193  0.1247 -0.5190
17386W        W33280   1.730  18.349   3.147 -0.1301 -0.0802 -0.0816
17387W        W33281   8.106  18.424   0.872 -0.0952  0.1702  0.0271
17388W        W33282   8.239   5.221   3.820 -0.0137 -0.2701 -0.2781
17389W        W33283  10.591  16.104   5.896  0.0141  0.3762  0.0080
17390W        W33284  14.049   9.543   5.123 -0.1477  0.1994 -0.0043
17391W        W33285   2.640   1.347   1.588  0.1874 -0.0101  0.1489
17392W        W33286  16.369  18.589   2.389 -0.1961  0.1155 -0.3249
17393W        W33287  17.089   6.220  14.123 -0.1948  0.1717 -0.3029
17394W        W33288  11.494  17.433   0.572  0.2563  0.0595  0.0467
17395W        W33289   9.223  12.304   4.051  0.0292  0.1357  0.1681
17396W        W33290  10.808   3.827   2.893 -0.0222 -0.1504 -0.0035
17397W        W33291   0.279   4.006   0.269 -0.2646  0.1368  0.3032
17398W        W33292  16.353   7.176   4.119  0.2462  0.1346 -0.1166
17399W        W33293  18.532   7.478   4.173  0.1218  0.2152  0.1335
17400W        W33294   6.639  12.838   1.738  0.2143 -0.3446 -0.1866
17401W        W33295   3.662   6.662   0.785  0.4094 -0.3200  0.0518
17402W        W33296  14.656  18.394   1.596  0.0776 -0.2316  0.4642
17403W        W33297  11.003   7.693  15.184  0.0234  0.2104  0.0458
17404W        W33298   0.730  10.222   0.663 -0.5151 -0.1810  0.0081
17405W        W33299  15.097   7.322  12.230 -0.1960 -0.1204 -0.0643
17406W        W33300   6.295   6.487   4.650  0.0403  0.0582 -0.3742
17407W        W33301  16.605  11.755   0.407  0.3162 -0.2522 -0.0026
17408W        W33302  11.532   9.728  13.322  0.0378 -0.2850 -0.0740
17409W        W33303   9.486  13.281   2.330  0.1389  0.3823 -0.0816
17410W        W33304   9.750  10.496   4.820 -0.0059  0.0133 -0.0849
17411W        W33305   1.286   1.925   4.100 -0.3869 -0.1413  0.0880
17412W        W33306  16.752   9.303   5.216  0.2029 -0.1644 -0.1883
17413W        W33307   6.580  18.266  10.312 -0.0528  0.0414 -0.1581
17414W        W33308   6.714   1.730  14.462  0.0949 -0.1349  0.3728
17415W        W33309  10.097   2.405   1.363 -0.0655 -0.1744  0.2056
17416W        W33310   5.248  15.445  10.808 -0.0547  0.1009 -0.0352
17417W        W33311  11.541  14.562  13.007  0.0754 -0.0601 -0.0146
17418W        W33312   2.108  11.222  11.552  0.1920  0.1849 -0.4116
17419W        W33313  13.518  13.395  11.056  0.1519 -0.3234  0.0212
17420W        W33314   2.857  14.916   1.217  0.0698 -0.0101  0.0021
17421W        W33315  10.524   7.827   4.822  0.1305  0.0159  0.0920
17422W        W33316   9.618  13.660   1.114  0.2537 -0.2989  0.2221
17423W        W33317  12.932  10.599  10.722  0.0523 -0.3901  0.3146
17424W        W33318   5.931  17.671  12.767 -0.1344 -0.0507  0.0769
17425W        W33319   2.918  18.769   0.048 -0.2875 -0.4004  0.3427
17426W        W33320  12.950   7.290  11.774  0.0799 -0.1356 -0.1793
17427W        W33321   8.534   5.829  13.601 -0.1754  0.1701 -0.3217
17428W        W33322   5.881   6.506  14.531 -0.3123 -0.2243 -0.0973
17429W        W33323   5.970   6.612   9.929  0.4052 -0.0455  0.2085
17430W        W33324  12.770  17.196  12.003 -0.0275  0.0703 -0.0604
17431W        W33325   9.208  17.271   1.934  0.0479 -0.0739 -0.0381
17432W        W33326   7.885  17.051   1.293  0.0156  0.0647  0.0376
17433W        W33327   9.461  18.317  15.271 -0.3098 -0.2346  0.2906
17434W        W33328  16.562  12.650   0.259 -0.1638 -0.0251  0.3171
17435W        W33329   4.357  17.615   0.205 -0.0361 -0.2430  0.0502
17436W        W33330   6.273   3.800  11.634 -0.0181 -0.0359  0.1761
17437W        W33331   9.493   4.847  13.471  0.0718 -0.3818  0.1219
17438W        W33332   2.110   5.235  11.930  0.0842 -0.0131  0.3013
17439W        W33333   1.941  13.025   0.267 -0.1885  0.1378  0.0953
17440W        W33334   7.662   2.579   0.751 -0.3044 -0.0021  0.1494
17441W        W33335  13.582   5.351   4.304 -0.2095  0.1381  0.3806
17442W        W33336   5.596   7.069   3.582 -0.2491  0.1535 -0.0470
17443W        W33337   6.068  15.498  15.137 -0.2274 -0.3907  0.0215
17444W        W33338  15.918  14.449   5.088 -0.0950 -0.0090  0.1012
17445W        W33339   6.503  13.980  13.370  0.1296 -0.0290  0.1065
17446W        W33340  14.253   3.594  12.732 -0.1138 -0.0125 -0.1472
17447W        W33341  18.713   0.630   0.544 -0.0810  0.0301 -0.0156
17448W        W33342   3.255   5.809  13.580  0.2253  0.3401 -0.1506
17449W        W33343   5.231  18.144   4.698 -0.0779  0.0686 -0.2621
17450W        W33344  11.385  17.088   4.634  0.2822  0.1382 -0.0194
17451W        W33345  11.359  14.646   2.337 -0.4067 -0.3236 -0.3470
17452W        W33346  12.899   4.312   6.174  0.3642  0.1573  0.2397
17453W        W33347   0.015  10.661   1.704  0.2101  0.1788  0.0422
17454W        W33348  16.659  11.684  13.587  0.1327  0.1268  0.1173
17455W        W33349   8.175  12.363   1.429 -0.2207 -0.1291  0.2314
17456W        W33350  13.863  12.582  13.989  0.0589 -0.0949 -0.2943
17457W        W33351   0.218  12.030  12.411 -0.1480  0.4373  0.0721
17458W        W33352  16.279  10.463  11.053  0.1562 -0.0371  0.0674
17459W        W33353  11.533   9.784   4.531 -0.0724  0.3889 -0.4307
17460W        W33354   9.423  16.883  14.715  0.0971 -0.0192 -0.0995
17461W        W33355   8.937  13.048  11.076  0.0523  0.1561  0.1552
17462W        W33356  16.664  13.116   4.518 -0.2999 -0.0138  0.0436
17463W        W33357  15.343   8.638   4.074 -0.2355  0.1359  0.1785
17464W        W33358  12.510   7.340   3.552 -0.1689 -0.3174  0.0049
17465W        W33359  10.523   5.596  13.718  0.3243 -0.3418  0.0118
17466W        W33360  18.292  13.187  15.260 -0.0537 -0.2557  0.0916
17467W        W33361   6.118  16.123   0.122  0.0317  0.0770 -0.0043
17468W        W33362  12.829  14.571  14.896 -0.0779 -0.0376  0.0018
17469W        W33363  16.986  14.296  14.018  0.0737  0.2140 -0.0998
17470W        W33364   3.937   8.634   3.911 -0.2592 -0.0453  0.3226
17471W        W33365   5.743   3.944   2.342 -0.0672  0.0472 -0.0385
17472W        W33366   9.511   5.646  14.161 -0.0400 -0.3670 -0.1758
17473W        W33367  11.962   2.936   5.465 -0.0258 -0.2438 -0.0439
17474W        W33368  17.077  13.069   3.108 -0.2031  0.0724 -0.1171
17475W        W33369   1.119   2.756   1.253  0.0948 -0.1373  0.2980
17476W        W33370  15.267   2.566   1.512  0.0944  0.1659 -0.1518
17477W        W33371   7.743  10.264  14.174  0.1369  0.2435  0.1480
17478W        W33372  14.271   2.735  14.759 -0.1385 -0.2942 -0.1462
17479W        W33373  17.435   2.694   3.803 -0.2594 -0.3316  0.0026
17480W        W33374  16.005  17.874   3.371 -0.1551  0.0294  0.0326
17481W        W33375  10.496  18.060  14.950  0.1673  0.3304  0.0072
17482W        W33376   3.803   0.261   1.327  0.1899 -0.1569  0.0398
17483W        W33377   7.536   4.768   4.399 -0.0633  0.1572  0.0796
17484W        W33378  13.716   2.502   1.362 -0.0102 -0.2107  0.0377
17485W        W33379  11.384   7.442   0.837 -0.0517 -0.3006  0.2484
17486W        W33380   8.900   8.562   4.412 -0.0572  0.0518  0.1198
17487W        W33381   3.366   5.914  14.442  0.0580  0.3225  0.0625
17488W        W33382   0.802   2.396   3.421 -0.1397 -0.0843  0.3727
17489W        W33383  11.239  17.817   2.980  0.0747 -0.2179  0.3910
17490W        W33384   6.400   7.239  11.203 -0.0388 -0.1646  0.1801
17491W        W33385  16.934  12.743   2.711  0.1980 -0.1473 -0.2831
17492W        W33386   8.512  11.486   2.004  0.0684  0.1688  0.2502
17493W        W33387  11.166  11.806   1.545  0.0378  0.0924 -0.0991
17494W        W33388  11.912  11.082   3.901 -0.0944 -0.1885 -0.4258
17495W        W33389   9.587  12.935  10.398  0.2156 -0.0497  0.0181
17496W        W33390  15.608   4.761  13.910  0.0674  0.0460  0.1483
17497W        W33391   9.282   1.762   0.575  0.1161 -0.4503 -0.3124
17498W        W33392  17.587  11.760   4.036 -0.4086 -0.1920  0.1840
17499W        W33393  10.418   3.509  11.067  0.2815  0.0967  0.0412
17500W        W33394   8.775   5.143  10.965 -0.3452  0.0130 -0.4013
17501W        W33395   8.104  10.464  13.954  0.0501 -0.0769  0.1878
17502W        W33396   8.762   7.011   3.191  0.1055  0.2041 -0.2547
17503W        W33397  15.060   8.179  13.529  0.1904 -0.2071 -0.2729
17504W        W33398   3.180   5.745  12.527 -0.0589 -0.0867  0.1869
17505W        W33399  15.675  11.859  14.014 -0.2640  0.2792  0.0567
17506W        W33400   6.138   1.669  12.714 -0.1138 -0.3978  0.1149
17507W        W33401   1.773   0.961  14.406  0.0372  0.0672  0.0269
17508W        W33402  14.053  11.510   3.429 -0.1716 -0.2787 -0.3767
17509W        W33403  14.157   8.077  11.450  0.0267 -0.0882 -0.1448
17510W        W33404  12.979   5.873   5.527  0.1233 -0.1158 -0.1455
17511W        W33405  10.447  11.253   2.571  0.0821  0.0428  0.0051
17512W        W33406   4.106   6.404  10.492  0.2289 -0.0597  0.0988
17513W        W33407   6.902  11.606   2.950 -0.1939 -0.1818 -0.2602
17514W        W33408   3.676  11.590  11.137  0.1972  0.0899 -0.0265
17515W        W33409   5.125  16.303   5.055 -0.1183  0.1705  0.2286
17516W        W33410   1.387  13.217  12.275  0.2752  0.0589 -0.2062
17517W        W33411  17.276   9.124   2.686  0.1994 -0.5701 -0.2228
17518W        W33412  15.260  10.198   5.157 -0.1020 -0.1559 -0.1351
17519W        W33413  15.653   1.943   0.916  0.0211 -0.1076 -0.1888
17520W        W33414  16.885  14.372  13.027 -0.1462 -0.0799  0.1508
17521W        W33415  18.617   9.306   0.709 -0.0188  0.0316 -0.1743
17522W        W33416  13.220  10.048  15.435 -0.2158  0.0719 -0.1034
17523W        W33417   1.710   0.046   2.954  0.4021 -0.3249  0.3089
17524W        W33418  16.927  15.976   4.684 -0.0383  0.0059  0.0289
17525W        W33419   2.815   2.902  11.516 -0.1416 -0.1968  0.0679
17526W        W33420  11.378  14.355   5.503 -0.0081 -0.2016  0.0350
17527W        W33421   2.923   3.948  11.884  0.1855 -0.1330  0.0252
17528W        W33422   5.910   1.202  14.576  0.2976  0.0105 -0.0088
17529W        W33423  18.519   8.720  13.768 -0.0159  0.2046  0.0218
17530W        W33424   0.257  17.920   0.227  0.1762  0.0150 -0.0586
17531W        W33425   2.295   3.703  15.383  0.0910  0.1358  0.1821
17532W        W33426  17.318   0.849   2.066 -0.0609  0.1976  0.0284
17533W        W33427  15.254  10.751   5.229  0.2288  0.1409  0.0896
17534W        W33428   2.377  16.452  10.965 -0.1305  0.1501 -0.0207
17535W        W33429   9.519  14.830   5.101  0.2744 -0.4075 -0.1590
17536W        W33430  14.943   2.327  11.678  0.3353  0.2180 -0.2123
17537W        W33431  15.292  10.513   4.637 -0.2143 -0.0112 -0.2360
17538W        W33432   4.789   0.186   3.829 -0.1037  0.0644  0.0984
17539W        W33433  17.345   0.423  15.282 -0.0480  0.3029 -0.0940
17540W        W33434   1.149   3.010   2.607 -0.0673  0.0967 -0.0397
17541W        W33435   4.073   6.863  12.632 -0.0367  0.0340  0.2016
17542W        W33436  17.592  12.754   4.279  0.2704  0.3228 -0.0134
17543W        W33437   9.260   2.684  14.988 -0.0875 -0.0099  0.0313
17544W        W33438   1.281  10.256  11.229  0.1542  0.0801  0.0583
17545W        W33439   5.654  17.846   4.640  0.1501  0.3258  0.1501
17546W        W33440  14.781   7.042  10.989  0.2361 -0.1032  0.1649
17547W        W33441   4.860   9.813  12.500 -0.4075 -0.0049  0.0755
17548W        W33442   3.526   8.069   4.440 -0.2310  0.0117  0.2644
17549W        W33443  15.230   8.304   0.130 -0.5868  0.0644  0.1887
17550W        W33444  10.669   1.173   2.608 -0.2410 -0.1897  0.1813
17551W        W33445  18.413   8.409  12.106  0.2790 -0.1181  0.1440
17552W        W33446  10.627   0.511  14.938  0.1855  0.0202  0.2718
17553W        W33447   2.449   9.809  11.922  0.0149  0.1977  0.1903
17554W        W33448  18.139  10.853  14.459  0.1671  0.0332  0.1121
17555W        W33449  17.787   2.099   4.449 -0.1051  0.2109 -0.1167
17556W        W33450  15.408  13.733   1.719  0.1613 -0.2700 -0.1921
17557W        W33451  13.110   4.108   0.985 -0.0555 -0.0580 -0.0970
17558W        W33452   3.803  16.916  14.718 -0.0159 -0.0728 -0.1216
17559W        W33453   0.280   1.511   0.929 -0.2006  0.2018  0.0582
17560W        W33454  18.868   7.232   3.865  0.0461  0.3789  0.2141
17561W        W33455   7.597  15.255  13.475  0.1014 -0.2543  0.0092
17562W        W33456  11.119   1.052   5.181  0.1081 -0.0083 -0.0869
17563W        W33457   6.217  14.628  10.276 -0.1163 -0.0926 -0.0279
17564W        W33458   1.279   4.421  13.579  0.2222  0.0103  0.0856
17565W        W33459   3.222   8.060   1.758 -0.2288 -0.0778  0.0655
17566W        W33460  18.878   3.757   1.308  0.3880 -0.0676  0.1254
17567W        W33461   1.081  15.924  11.885  0.3343 -0.1602 -0.0329
17568W        W33462   6.670   3.851  15.401  0.1936  0.1895  0.3295
17569W        W33463   9.016   9.573   2.993  0.0140 -0.0368  0.1123
17570W        W33464   2.786   2.421   0.884 -0.0260 -0.3157 -0.1669
17571W        W33465   6.861   1.921  12.831 -0.2573 -0.1345 -0.1103
17572W        W33466  10.590  16.803   3.726  0.2516  0.2141  0.0412
17573W        W33467  13.476   5.390   4.891  0.0704  0.0267 -0.3347
17574W        W33468   3.278   2.560   2.550  0.3538  0.0937 -0.0051
17575W        W33469   0.653   0.891  12.303  0.0586 -0.3795  0.0259
17576W        W33470   5.702  14.171  11.805  0.1731  0.0140  0.1647
17577W        W33471  13.930   3.615   0.111 -0.0376  0.1055 -0.0958
17578W        W33472   3.922   1.014   4.400  0.1177 -0.1567 -0.3502
17579W        W33473   9.006   6.405   4.778  0.1031 -0.1895  0.0293
17580W        W33474   2.961   2.026   9.668 -0.1830 -0.2376  0.0951
17581W        W33475  17.093   2.077   1.485 -0.3542  0.2268  0.3319
17582W        W33476  10.659  11.131  12.530  0.0876 -0.2209  0.1532
17583W        W33477  14.064   6.026  12.756 -0.1211  0.4078 -0.2015
17584W        W33478   8.405   4.596  14.386 -0.1016 -0.1690  0.2956
17585W        W33479  13.928   1.322  14.355 -0.1811  0.2803 -0.2943
17586W        W33480   6.272   8.044   4.652 -0.0114 -0.2200 -0.2235
17587W        W33481   5.790  14.641  11.052 -0.2005  0.2100  0.1993
17588W        W33482   9.294   5.995   0.492  0.0562  0.1071 -0.0105
17589W        W33483  14.267   6.230   1.651 -0.2238  0.2700 -0.0978
17590W        W33484  13.937  14.876  14.345  0.0053  0.0906  0.2221
17591W        W33485   5.138   4.926   3.031  0.0132  0.1501  0.2732
17592W        W33486  15.434   9.329  11.736  0.0854  0.0085 -0.0796
17593W        W33487  17.865  13.736  11.233 -0.2450 -0.1073  0.2129
17594W        W33488  17.690  13.571   0.753  0.0144 -0.1276  0.1965
17595W        W33489  16.425  11.179   1.878  0.0139 -0.0056 -0.0129
17596W        W33490  16.819   3.927   3.827 -0.0235 -0.2066  0.0434
17597W        W33491   5.468  13.436  10.929  0.0831  0.0359 -0.3707
17598W        W33492   5.306   0.090   2.915  0.0285  0.0463  0.0703
17599W        W33493   1.317  10.981   1.758  0.1249  0.1057  0.2776
17600W        W33494  15.301  18.204   0.240  0.2430 -0.0713  0.3766
17601W        W33495  10.789   9.514  14.753  0.0124 -0.0888 -0.1045
17602W        W33496   1.996  11.982   1.853  0.0445 -0.3334  0.1353
17603W        W33497   3.817   1.888   2.268  0.0974 -0.0701  0.2051
17604W        W33498   9.532   6.047   1.777  0.0578 -0.1245  0.3276
17605W        W33499   9.060  16.469   3.033  0.0633 -0.0146  0.0334
17606W        W33500  16.390   3.818   3.459  0.0799 -0.0840  0.0649
17607W        W33501   0.642   1.074   4.888  0.0161 -0.1869 -0.2366
17608W        W33502  15.692  14.160  12.874 -0.0649  0.1497  0.0458
17609W        W33503  17.557   7.174   9.887  0.2708 -0.0638  0.1747
17610W        W33504  13.695   0.622   0.647 -0.5347  0.0373 -0.3099
17611W        W33505   2.086   0.498   1.827 -0.0211  0.0231 -0.1593
17612W        W33506   0.853  13.937  12.998  0.2402 -0.0490 -0.1892
17613W        W33507  14.513   0.133  12.313  0.1417  0.1033  0.0614
17614W        W33508   3.077  16.759  11.705  0.0660  0.1716 -0.0436
17615W        W33509  15.371  14.837   3.302  0.2326 -0.0081 -0.0531
17616W        W33510   0.063  17.442  12.477 -0.0059 -0.0793 -0.1652
17617W        W33511   7.367  17.827   3.719  0.1511  0.2975 -0.3098
17618W        W33512  10.710   6.809   3.299 -0.2667 -0.3108  0.2250
17619W        W33513  14.593   4.340  14.061 -0.0666 -0.0552 -0.1356
17620W        W33514  13.911   3.250  12.961  0.1420 -0.0284 -0.2673
17621W        W33515   9.069   0.839   5.027  0.1573 -0.3552  0.4148
17622W        W33516  10.784  13.659  11.428 -0.1593  0.0508  0.1218
17623W        W33517   6.083  11.664   3.520 -0.0323 -0.0553 -0.2834
17624W        W33518  17.875  11.942  14.142 -0.0364  0.1564  0.1036
17625W        W33519   6.431  14.942  11.664  0.0638 -0.0494 -0.1298
17626W        W33520   4.537  17.705   5.919 -0.1281  0.0962  0.0135
17627W        W33521  14.967   8.524  12.179 -0.0925 -0.0557  0.2735
17628W        W33522  15.028   4.599  11.402  0.2389  0.0427 -0.1529
17629W        W33523   9.980   5.119  15.012  0.3236  0.2860  0.2461
17630W        W33524   4.020  18.304  11.826  0.0751  0.3611 -0.1080
17631W        W33525   4.145   6.351   2.360  0.1215  0.0868  0.1622
17632W        W33526  13.453   2.094   1.501 -0.1161 -0.0612 -0.2769
17633W        W33527  10.674  17.641   1.704  0.2995  0.3467 -0.0277
17634W        W33528   2.943   6.497   4.925 -0.1967  0.2468  0.3631
17635W        W33529  15.451  10.092   0.371  0.2903  0.0194  0.1017
17636W        W33530   0.513  17.278  15.356  0.0565  0.0546  0.3307
17637W        W33531   4.425   9.356  12.128 -0.0874 -0.1452  0.2271
17638W        W33532   7.559   3.088  14.361 -0.1105 -0.2753  0.0865
17639W        W33533   7.533   4.986   0.758  0.1350 -0.0989  0.0587
17640W        W33534  17.304   7.058   4.202 -0.0063  0.1510 -0.0454
17641W        W33535   0.478   6.013  10.933  0.1626 -0.0851  0.2121
17642W        W33536   7.599   6.130  11.012 -0.0679  0.0256  0.0151
17643W        W33537   9.981   3.462   0.192  0.1951 -0.2108  0.0509
17644W        W33538  18.416  11.644   1.327  0.0305  0.1900 -0.1380
17645W        W33539  10.498  11.772  14.432 -0.3052 -0.2904 -0.3374
17646W        W33540   9.079  12.785   2.803 -0.1111 -0.1960 -0.1499
17647W        W33541  10.654   3.177   1.337 -0.3788  0.0922 -0.0210
17648W        W33542   4.255   3.183   3.999  0.0492  0.1453 -0.0902
17649W        W33543  17.401  18.718  10.486  0.0646 -0.1471 -0.1366
17650W        W33544   7.932   7.329   4.166 -0.2087  0.0196 -0.0763
17651W        W33545   4.526  16.753   1.989  0.0523  0.0075  0.2259
17652W        W33546   2.400  15.019   1.447  0.0555  0.1045  0.1984
17653W        W33547   3.035   9.149   3.480  0.1505  0.4300  0.3133
17654W        W33548   7.384  14.725   4.886 -0.2736  0.0865  0.2221
17655W        W33549   7.018   7.086   4.564 -0.0638  0.0514 -0.1391
17656W        W33550  10.654   4.704   5.682  0.0118  0.1188  0.2224
17657W        W33551  10.828  12.447   4.343 -0.0835 -0.1831 -0.0439
17658W        W33552   2.165  17.381  11.674 -0.1067  0.3088 -0.2600
17659W        W33553   5.124   6.390   3.860 -0.2477 -0.2069  0.0354
17660W        W33554   0.881  15.860   4.372 -0.1293 -0.4113 -0.0432
17661W        W33555  11.270   4.616   3.724  0.1385  0.1862 -0.4991
17662W        W33556   8.004   9.618  15.033  0.1570 -0.1498  0.0846
17663W        W33557   5.707   7.333   3.096  0.0048 -0.3494 -0.1708
17664W        W33558  13.913   5.383   2.597 -0.0455 -0.0112 -0.0425
17665W        W33559   0.142   8.070   4.639 -0.1568  0.2675 -0.0112
17666W        W33560   2.114  10.105   3.888 -0.3231  0.1521 -0.0527
17667W        W33561   9.685   9.576  13.050  0.0450 -0.0413 -0.2755
17668W        W33562  15.855   6.945  11.847 -0.0210  0.3104 -0.2040
17669W        W33563   5.434   1.207   1.430 -0.0471  0.0296  0.0700
17670W        W33564   8.552   0.817   4.347 -0.0242  0.2256 -0.3659
17671W        W33565   6.114  18.022   2.972  0.6040 -0.0336  0.2949
17672W        W33566   1.361   3.889  15.487 -0.0551 -0.1515 -0.2595
17673W        W33567   0.610   1.284   2.453  0.0772 -0.0997  0.2091
17674W        W33568  14.275   2.623  12.103 -0.0524 -0.0741 -0.1634
17675W        W33569   8.918   9.651  14.795 -0.0944  0.1007 -0.1158
17676W        W33570   2.147   0.835   0.819  0.3519  0.0022 -0.1130
17677W        W33571  11.531  13.879   1.785  0.4162 -0.1622 -0.2113
17678W        W33572   4.042  10.635   2.946 -0.1295 -0.3211  0.0949
17679W        W33573   4.314   2.809  15.172 -0.0073 -0.1458  0.2959
17680W        W33574  13.222  16.464  15.093 -0.2171  0.0063 -0.1387
17681W        W33575  16.475  16.097  13.837  0.1526  0.1030 -0.1868
17682W        W33576  17.591  15.718  13.903 -0.0682 -0.1113  0.0134
17683W        W33577  12.334   0.559  14.593 -0.1028  0.1658  0.1235
17684W        W33578   1.512   2.098   1.662  0.0821 -0.0659 -0.0322
17685W        W33579   2.368   0.212  12.554  0.0939  0.0321  0.4111
17686W        W33580   5.030   4.064  11.295 -0.1048 -0.1434 -0.1005
17687W        W33581   7.000   1.389   0.794  0.1084  0.0014  0.2117
17688W        W33582   9.120   6.867   5.400 -0.1339 -0.3985  0.1514
17689W        W33583  10.040   1.774  13.883  0.0282 -0.2445  0.0885
17690W        W33584  14.417   8.526  14.688  0.1465  0.2075 -0.0282
17691W        W33585   9.030  14.333   5.920  0.0783  0.3305  0.2080
17692W        W33586  10.499   6.564   2.719 -0.0774  0.2169 -0.3764
17693W        W33587  11.341   4.460   2.734 -0.1797  0.0912  0.0853
17694W        W33588   7.803   3.643   4.236 -0.2677  0.0780  0.0295
17695W        W33589  11.398   2.033  11.791  0.0777 -0.2123 -0.2666
17696W        W33590   1.092  15.123  10.777  0.1140  0.0440  0.5415
17697W        W33591   2.521   4.415  13.670  0.1036  0.2895  0.3657
17698W        W33592   9.834  17.047  14.967  0.1776  0.2497 -0.0644
17699W        W33593  18.441   9.969   4.063  0.0458 -0.0850 -0.1502
17700W        W33594  11.484  14.022   1.312 -0.1046 -0.0844 -0.0184
17701W        W33595  17.820   3.699  10.863 -0.1774 -0.0132 -0.0694
17702W        W33596   9.764  14.992   4.507  0.4719 -0.1319  0.5814
17703W        W33597  11.960   1.603   5.164  0.1247  0.0470 -0.0525
17704W        W33598   0.390   9.859   0.467 -0.0196  0.0355  0.0321
17705W        W33599   2.529  14.312  13.072 -0.1973 -0.0811  0.1017
17706W        W33600  11.552   6.763  13.817  0.1534 -0.0205  0.1037
17707W        W33601   7.901  13.541  13.928  0.0452 -0.1679 -0.4031
17708W        W33602  10.377   4.973   2.389  0.0674 -0.3192 -0.2519
17709W        W33603   0.804   9.112   5.194  0.0827 -0.1732  0.2091
17710W        W33604   3.244   5.096  14.425 -0.0482  0.1289  0.3111
17711W        W33605   4.259  12.981  11.267 -0.1274 -0.1060  0.0559
17712W        W33606   7.083   9.190   2.896 -0.1352  0.2619 -0.1928
17713W        W33607  15.212  16.090  11.173 -0.3775  0.1529 -0.1287
17714W        W33608   6.455   7.244   5.128  0.2200 -0.1764  0.1610
17715W        W33609   0.168  13.613   1.789 -0.1649  0.0223  0.1010
17716W        W33610  11.602  18.037  13.451  0.0501 -0.0030 -0.0481
17717W        W33611   1.967   2.940   5.170  0.3284  0.0964 -0.2892
17718W        W33612  18.550   4.405  12.878  0.1213  0.1876  0.2161
17719W        W33613  17.126   6.491   0.605  0.2537  0.2178 -0.2284
17720W        W33614   4.298  12.949  10.352 -0.0078  0.2539  0.0332
17721W        W33615   3.916   7.483   4.903 -0.3429 -0.1713 -0.0918
17722W        W33616  16.089  14.237   1.521 -0.0536  0.0012  0.3772
17723W        W33617  11.158   5.942   2.804  0.0302 -0.1019 -0.0030
17724W        W33618  14.021   4.903  12.105 -0.0517 -0.2840 -0.0438
17725W        W33619  17.059   8.741   4.740  0.0431  0.0312 -0.0313
17726W        W33620   2.358  14.080   2.173  0.0806  0.3840 -0.0229
17727W        W33621  16.761   0.527   4.382  0.1620  0.0507 -0.0763
17728W        W33622  11.132  11.447  14.873 -0.2843 -0.1563  0.0217
17729W        W33623  10.026  18.866   4.235 -0.0159 -0.0885 -0.1631
17730W        W33624   9.109  10.469   2.048  0.2647  0.2245  0.0885
17731W        W33625  17.003  16.127  11.002 -0.1001 -0.3311  0.4636
17732W        W33626   0.715  17.025   4.047 -0.1119  0.0927  0.1000
17733W        W33627  12.397  16.706  10.203 -0.1720  0.1105  0.2231
17734W        W33628  12.977  11.431  11.284  0.1826  0.1285  0.0471
17735W        W33629  17.831  16.565   4.653  0.0535 -0.0013 -0.0539
17736W        W33630   1.060  18.455   2.180  0.1243  0.0536  0.3045
17737W        W33631   4.361   9.927   3.495 -0.2189 -0.3462 -0.3052
17738W        W33632   7.091  16.193   1.134  0.0929 -0.1611 -0.0974
17739W        W33633   0.243  13.491  14.964  0.0856  0.0965  0.0041
17740W        W33634  15.441   0.652   4.712  0.0096 -0.1417  0.0558
17741W        W33635   2.858  18.454  15.060 -0.2469 -0.0108  0.1612
17742W        W33636  16.022  15.223   0.864 -0.0217 -0.2642  0.0125
17743W        W33637   5.100  10.125  11.634 -0.0279  0.2190 -0.0854
17744W        W33638   3.517  12.334   3.769 -0.2808  0.3412  0.0607
17745W        W33639  18.033   2.824   0.120 -0.0040 -0.1049  0.3258
17746W        W33640   5.302   3.615   0.081 -0.0495 -0.0858  0.1962
17747W        W33641  11.136   7.566   9.686  0.1411 -0.0837  0.0704
17748W        W33642   9.814  13.055   5.470  0.0646 -0.1653  0.0657
17749W        W33643   4.968   1.931  13.420  0.1970  0.1573  0.0949
17750W        W33644   5.408  14.122  14.734 -0.4015 -0.2036 -0.1290
17751W        W33645  13.818   2.836  11.917  0.0206 -0.0790  0.1250
17752W        W33646   9.382   8.395  14.247 -0.0895 -0.0111 -0.1176
17753W        W33647   9.001  15.809   0.108 -0.0542  0.1101 -0.0708
17754W        W33648   2.301  16.232  14.110 -0.1276 -0.0645  0.0294
17755W        W33649   2.448   0.017   0.150 -0.1515  0.2074  0.2931
17756W        W33650   7.475   2.355  11.697  0.2537 -0.0822  0.2561
17757W        W33651   8.023   8.631   2.643 -0.1086 -0.0296  0.1823
17758W        W33652   5.971  11.116   3.461 -0.3527  0.0022  0.3117
17759W        W33653   8.549   9.250  14.626 -0.3116 -0.1120 -0.2249
17760W        W33654  10.114   8.667   9.851 -0.1866  0.2017 -0.1233
17761W        W33655  13.869  10.497  11.432  0.0348  0.4065  0.0492
17762W        W33656  14.090  15.594  12.678 -0.4568  0.1612 -0.0529
17763W        W33657  10.906  13.839  14.448  0.2828  0.0095  0.2827
17764W        W33658   9.173  12.411  11.733 -0.2312  0.1635  0.0424
17765W        W33659   2.463   9.245   4.221  0.0066  0.1332  0.0052
17766W        W33660  10.948  15.509   2.181  0.1360  0.3870  0.0184
17767W        W33661   1.806  12.467   1.730 -0.2170  0.0388  0.1097
17768W        W33662  17.961  12.039  14.718 -0.1188 -0.0683  0.2084
17769W        W33663  18.387  16.479   5.534  0.1430  0.1115 -0.2175
17770W        W33664   3.247   4.368   0.771 -0.3889  0.5000 -0.0588
17771W        W33665   0.270   7.337   2.353  0.0791  0.1370  0.1545
17772W        W33666   8.387   9.184   0.363 -0.0191  0.2185  0.2095
17773W        W33667  17.577   6.376   0.430 -0.0811 -0.2479  0.0848
17774W        W33668   3.608  12.266  11.536  0.0458  0.4026 -0.2203
17775W        W33669  12.125  10.186  10.779  0.0991  0.1027  0.0208
17776W        W33670  17.921  12.334   1.480 -0.0128  0.1416  0.4206
17777W        W33671  10.249  12.730  11.100  0.2242 -0.1478 -0.3137
17778W        W33672   2.930  14.271  11.684  0.1789 -0.1195 -0.0166
17779W        W33673   9.879   4.830  11.081 -0.2070 -0.0129  0.0253
17780W        W33674   8.243  10.280   4.507 -0.2466  0.0975 -0.0952
17781W        W33675   8.332  18.723  13.643  0.0265 -0.2863 -0.2153
17782W        W33676   0.199  16.392  12.289 -0.0862  0.0764  0.1306
17783W        W33677   7.365  16.033   2.290  0.0637 -0.0373  0.1462
17784W        W33678   2.930  13.905  10.844  0.3517 -0.2480  0.0268
17785W        W33679  15.714   6.822  11.177  0.0787 -0.1451  0.0322
17786W        W33680  11.997  17.207   2.123  0.2874  0.4229  0.1295
17787W        W33681   6.539  16.508   5.656  0.2719  0.0298 -0.2392
17788W        W33682   0.614   7.825   1.437 -0.2935 -0.1261  0.0064
17789W        W33683  10.369   9.450   3.334  0.0944 -0.2003 -0.1237
17790W        W33684  18.188   3.409   4.945 -0.0149  0.1864 -0.0636
17791W        W33685   5.547  11.147   1.246  0.1253  0.0806 -0.0862
17792W        W33686   1.734  14.220  10.875  0.1044  0.0703  0.0813
17793W        W33687   6.039  17.404  12.322 -0.1990 -0.4463  0.0754
17794W        W33688  14.993   4.458  14.682  0.1607  0.0712  0.0989
17795W        W33689   3.659  11.892   4.641  0.0962  0.4870  0.1431
17796W        W33690   3.089  11.732   1.879 -0.0348  0.2009  0.3438
17797W        W33691   5.461   7.436   2.272  0.1070 -0.0879 -0.0114
17798W        W33692   6.398   9.642  12.799 -0.2329 -0.0768  0.0343
17799W        W33693   3.681   4.918  13.810  0.0570 -0.3656  0.1534
17800W        W33694  12.955   8.368  15.019  0.1059  0.1420  0.0607
17801W        W33695   0.645   0.750   5.439 -0.0406  0.2216 -0.1575
17802W        W33696   7.391  14.540   2.390 -0.0130  0.0279  0.0726
17803W        W33697  12.750  14.341  14.419  0.1035 -0.0058 -0.0086
17804W        W33698   1.638   2.545  12.435  0.1440  0.2795 -0.2216
17805W        W33699  12.897  14.147   2.003  0.3959  0.0077  0.3301
17806W        W33700   4.711  11.019  11.363  0.0652 -0.2639 -0.3780
17807W        W33701   4.647  15.264   2.415 -0.0459  0.2509 -0.2523
17808W        W33702   5.888  12.772   0.593 -0.3182  0.1263  0.1594
17809W        W33703   9.175   3.805   0.412  0.1420 -0.3884  0.0892
17810W        W33704   4.139  16.133   5.374  0.2514 -0.1305 -0.4366
17811W        W33705   7.437   9.973   0.182  0.1443 -0.3633 -0.0060
17812W        W33706   9.686  16.534   1.191  0.1507 -0.0117  0.1469
17813W        W33707   3.227   1.093  13.384  0.1126 -0.3089  0.4590
17814W        W33708  10.509  14.214   0.719 -0.3064 -0.1867  0.1282
17815W        W33709   3.930   5.232  13.528  0.1593  0.3108  0.1478
17816W        W33710  10.738   8.858  12.779  0.2532 -0.2710  0.0817
17817W        W33711   1.404   5.063  10.849 -0.1533 -0.2752 -0.0737
17818W        W33712   2.164   2.303  12.179 -0.1458 -0.0009 -0.2184
17819W        W33713   5.952   8.628  12.905  0.3239 -0.1248 -0.0445
17820W        W33714  16.853   6.886   1.348  0.3327  0.1216 -0.2540
17821W        W33715   0.971   5.050  11.898 -0.0451 -0.2295 -0.2178
17822W        W33716  14.912  17.878   2.085 -0.1833 -0.0093 -0.2194
17823W        W33717   5.106  13.139   0.192 -0.1004  0.1494 -0.3119
17824W        W33718  11.213   2.436  10.899  0.1051 -0.1613 -0.1184
17825W        W33719   1.655  14.575  14.433 -0.1846  0.2594 -0.2268
17826W        W33720   9.738  11.213   5.165 -0.0607 -0.3300  0.2570
17827W        W33721  14.831  11.070  10.122 -0.1736 -0.0122 -0.1125
17828W        W33722  14.928  16.290  14.911  0.2821 -0.0086 -0.0333
17829W        W33723  15.110  10.406   4.144  0.1031 -0.1509  0.0923
17830W        W33724  16.886  18.412  14.745 -0.0972 -0.0916  0.2978
17831W        W33725   1.293   7.782  10.256 -0.1493 -0.1131  0.0055
17832W        W33726   1.505  18.240   3.578  0.2412 -0.5324  0.2376
17833W        W33727   4.675   4.320   4.294  0.1524 -0.0911 -0.1079
17834W        W33728   1.379  13.696   0.079  0.1729 -0.2607 -0.1190
17835W        W33729  11.470  16.190   3.960  0.1918  0.0133  0.0953
17836W        W33730  16.938   5.231  13.093  0.0044 -0.0128 -0.2026
17837W        W33731   2.983  13.025   4.292  0.1664  0.0561  0.0479
17838W        W33732  12.689   8.404   4.519  0.1746 -0.1851 -0.2095
17839W        W33733   4.772  14.568  11.794  0.1170  0.1227 -0.2132
17840W        W33734  16.361   5.378   3.122  0.3057  0.0161  0.1916
17841W        W33735   7.461   8.982  13.776  0.2625 -0.0630  0.1805
17842W        W33736  17.077   6.768  13.297 -0.3501 -0.2908 -0.1144
17843W        W33737   0.002   6.432   1.912 -0.3501 -0.1972 -0.2693
17844W        W33738  13.823  14.683   2.111  0.1141 -0.0467 -0.2176
17845W        W33739   6.995   8.415  14.894  0.0650 -0.0225  0.1207
17846W        W33740  13.859   8.009   3.308  0.3029  0.0543  0.1768
17847W        W33741  11.919  10.140   4.299  0.0528 -0.1286 -0.2666
17848W        W33742  14.901  14.602   0.716  0.1432  0.0152  0.0729
17849W        W33743   1.929   8.629   0.323  0.0016 -0.1207 -0.0701
17850W        W33744   2.968   4.180  14.222 -0.2981  0.0483 -0.0640
17851W        W33745  10.843  12.667  14.876 -0.0389  0.3229  0.0281
17852W        W33746   0.982  17.774   3.289  0.2089  0.2058  0.0755
17853W        W33747  15.687   8.561   2.924  0.1305  0.1920 -0.0798
17854W        W33748  13.497   7.701   3.127 -0.4783  0.1929 -0.1773
17855W        W33749  10.416   5.988  13.027  0.4212  0.0351 -0.0453
17856W        W33750  17.988   4.539   3.172  0.2032 -0.0369 -0.4076
17857W        W33751   5.718   1.076   5.610 -0.1976 -0.0639 -0.1413
17858W        W33752  12.042  14.743   1.723 -0.2909 -0.0484  0.0070
17859W        W33753   5.220  10.235   4.855 -0.4239  0.2320  0.0444
17860W        W33754   9.388   5.106   5.207 -0.0839 -0.1190  0.1120
17861W        W33755   1.246  13.565   0.584 -0.2898  0.1787  0.0634
17862W        W33756   5.101   1.512   2.657  0.1565 -0.1608  0.0721
17863W        W33757  16.376  14.772   4.359 -0.0872 -0.2378 -0.0057
17864W        W33758   1.684   5.882  13.231  0.3972 -0.3250  0.3737
17865W        W33759  11.945  12.408   0.037 -0.0580  0.2560 -0.2289
17866W        W33760  15.431  17.787  14.766 -0.3429 -0.0378  0.2046
17867W        W33761   4.747  12.966   2.222 -0.0991  0.1089 -0.0268
17868W        W33762   4.551  11.753  14.515  0.1704  0.1589  0.0898
17869W        W33763   8.068   4.914  13.501 -0.1995  0.0676  0.1103
17870W        W33764   8.127  11.864   3.261  0.2165  0.2099  0.1157
17871W        W33765  16.410  12.423   3.965  0.0607 -0.1378 -0.0657
17872W        W33766  12.016  17.261   1.226  0.1693 -0.1505 -0.3106
17873W        W33767  13.004   6.692  12.337  0.1501  0.1993  0.0820
17874W        W33768   9.905  16.321  10.526  0.0947 -0.1996  0.2661
17875W        W33769   5.213  17.604  13.889 -0.3828  0.0071 -0.0291
17876W        W33770   4.051  15.396  12.311 -0.2272 -0.2174  0.2127
17877W        W33771   5.752  18.807   3.180  0.0312  0.0571  0.1179
17878W        W33772   6.297   0.560  13.354  0.0407  0.2900  0.3906
17879W        W33773  12.405  11.325  11.232  0.0835 -0.0918  0.0365
17880W        W33774  10.129   9.719  11.691  0.0098  0.1514  0.1140
17881W        W33775  11.474   0.897   0.668 -0.1730  0.0748  0.2877
17882W        W33776   9.959   9.999  13.740  0.3206 -0.0232  0.2328
17883W        W33777   1.968   4.612   3.085  0.0020 -0.1484 -0.0919
17884W        W33778   1.294   5.531   0.608 -0.0187  0.3823 -0.4162
17885W        W33779   4.089   8.952   1.445  0.4610 -0.0674 -0.2441
17886W        W33780  17.186  12.555   3.178 -0.4524 -0.1408  0.2311
17887W        W33781  17.196   4.603   0.887 -0.2405  0.0469 -0.5775
17888W        W33782   4.921   0.809  11.666  0.0481 -0.1059 -0.0801
17889W        W33783  13.797   5.546   3.559  0.1280  0.0217 -0.0400
17890W        W33784  11.624   3.553  14.910  0.2012  0.0556 -0.2744
17891W        W33785  18.579  15.682  11.408  0.2552 -0.3052  0.1402
17892W        W33786  10.538   8.112  13.877 -0.0954  0.1348  0.0276
17893W        W33787  17.200   6.088   4.999 -0.1356  0.0941 -0.2218
17894W        W33788  16.227  11.781  15.163 -0.4802 -0.1245 -0.1852
17895W        W33789   9.367   1.011  13.624  0.2532  0.2049  0.2040
17896W        W33790  14.923  13.655  12.443  0.1419  0.1053  0.0036
17897W        W33791   0.440   7.042   4.855 -0.2885 -0.0320 -0.1135
17898W        W33792   8.754   8.001   0.044  0.2935 -0.1371  0.0984
17899W        W33793   5.043  13.200  12.893  0.2548  0.2504 -0.3614
17900W        W33794   5.234  18.581   4.555  0.2222  0.1505 -0.1161
17901W        W33795   5.599  14.272  13.845  0.1224 -0.1250  0.1408
17902W        W33796   7.818  10.859  14.131  0.3688 -0.0003 -0.1355
17903W        W33797   8.944  15.301  12.953  0.2607 -0.0294 -0.3904
17904W        W33798  10.418  10.996   0.747 -0.0215 -0.0682  0.1265
17905W        W33799  12.613   3.511  15.088 -0.1300 -0.0349  0.0243
17906W        W33800   1.969  10.783  14.786 -0.1859 -0.0104 -0.2079
17907W        W33801  10.041  12.256   0.729  0.0577  0.2012  0.0299
17908W        W33802   9.755   6.147   4.042  0.1198 -0.1637 -0.1723
17909W        W33803   0.867   3.487  11.814  0.1100 -0.0564 -0.1864
17910W        W33804  15.643   8.532  11.240 -0.1727  0.1808 -0.0529
17911W        W33805  18.830   7.595  15.118  0.4844 -0.2221 -0.2092
17912W        W33806   6.562   6.491   2.280 -0.3088  0.1892  0.2015
17913W        W33807  15.935   0.550  13.766  0.0878 -0.0469  0.0179
17914W        W33808  12.962  13.151   2.607  0.0070 -0.1743 -0.2219
17915W        W33809   4.234   6.563  10.950  0.3013  0.2742 -0.3260
17916W        W33810  13.274   1.765  13.907 -0.3867 -0.1619  0.0720
17917W        W33811  16.359   5.287  13.347 -0.1366  0.1580  0.1906
17918W        W33812   7.689  12.215   1.065 -0.2172 -0.0972 -0.0173
17919W        W33813  12.178  17.579   2.353 -0.1091 -0.0214  0.0719
17920W        W33814  12.550  13.808  12.712 -0.1416  0.1199 -0.1240
17921W        W33815   3.421  12.866   1.319 -0.2012  0.0188 -0.1434
17922W        W33816  10.217   7.731  13.494  0.0068  0.0158 -0.1015
17923W        W33817  13.176   0.100  12.478  0.0825  0.3074  0.3165
17924W        W33818  11.387   0.792  12.384 -0.0881 -0.2065 -0.0568
17925W        W33819   1.071   4.220  12.801 -0.0236  0.3694  0.0231
17926W        W33820  15.220   1.984  12.510  0.2831 -0.2774 -0.2202
17927W        W33821  16.947  15.317  13.934 -0.4167  0.0124  0.0559
17928W        W33822  17.439  11.299  13.159 -0.0068 -0.2901  0.0647
17929W        W33823  13.333   4.229   2.164 -0.0333 -0.0504 -0.2919
17930W        W33824   5.951  10.776  11.369 -0.0156  0.1695  0.0267
17931W        W33825   2.060  17.967  14.716 -0.1211 -0.1623 -0.1765
17932W        W33826   4.082   5.348   0.502  0.1715  0.0303 -0.0831
17933W        W33827  17.276   6.688   2.688 -0.0259  0.5625  0.1967
17934W        W33828   4.468  15.565  11.520  0.0203 -0.1034 -0.2298
17935W        W33829   2.402   7.695  15.223 -0.0490 -0.0342  0.0875
17936W        W33830   3.319   7.659   2.063  0.0535  0.2128 -0.2170
17937W        W33831   4.900   6.483  13.863 -0.1589 -0.0540  0.1957
17938W        W33832  14.865   2.148   0.405  0.0759 -0.1531 -0.0469
17939W        W33833   8.402   9.634   5.213  0.2100 -0.2005 -0.1041
17940W        W33834   1.700  18.846  14.204  0.0117  0.0648  0.0948
17941W        W33835  13.232  16.154   5.297  0.2628 -0.0664 -0.2908
17942W        W33836  17.419  11.470  10.891 -0.1986  0.4675  0.1110
17943W        W33837  12.745  17.255  13.242 -0.0150  0.2989 -0.0395
17944W        W33838  10.838   3.904   0.891  0.4502 -0.2255  0.0169
17945W        W33839  15.125  17.205   5.427 -0.1588 -0.2757 -0.1160
17946W        W33840   2.830  13.201  11.962 -0.1051  0.0264 -0.1744
17947W        W33841   0.101  12.297   0.662  0.0317  0.0503  0.1751
17948W        W33842   5.185  18.511  11.045  0.0528  0.2185  0.0977
17949W        W33843  10.149  14.061   5.231 -0.2016 -0.1311 -0.2040
17950W        W33844   7.613  16.552  10.908 -0.1904 -0.1176 -0.2673
17951W        W33845   9.558  15.157  11.909 -0.2731  0.0327  0.2115
17952W        W33846  15.404  12.746  12.173  0.2203 -0.2802 -0.0924
17953W        W33847  10.873   5.291  12.181 -0.1076  0.0280 -0.1355
17954W        W33848  14.190   1.594  13.547  0.3726  0.0230 -0.1915
17955W        W33849   4.071   7.009  11.112 -0.2733 -0.0660  0.1069
17956W        W33850  16.144   2.630  10.986  0.2174 -0.0582 -0.4848
17957W        W33851  14.306  16.674  15.310 -0.3118  0.0156  0.0338
17958W        W33852   7.579   7.523  15.157 -0.1903  0.0770  0.1576
17959W        W33853   7.454   5.812   1.968  0.2934  0.0477 -0.0056
17960W        W33854   4.041  12.021   3.716  0.4417 -0.1439  0.3821
17961W        W33855  12.002   4.456   3.521 -0.1252 -0.3335  0.0321
17962W        W33856  14.706   2.338  14.857  0.1311 -0.1099  0.0117
17963W        W33857   2.937   2.496   4.112  0.3428  0.1447  0.0476
17964W        W33858   8.409  15.061  11.333 -0.0522 -0.1116  0.0960
17965W        W33859   1.498   2.264   0.753  0.1996  0.0456 -0.3984
17966W        W33860  18.776  12.918  13.955  0.0255  0.2908  0.2707
17967W        W33861   4.863  13.408   2.931  0.6326  0.0036  0.0556
17968W        W33862   4.695  10.918   4.840  0.2388  0.0358 -0.1700
17969W        W33863   6.662  12.494  15.244 -0.0766 -0.2148 -0.0979
17970W        W33864   8.228   9.345   3.905 -0.1989 -0.2249 -0.0352
17971W        W33865  14.430   9.785  12.726 -0.0453 -0.0827 -0.6291
17972W        W33866   1.330  16.393   4.014 -0.0390  0.0443  0.2848
17973W        W33867   4.763   9.930  13.360 -0.1565  0.2817 -0.0976
17974W        W33868   9.789   1.918  10.710 -0.0102  0.2521  0.2216
17975W        W33869  18.735   9.182  13.837 -0.0562  0.0552  0.2816
17976W        W33870  15.581  12.526  15.149  0.1344 -0.0372  0.1108
17977W        W33871   2.121   0.775  12.740 -0.0881  0.1754 -0.0389
17978W        W33872   6.227   4.992   2.036  0.0816 -0.2416 -0.0861
17979W        W33873  13.136   4.772   3.997 -0.0396  0.0304  0.0268
17980W        W33874   7.997  10.609  11.700  0.2230 -0.4243  0.0743
17981W        W33875   3.880   4.982  10.565 -0.0487 -0.2551 -0.1715
17982W        W33876  18.838  16.399  14.475 -0.0135  0.0130  0.1947
17983W        W33877   7.676   5.998   1.453 -0.0335 -0.0483 -0.2742
17984W        W33878  14.605   2.613  13.855  0.0614  0.1353  0.2392
17985W        W33879   1.935  16.421  13.577 -0.0734  0.3546  0.0137
17986W        W33880   3.264  10.153  13.878 -0.0940  0.1762  0.4019
17987W        W33881   7.616  15.119   3.628  0.0302 -0.0421  0.1098
17988W        W33882  14.420  13.953   1.096 -0.1011 -0.1321 -0.0307
17989W        W33883   7.019   7.103  12.954 -0.0562  0.1248  0.0110
17990W        W33884   7.540  18.220   3.534 -0.0050  0.2968 -0.3272
17991W        W33885  15.420  16.905  12.091 -0.1626 -0.4342  0.0103
17992W        W33886   4.266   9.961   4.436  0.1432  0.0180  0.0200
17993W        W33887  16.974   3.895  11.387  0.0432  0.0910 -0.0418
17994W        W33888  11.862  14.143   5.556 -0.0684 -0.1306 -0.0160
17995W        W33889   4.381  15.658   1.577 -0.2642 -0.2697 -0.1512
17996W        W33890   7.520   1.578  11.810  0.1142  0.0039 -0.0612
17997W        W33891  15.247   3.671   1.304  0.2441 -0.1703  0.0403
17998W        W33892  13.290  10.564  15.418 -0.0751  0.1501  0.2581
17999W        W33893  13.787   4.063   4.788  0.0228  0.1606  0.0320
18000W        W33894   3.774   4.111   2.439 -0.1256 -0.1394 -0.1792
18001W        W33895  11.558  12.185  13.652  0.3987 -0.0893 -0.0779
18002W        W33896   5.460   4.965   3.600 -0.1665  0.1552  0.0559
18003W        W33897   8.357   4.281  11.905 -0.1189  0.1840  0.0727
18004W        W33898   1.139   0.459   2.445 -0.3205 -0.0502 -0.0062
18005W        W33899  14.619  17.353  12.061  0.4177 -0.4416  0.2905
18006W        W33900  17.390  17.394  11.376 -0.0708 -0.0069  0.1389
18007W        W33901  14.823   5.803   2.494  0.0424  0.1852  0.0098
18008W        W33902   5.749   0.008  14.391  0.2545 -0.2018  0.0578
18009W        W33903   8.347  18.436   1.849  0.0477 -0.0429  0.3089
18010W        W33904  12.160   8.614   3.936  0.0649  0.0235  0.2805
18011W        W33905   9.663  12.799   1.934  0.2665  0.1462  0.1798
18012W        W33906   5.715  10.554  12.563  0.2495 -0.3003  0.0687
18013W        W33907  14.030   7.051  11.362 -0.0206  0.0080  0.0933
18014W        W33908   0.995   4.668   4.313 -0.0293  0.1463 -0.0534
18015W        W33909  14.721   7.094  12.051 -0.0279  0.1139 -0.0890
18016W        W33910   3.672  18.246   3.901 -0.1076 -0.1338 -0.1762
18017W        W33911  14.644   8.160  13.860  0.0720 -0.3791  0.0002
18018W        W33912   8.028   3.730  13.106 -0.1176  0.1409 -0.2703
18019W        W33913   0.352  18.176   5.132 -0.0857  0.0374 -0.0483
18020W        W33914   8.206   9.346  15.444 -0.0606  0.1206 -0.0796
18021W        W33915  13.193   0.213   1.302  0.2891 -0.1761  0.0492
18022W        W33916   1.321  18.501  14.068  0.1374  0.1556 -0.1958
18023W        W33917   5.546   7.916   2.173 -0.1922  0.0889  0.0310
18024W        W33918   0.512   2.226  10.608 -0.2780 -0.3787 -0.2568
18025W        W33919  11.115   3.997   4.629 -0.0280 -0.3535 -0.3787
18026W        W33920   7.555   5.961   4.825 -0.2140 -0.0471 -0.1288
18027W        W33921  11.309   7.990  12.058  0.3322  0.1905 -0.4672
18028W        W33922   2.409   1.605  14.493 -0.0605 -0.2476  0.0044
18029W        W33923  12.145   1.948  11.796 -0.0848  0.0515 -0.1161
18030W        W33924  14.630   3.435   1.463  0.3211  0.1567  0.0811
18031W        W33925  15.329   7.604  15.209 -0.2536  0.1699 -0.2964
18032W        W33926  18.117  10.493  11.284  0.0306 -0.0876  0.1095
18033W        W33927   9.037   1.204  12.434  0.0023 -0.0397 -0.0130
18034W        W33928   7.110  17.233  11.807 -0.2378 -0.0047  0.1001
18035W        W33929  17.442  14.254  13.882  0.0027 -0.1830 -0.1085
18036W        W33930  11.788   4.854   0.719 -0.5767 -0.1226  0.1296
18037W        W33931   4.269  12.276   2.053  0.0477  0.0951 -0.2217
18038W        W33932  15.548   0.326  12.150 -0.1259  0.1182  0.1141
18039W        W33933  13.030  18.051  14.882  0.2123  0.3968 -0.3028
18040W        W33934   2.509  10.906   1.402  0.3215 -0.2122  0.2675
18041W        W33935  12.062  18.150   1.735 -0.1361  0.0718  0.0032
18042W        W33936   4.014   5.478   1.997 -0.1083 -0.1262  0.0721
18043W        W33937   2.068  15.968  12.015  0.0064  0.0086 -0.0205
18044W        W33938  16.515  11.115  14.578 -0.0622 -0.0417  0.1061
18045W        W33939   9.719   0.380   0.298 -0.0683 -0.0008  0.3109
18046W        W33940  15.110   9.468   5.097  0.2315 -0.2366 -0.0812
18047W        W33941   3.015   0.357   1.528  0.0686 -0.0265 -0.3392
18048W        W33942   9.282  16.021   2.111  0.1201 -0.0094 -0.0255
18049W        W33943  12.490  15.721  14.609  0.1699  0.3570 -0.3331
18050W        W33944  17.695  10.378   2.790  0.0465 -0.1463  0.0022
18051W        W33945  14.000   6.426   2.606  0.0147  0.6437  0.3537
18052W        W33946   2.095   2.504   0.259 -0.1757 -0.1903 -0.0625
18053W        W33947   4.252   3.072   3.029 -0.1512  0.2736  0.0098
18054W        W33948  14.909   6.535  10.882 -0.1104  0.0940 -0.0399
18055W        W33949   4.729  14.109   3.695 -0.0941  0.4048  0.3239
18056W        W33950   1.047  10.944  11.748 -0.2011  0.2015  0.1376
18057W        W33951   4.754  17.167  11.932 -0.0980  0.1636  0.0137
18058W        W33952   8.686   1.527  14.276  0.0279 -0.1780  0.1639
18059W        W33953  12.653  13.489   3.541  0.0852 -0.0936 -0.2719
18060W        W33954   6.493  10.901   1.138  0.2835 -0.2769 -0.0783
18061W        W33955  16.372   3.849  15.487 -0.1765  0.1151  0.0501
18062W        W33956  16.646   4.171   1.253  0.1322 -0.1120  0.1590
18063W        W33957   1.932  17.479   0.454  0.0678 -0.1400 -0.0934
18064W        W33958  12.045  11.715  14.805  0.1653 -0.1642 -0.1633
18065W        W33959  10.186  14.929   2.818 -0.0942 -0.3542  0.0478
18066W        W33960  12.100  10.441   4.744  0.4773 -0.1570 -0.1386
18067W        W33961  16.774  12.244   0.429  0.0490 -0.1682  0.0145
18068W        W33962  10.504  15.690   4.221  0.1814  0.0673  0.1247
18069W        W33963  15.393  17.102   0.722 -0.0160 -0.1730 -0.0738
18070W        W33964   8.067  12.972   1.818 -0.1079  0.2873  0.5059
18071W        W33965  11.865   2.370  11.693 -0.0130  0.0765  0.0131
18072W        W33966  12.164   2.674  15.129 -0.0813 -0.2578 -0.1902
18073W        W33967  18.380   0.923   0.678 -0.1329 -0.0778 -0.3500
18074W        W33968   9.111  12.962  11.546 -0.0363 -0.0912  0.0628
18075W        W33969   4.223  17.574   2.053  0.0412 -0.0533  0.0695
18076W        W33970  15.171  14.961  13.827 -0.0093 -0.0826 -0.0001
18077W        W33971   6.966   7.886   0.399  0.3121  0.2041 -0.0612
18078W        W33972  13.532   0.774  13.215 -0.0119  0.2220 -0.1664
18079W        W33973  18.565   3.777   2.756 -0.1420 -0.0513 -0.0024
18080W        W33974  11.939  11.325  14.500  0.0259 -0.0520 -0.1475
18081W        W33975  15.118   0.554   2.035 -0.0470  0.2465  0.1383
18082W        W33976  12.333  13.618   4.557  0.0544  0.0227 -0.2739
18083W        W33977   9.889  16.533   1.784 -0.0582 -0.1350 -0.0910
18084W        W33978  15.801  18.494   4.074  0.4369  0.2214 -0.3481
18085W        W33979   5.589  10.291   3.973  0.0419  0.3055 -0.0470
18086W        W33980  10.405  15.556   5.184  0.0383  0.1799 -0.0570
18087W        W33981  11.131  14.211  13.608 -0.1449 -0.3970 -0.0771
18088W        W33982  11.556   8.934   1.905 -0.2045 -0.1113  0.1390
18089W        W33983  11.865   3.877  12.925  0.3756  0.0300  0.0334
18090W        W33984   4.302   0.203  11.116 -0.0110  0.1638 -0.1195
18091W        W33985   7.814  12.275   3.306 -0.0892 -0.3264  0.1128
18092W        W33986  15.256  17.618   3.106 -0.1724  0.0531  0.0093
18093W        W33987  11.936   6.972   2.007  0.0851 -0.3115  0.1010
18094W        W33988   5.982  14.963  13.807  0.0867 -0.0293  0.1715
18095W        W33989   7.319   4.887  14.051 -0.0173  0.1431  0.0662
18096W        W33990  17.143  18.023  14.617 -0.0569  0.3218 -0.1349
18097W        W33991  15.785   7.332   0.855 -0.1842 -0.0587  0.3023
18098W        W33992   6.725   9.791  11.365  0.2297 -0.0384  0.4137
18099W        W33993  14.353  11.492   0.420  0.0496 -0.1900  0.1820
18100W        W33994   8.459  10.292   4.957  0.2163  0.0662  0.0586
18101W        W33995   3.007  17.732  13.467  0.0111 -0.0828  0.2006
18102W        W33996  12.495  17.545   4.833  0.0744 -0.1895 -0.2600
18103W        W33997   4.076   2.852  12.033 -0.0502 -0.2630 -0.0294
18104W        W33998   4.183  14.744   3.175  0.1048  0.5896 -0.2316
18105W        W33999  16.832  17.790  13.454 -0.0334  0.2019  0.2400
18106W        W34000   2.504  16.202   2.733  0.0525 -0.3638 -0.4617
18107W        W34001  13.039  17.298  12.416  0.1934 -0.6436  0.1070
18108W        W34002  17.791  12.306   4.457 -0.0242  0.2024  0.1272
18109W        W34003   4.101   2.146   1.060 -0.1358  0.0158 -0.1564
18110W        W34004   4.282   8.193  15.176  0.1131  0.1474 -0.1194
18111W        W34005  17.013  11.108  14.626 -0.3411 -0.0052  0.1553
18112W        W34006   6.987   1.866   0.516  0.0545 -0.1074 -0.4215
18113W        W34007   5.694   8.715  12.507  0.1186 -0.0870  0.3934
18114W        W34008  18.337   3.801  14.428 -0.1111  0.0242  0.4560
18115W        W34009   4.468   1.022   4.483  0.1540 -0.2211 -0.2804
18116W        W34010  13.591   0.187  12.092  0.6177 -0.1422 -0.3500
18117W        W34011   8.599   3.266   4.658  0.2269  0.0292  0.1265
18118W        W34012  15.696   2.119  11.400  0.0862  0.0764  0.0258
18119W        W34013   4.475   7.924   5.562 -0.1177 -0.1618  0.0003
18120W        W34014  18.777  16.158   1.704 -0.2564  0.0113  0.5123
18121W        W34015   3.322   0.955   0.837  0.2170 -0.1818  0.1176
18122W        W34016  14.455  10.228   0.534 -0.3162  0.2614 -0.0606
18123W        W34017  12.317   5.368  12.525  0.4179 -0.0549  0.0357
18124W        W34018  15.721   1.379   4.173  0.2269  0.1032 -0.1590
18125W        W34019  10.821  14.778  12.478 -0.4587  0.0041  0.1551
18126W        W34020   0.680   8.931   0.260  0.0267  0.0747 -0.1208
18127W        W34021   7.134  13.083   4.068 -0.1476 -0.2417  0.0395
18128W        W34022   4.106  14.267   3.070  0.3004 -0.1838 -0.0451
18129W        W34023   9.518  13.400  10.259 -0.3092  0.3959  0.1592
18130W        W34024   2.118   7.591  11.930 -0.0341  0.4330 -0.2691
18131W        W34025   5.379   3.017   0.443  0.0007 -0.0621 -0.4295
18132W        W34026  11.630  16.732  14.169 -0.0491 -0.3161  0.1710
18133W        W34027  16.727  10.289  12.678 -0.0399  0.1397 -0.1421
18134W        W34028  12.270   8.050   2.725  0.1803 -0.2914  0.2954
18135W        W34029  16.586  13.226  14.516  0.1261 -0.3138  0.1751
18136W        W34030   0.458   7.906   2.959  0.2454  0.0494 -0.2314
18137W        W34031   9.326  13.755   0.691  0.2247 -0.4357  0.0192
18138W        W34032   6.672   7.204   4.258  0.0095  0.1001  0.2197
18139W        W34033   1.445   0.356  10.684 -0.1803 -0.0677 -0.4884
18140W        W34034  12.261  18.283  12.932 -0.1740 -0.0726  0.2244
18141W        W34035   6.801  11.719   1.989  0.1404  0.1482 -0.0271
18142W        W34036   2.163  16.041  14.983 -0.1440  0.1810 -0.1194
18143W        W34037   1.521   9.885   0.775 -0.0607  0.0660  0.1208
18144W        W34038  15.493   5.853  11.046  0.0628 -0.4566 -0.3326
18145W        W34039   2.392   7.859  11.572 -0.2025  0.1565 -0.2574
18146W        W34040  16.842   0.890   2.267 -0.2506 -0.2791  0.0354
18147W        W34041  11.693   6.254   0.575  0.2074  0.2014  0.0954
18148W        W34042  11.913   1.219  11.343 -0.1665  0.0182  0.3309
18149W        W34043   4.824   7.381   0.959 -0.0916 -0.0283  0.0256
18150W        W34044   4.299   5.948  10.791  0.1791 -0.0434 -0.0021
18151W        W34045  16.765   0.406   2.473  0.1000 -0.1987  0.2109
18152W        W34046  14.583  13.183  11.896 -0.0647 -0.2081  0.2993
18153W        W34047  16.136  12.640   1.849  0.4162 -0.2517  0.1419
18154W        W34048  11.973   1.339  15.248  0.1893 -0.0610 -0.2970
18155W        W34049  16.003   5.812  11.096 -0.0252  0.0222  0.1183
18156W        W34050  16.152  12.399  14.254  0.0763  0.1645  0.2021
18157W        W34051   8.298  10.285   1.751 -0.1059 -0.0712 -0.1449
18158W        W34052  11.293   3.255   1.284  0.0218 -0.1175 -0.0466
18159W        W34053  14.411  14.190   2.761 -0.0660  0.2336 -0.1294
18160W        W34054   5.247   8.397   3.004  0.3623  0.0488 -0.3590
18161W        W34055   3.136   5.555   3.974  0.1865  0.0829 -0.3912
18162W        W34056   9.259  10.734  12.860 -0.0927 -0.1075 -0.0060
18163W        W34057  17.342  11.024  15.125 -0.0996 -0.0271  0.0596
18164W        W34058  18.872  16.256   4.910  0.0609 -0.0440  0.1064
18165W        W34059  10.476   1.373  11.581  0.2736 -0.3256  0.2243
18166W        W34060   2.857  13.675   1.301 -0.1551 -0.2046  0.1618
18167W        W34061  11.378  18.247  14.809  0.1526  0.0662  0.0448
18168W        W34062   5.309   6.651  11.680 -0.1283 -0.2547 -0.1307
18169W        W34063  17.362  15.453   1.856 -0.0607 -0.0366  0.0402
18170W        W34064  15.418  11.078  13.339  0.0319  0.0128  0.1642
18171W        W34065  14.521   6.753  12.388 -0.0882 -0.0300  0.0372
18172W        W34066   6.946   5.982   1.350  0.3288 -0.1353  0.2238
18173W        W34067   7.494  18.639   3.900  0.4270  0.1307 -0.2688
18174W        W34068  18.048   9.182  11.759 -0.0966 -0.1133 -0.0816
18175W        W34069   0.668  17.169   5.014  0.1240  0.2508  0.1337
18176W        W34070  14.782   1.115  11.073  0.0344 -0.1298 -0.3157
18177W        W34071  16.853  11.927  14.661  0.1086  0.1096  0.0676
18178W        W34072  15.847   2.978   3.756 -0.2484 -0.0278  0.0505
18179W        W34073   6.849  13.325   3.061  0.0888 -0.1083 -0.0289
18180W        W34074   4.127   2.797  11.522 -0.0095  0.1256  0.2696
18181W        W34075  15.538   0.647  11.473  0.0439 -0.2006 -0.2232
18182W        W34076   2.665  14.955   0.328 -0.1630  0.1233  0.3275
18183W        W34077   7.556  12.810   2.237 -0.0081 -0.1057  0.0638
18184W        W34078  16.302   6.842  12.794 -0.1456 -0.0831 -0.0699
18185W        W34079   4.424  12.015   2.506 -0.0399  0.1082  0.3837
18186W        W34080  10.827  14.622  11.476 -0.0487  0.1575  0.0136
18187W        W34081   0.528   6.801   1.015 -0.1522  0.0681  0.0451
18188W        W34082  17.231   3.017  14.849 -0.3442  0.1817  0.3548
18189W        W34083  14.132   9.583   3.357  0.0856  0.1257  0.1940
18190W        W34084   5.983  16.667   4.114 -0.0452 -0.0779  0.1452
18191W        W34085   3.605  13.738   0.666 -0.0858 -0.0847 -0.0999
18192W        W34086  15.299  10.553  14.145 -0.0866  0.0994 -0.1957
18193W        W34087  10.860   6.840  11.057  0.3274 -0.1207 -0.0689
18194W        W34088  10.203  15.146   0.987  0.0595  0.1407 -0.1601
18195W        W34089  18.848  18.366   3.533  0.1796  0.1690  0.0960
18196W        W34090   1.670  15.809  13.467  0.0425 -0.1493 -0.0344
18197W        W34091  16.039  12.008   6.333 -0.1243 -0.1174 -0.0513
18198W        W34092   5.147   6.895   2.815 -0.1359 -0.0195  0.1169
18199W        W34093  14.691  16.886  12.028 -0.1731 -0.1509  0.2068
18200W        W34094  18.383   4.098  11.517  0.3591  0.1276 -0.0273
18201W        W34095  15.132   3.264  13.333 -0.4056  0.2269 -0.2641
18202W        W34096   7.263  10.161  13.601 -0.1006  0.1929 -0.0535
18203W        W34097   3.509   5.780   4.407  0.1468  0.2353 -0.1080
18204W        W34098  10.572   2.777   4.190 -0.0913 -0.2093 -0.0527
18205W        W34099   1.150   6.085  13.149 -0.0270  0.0264  0.1874
18206W        W34100   6.141  10.026  15.492 -0.0653  0.4730 -0.0398
18207W        W34101   6.947  13.774   3.686 -0.2165 -0.1439 -0.2422
18208W        W34102  14.854   0.443   3.894  0.3434 -0.2529 -0.2338
18209W        W34103   9.354  13.694   3.299 -0.1005 -0.0171  0.0545
18210W        W34104   3.021  17.569  13.961  0.1773  0.1795 -0.2961
18211W        W34105   0.745  16.973   1.454  0.0005 -0.1322  0.0915
18212W        W34106   3.896   4.974   3.601  0.2091 -0.0995 -0.1581
18213W        W34107  17.762   7.060   1.973 -0.0137  0.5310 -0.3166
18214W        W34108  15.041  16.253  13.021 -0.0975  0.1326 -0.3759
18215W        W34109   1.482  15.977   0.340 -0.2649  0.0535 -0.2221
18216W        W34110  18.104   6.943  14.147  0.3249  0.1731  0.0951
18217W        W34111  16.141  17.361   3.572  0.0408 -0.0154  0.0660
18218W        W34112  18.123   6.189   3.075  0.0588 -0.3202 -0.1411
18219W        W34113   7.190   5.339  14.131 -0.2155  0.1622 -0.2427
18220W        W34114  16.731  18.064  11.231 -0.2940  0.0009 -0.1052
18221W        W34115  18.780   3.811  13.791  0.0344 -0.1250 -0.0476
18222W        W34116  16.373   6.847  14.569 -0.1143 -0.1835  0.1582
18223W        W34117   0.233   1.943   1.342  0.1347  0.3780 -0.1548
18224W        W34118  14.209   3.561   0.562 -0.1745 -0.2547  0.3575
18225W        W34119  18.306   7.932   2.155 -0.0533 -0.0647 -0.0797
18226W        W34120   5.173  16.888  14.991  0.1589  0.0225 -0.2158
18227W        W34121  10.309   2.927   5.229  0.2272 -0.1146  0.2119
18228W        W34122   6.982  16.178  13.156 -0.1267  0.0347 -0.2248
18229W        W34123   7.348  13.297   3.043 -0.1144 -0.1603 -0.0038
18230W        W34124   3.562  12.660   4.270 -0.0751  0.0177 -0.0222
18231W        W34125   6.800   5.800  11.500  0.0071  0.2086  0.2992
18232W        W34126  14.642   0.804   1.889 -0.1700 -0.1164  0.1717
18233W        W34127  10.091  10.726  12.390 -0.2484 -0.2772 -0.5563
18234W        W34128   3.576   2.906   2.806 -0.1650  0.2968  0.2399
18235W        W34129  11.217  16.794   5.386 -0.0685  0.0249 -0.1672
18236W        W34130   1.021  17.022  10.055 -0.4237  0.0945 -0.1273
18237W        W34131  13.733   2.542  13.676 -0.2620  0.1668 -0.1061
18238W        W34132   8.016  16.409  13.008 -0.3145  0.2777  0.3076
18239W        W34133  14.709   1.225  11.603  0.3953  0.0641 -0.5179
18240W        W34134   1.821   7.320   1.425  0.0572  0.1752  0.1055
18241W        W34135   0.363  11.813  12.889  0.0195 -0.3439 -0.2836
18242W        W34136   3.390   7.355  12.268  0.1222  0.3933 -0.1547
18243W        W34137  14.765  17.881   6.335  0.0542  0.0455 -0.1897
18244W        W34138   6.788  14.254   1.625 -0.0591 -0.3630  0.3866
18245W        W34139   7.947  12.788   3.555  0.1900 -0.0367  0.3779
18246W        W34140   4.147   0.378   5.147  0.1395 -0.0060  0.1501
18247W        W34141   6.803   0.562  13.156 -0.3940  0.0728 -0.0231
18248W        W34142  12.758  18.028   5.547  0.0044  0.0731 -0.2188
18249W        W34143   2.139  16.398   0.774 -0.1170 -0.1396  0.1248
18250W        W34144   5.731   4.134   4.247  0.0809  0.2674 -0.2490
18251W        W34145   2.991   2.601  12.205 -0.0871 -0.0316 -0.2076
18252W        W34146  18.624   4.675   3.701  0.1811  0.0409 -0.0191
18253W        W34147  16.585   4.439  10.699  0.2052 -0.3457  0.1025
18254W        W34148   1.537  17.543   1.276  0.0764 -0.0888  0.2075
18255W        W34149  18.560  14.746   3.949 -0.0128 -0.0153 -0.4613
18256W        W34150   2.661   3.459  13.355  0.0119 -0.1476 -0.1185
18257W        W34151   3.041   6.346   0.755 -0.3187 -0.0270 -0.2484
18258W        W34152   8.256   4.270   0.293  0.0505  0.1121  0.3419
18259W        W34153   4.058   1.779  11.807 -0.2118 -0.2069  0.1965
18260W        W34154   0.853   0.619   2.882  0.0383 -0.0183  0.2415
18261W        W34155   0.714   3.694   0.202  0.0609  0.1296 -0.1305
18262W        W34156   8.780  11.633   0.121 -0.0435  0.3971 -0.0721
18263W        W34157  15.285   6.191  15.320  0.0977  0.1457  0.0174
18264W        W34158   3.634  18.657  11.189 -0.0032 -0.1906 -0.1631
18265W        W34159   3.209  10.522  12.438 -0.1615  0.0474  0.1261
18266W        W34160   8.682   9.188  12.253  0.2139  0.2883  0.0404
18267W        W34161  14.196  11.845  14.879  0.1247 -0.0102 -0.0353
18268W        W34162  14.455  14.627   4.569  0.1291 -0.1875  0.0211
18269W        W34163  11.490  16.079   5.847  0.0154 -0.1392  0.0596
18270W        W34164   4.994   9.569   1.015  0.0950  0.1996  0.1579
18271W        W34165   8.207   7.201   1.580 -0.1948  0.0261  0.1013
18272W        W34166  17.360  17.716  13.695  0.0985  0.3758 -0.2522
18273W        W34167  14.835  13.947  13.895  0.0009  0.2163  0.2127
18274W        W34168   8.100   8.263   9.929 -0.0286  0.5190  0.0658
18275W        W34169   9.047   8.421   0.188  0.1065  0.1064  0.0646
18276W        W34170  17.530  14.362  14.893  0.3089  0.1375 -0.2920
18277W        W34171  16.513  12.936   1.693 -0.1668  0.0228  0.0795
18278W        W34172  13.566   2.826   2.250  0.2583  0.0725 -0.2483
18279W        W34173   3.177   9.989   0.858  0.0235  0.1256 -0.4318
18280W        W34174  13.857  11.988  15.395  0.1086 -0.1092  0.0937
18281W        W34175   8.000  10.568  12.964 -0.0975 -0.0562 -0.3925
18282W        W34176   2.062   6.828  12.774 -0.0616 -0.3812  0.0619
18283W        W34177   4.658   6.491   3.581 -0.1826  0.0533 -0.0594
18284W        W34178  14.666   6.486   5.191 -0.0946 -0.1343 -0.0339
18285W        W34179   8.462  18.733   3.960 -0.0486  0.0436 -0.2655
18286W        W34180   8.107   9.107  14.795 -0.2590  0.0880  0.2065
18287W        W34181   6.674  12.789  12.244 -0.3690  0.2349  0.2364
18288W        W34182  12.830   8.804   2.980  0.2602 -0.1295 -0.4147
18289W        W34183  15.713  10.553   4.299  0.0461 -0.1103 -0.0402
18290W        W34184   9.009   1.721   4.769  0.1665 -0.0029 -0.0555
18291W        W34185  11.289   9.963   1.180 -0.1631 -0.1528  0.1356
18292W        W34186  16.903   3.782   4.390 -0.0355  0.1970 -0.0982
18293W        W34187  18.331   4.193   2.069  0.0396 -0.0262  0.0030
18294W        W34188  12.709  10.022  10.724  0.0827 -0.1707  0.1399
18295W        W34189  18.826   7.813  10.966 -0.0495  0.2189  0.0264
18296W        W34190  16.036   8.769  13.012  0.1561 -0.3202 -0.0730
18297W        W34191   8.533  15.339   2.175 -0.2144 -0.2833 -0.0238
18298W        W34192   3.214   6.809  15.012 -0.1181  0.0525 -0.1848
18299W        W34193  10.072   9.716   2.780 -0.1891  0.3659  0.1611
18300W        W34194   0.565  13.501   4.642 -0.0843  0.0971 -0.4108
18301W        W34195   5.300  10.198  15.313  0.0317 -0.1163 -0.0010
18302W        W34196  15.172  16.579  14.173  0.1139  0.1706  0.2252
18303W        W34197   0.964  16.373  14.530 -0.0380  0.1487  0.0734
18304W        W34198  13.763   4.410   0.729  0.0144 -0.2516  0.3626
18305W        W34199   4.081  10.225  13.122 -0.1442 -0.0641 -0.0557
18306W        W34200   2.988   0.069   1.937  0.2527  0.1074 -0.0114
18307W        W34201   5.211   5.471  13.712 -0.5363 -0.0216 -0.1323
18308W        W34202  12.575  10.116   6.006 -0.0903 -0.4759  0.0223
18309W        W34203   0.765  17.629   1.591  0.0253  0.0735  0.3155
18310W        W34204  13.780  10.476   4.200 -0.0974 -0.1865  0.2915
18311W        W34205   3.556   7.086   0.484  0.1532  0.0973  0.0870
18312W        W34206   2.530   4.481   2.140 -0.1879 -0.1233 -0.0406
18313W        W34207  18.293  11.222   1.758  0.3226 -0.0719 -0.1285
18314W        W34208   6.110   2.784  11.927  0.1027 -0.3132  0.1300
18315W        W34209   5.735  11.002   4.816 -0.1778 -0.2786 -0.1543
18316W        W34210  10.504  15.446   4.652  0.2709  0.0793  0.0250
18317W        W34211   2.757   8.795   1.317  0.0674 -0.0828 -0.1360
18318W        W34212  17.294  16.360  11.475  0.4461  0.3887  0.3574
18319W        W34213  16.702  14.711   2.943  0.1471  0.1470 -0.1703
18320W        W34214  16.384  10.295   0.460  0.0559 -0.2429  0.1069
18321W        W34215  15.632  18.513  15.064  0.2316 -0.0858  0.1386
18322W        W34216  13.992  10.427  14.401 -0.0650  0.0869 -0.3771
18323W        W34217   5.236  16.330  11.509  0.0717 -0.1415 -0.2245
18324W        W34218   4.582   9.970   0.269 -0.0993  0.0346  0.3892
18325W        W34219   3.601  13.434  13.637  0.0735 -0.2052 -0.1096
18326W        W34220   8.966  17.879   2.529  0.0780  0.2302 -0.0151
18327W        W34221   6.568   7.498  14.820  0.0783 -0.4508  0.2075
18328W        W34222   0.753   1.579  13.909 -0.1849 -0.1981 -0.1602
18329W        W34223  11.351  14.237   0.830 -0.0051 -0.2894  0.2554
18330W        W34224   1.273   6.801  10.291 -0.1317 -0.1673 -0.0459
18331W        W34225   2.676   5.834   2.991 -0.2244 -0.0743 -0.0063
18332W        W34226   1.604  14.201  13.081  0.0591 -0.4599 -0.0960
18333W        W34227  15.505   9.155  13.582 -0.0862 -0.1771 -0.0741
18334W        W34228   1.247  11.180  12.219  0.0179 -0.1318 -0.0024
18335W        W34229   8.750   3.688   4.994  0.1086 -0.0520  0.0706
18336W        W34230   5.214  16.457   0.250 -0.1283 -0.2054 -0.0506
18337W        W34231  10.972   8.017   5.082  0.0176 -0.3409 -0.0225
18338W        W34232   5.101  13.632   1.519 -0.1459 -0.4487 -0.0292
18339W        W34233  12.394   3.928  11.621  0.3180  0.0816 -0.0234
18340W        W34234   9.317   0.737   2.752 -0.0763  0.0758 -0.1114
18341W        W34235  18.720   6.550   1.046  0.3743 -0.2461 -0.2227
18342W        W34236   4.072  16.106  13.475  0.0726 -0.4155 -0.2448
18343W        W34237  16.643  13.490   4.140  0.1624 -0.0122 -0.0119
18344W        W34238  15.612   0.796  12.920  0.2538  0.0864  0.0008
18345W        W34239   7.484   1.657   0.821  0.3132 -0.1149  0.1182
18346W        W34240   8.361   2.537   2.829 -0.2745  0.1348  0.0047
18347W        W34241  14.513  12.280  12.043 -0.0368 -0.1521 -0.2476
18348W        W34242  12.237  13.405   3.212 -0.3147  0.1862 -0.1349
18349W        W34243   7.948   5.859   0.501 -0.2038 -0.2790  0.1042
18350W        W34244  12.773  15.068  12.695  0.3050  0.0552 -0.1184
18351W        W34245  17.022  13.835   0.834 -0.2343  0.0582  0.1708
18352W        W34246   4.238   4.465   1.745  0.5555 -0.1609 -0.0954
18353W        W34247  17.794  15.550  13.500  0.1371  0.0286 -0.2304
18354W        W34248  15.118  15.341   6.045 -0.2357 -0.0837 -0.0775
18355W        W34249   8.719   1.830   4.336 -0.1805 -0.0018  0.1543
18356W        W34250   2.849  13.814   5.213 -0.1197  0.0011 -0.0950
18357W        W34251   0.148   8.121  13.062  0.2190 -0.0611  0.0714
18358W        W34252   8.598  11.895  10.419  0.2660 -0.1132 -0.2568
18359W        W34253  15.754  14.230   1.906 -0.2952  0.0578 -0.2962
18360W        W34254  12.812  17.617   3.475 -0.4207  0.0486 -0.2306
18361W        W34255   6.641   1.303   2.082  0.0635 -0.3230 -0.1869
18362W        W34256   0.103  14.981  12.768 -0.0622 -0.0860 -0.0044
18363W        W34257   0.444  11.846  13.643  0.3895 -0.0787 -0.0811
18364W        W34258   0.938  18.466   0.451 -0.2406 -0.1967  0.0214
18365W        W34259   9.583  13.202  15.211  0.3613  0.2372  0.2022
18366W        W34260  18.380   7.231   0.243  0.2256  0.2049 -0.2056
18367W        W34261   8.791   7.315   3.608 -0.1050  0.2546 -0.1346
18368W        W34262   8.669   6.892   2.156 -0.0401  0.0695  0.1929
18369W        W34263  10.787   1.409   2.188 -0.0273 -0.1004  0.3783
18370W        W34264   2.702   8.516  14.601  0.1019  0.3974  0.3046
18371W        W34265  17.918  11.797   1.289 -0.0314 -0.2954  0.0739
18372W        W34266   7.635   5.468   0.656  0.1018 -0.0036 -0.0255
18373W        W34267   9.866   3.259   4.259  0.1056  0.1296 -0.2553
18374W        W34268   8.953   7.329   0.571 -0.0138  0.0375  0.2099
18375W        W34269   5.529   8.319  10.787 -0.1393  0.2098 -0.2548
18376W        W34270   2.932   2.213  10.232 -0.1411 -0.1881 -0.0708
18377W        W34271   7.663   0.909  13.224  0.4145  0.2304 -0.3399
18378W        W34272   3.211  17.911  14.789  0.3312  0.3042  0.1123
18379W        W34273  14.424  18.266   5.108  0.0614  0.2751 -0.1576
18380W        W34274   9.597   4.583   0.454  0.0346  0.0340 -0.2893
18381W        W34275   4.829   5.679  13.947 -0.1033  0.0622  0.0909
18382W        W34276   6.658   5.455  13.978 -0.1081 -0.1089 -0.1085
18383W        W34277  12.622  17.218   5.197  0.1720 -0.1025  0.2154
18384W        W34278  13.306   2.542  12.860 -0.4414  0.0941  0.3512
18385W        W34279  16.167   3.919   1.321  0.1850  0.1008  0.1497
18386W        W34280  11.778  11.075   1.327 -0.2417 -0.1643  0.0599
18387W        W34281  11.726  10.112  14.181  0.2313 -0.1986 -0.1325
18388W        W34282   3.233  17.273  13.467 -0.0165 -0.0170  0.1550
18389W        W34283  15.164  11.655  11.017 -0.1344 -0.0809  0.0115
18390W        W34284  14.240  10.817   5.439  0.0705  0.2134 -0.3066
18391W        W34285   0.468  13.041   4.591 -0.2005  0.0592  0.4008
18392W        W34286   0.884  17.449   0.627 -0.3738  0.1512 -0.1537
18393W        W34287  17.597  15.264   1.012  0.1913  0.1645  0.2175
18394W        W34288   9.781  14.665   2.380  0.1220  0.3176 -0.2317
18395W        W34289   8.977  17.558   4.943  0.0694  0.2281  0.0153
18396W        W34290   2.167   5.561   1.581  0.4882 -0.2188 -0.1175
18397W        W34291   0.252   7.739   1.041  0.0803 -0.0621 -0.0706
18398W        W34292   3.577  11.853   4.030  0.2301  0.0740 -0.1492
18399W        W34293   0.107  10.588   4.260  0.1829  0.0383  0.2098
18400W        W34294   8.541   3.245   5.168 -0.1134 -0.1479  0.1181
18401W        W34295   2.320  12.086  13.621  0.2334  0.0853 -0.0531
18402W        W34296   5.218  16.167   3.128 -0.0373  0.4885  0.1365
18403W        W34297  11.426   1.458  14.189  0.2316 -0.4168  0.2878
18404W        W34298   2.180   4.828  13.622 -0.0003  0.4167  0.1784
18405W        W34299   1.901   9.492  12.055  0.1173  0.0629 -0.3187
18406W        W34300   6.744   3.193   4.060  0.0021 -0.0989  0.1874
18407W        W34301   5.710  14.909   5.461  0.1763 -0.1257  0.2585
18408W        W34302  14.137  14.281   5.350 -0.0773  0.0202  0.0735
18409W        W34303   3.217   3.776  11.266 -0.0323  0.1298 -0.0453
18410W        W34304   1.183  10.042  13.913  0.0167 -0.0228 -0.1587
18411W        W34305   7.790   6.938   2.774  0.1099  0.0849 -0.1191
18412W        W34306   4.495   9.126  11.288 -0.1857  0.1450  0.1332
18413W        W34307   4.799   7.971  15.103 -0.0722  0.1418  0.0074
18414W        W34308  15.406   5.786   0.091 -0.1399 -0.2394  0.0144
18415W        W34309   8.364  14.447  12.042  0.0547  0.2037  0.1048
18416W        W34310  14.804   1.293  13.016 -0.1392 -0.1355 -0.1904
18417W        W34311  11.086   6.019   4.569 -0.1139 -0.1181 -0.4299
18418W        W34312   9.369  17.306   1.239 -0.2039 -0.0810 -0.3042
18419W        W34313  15.329  10.549   0.476  0.5834 -0.2465 -0.1229
18420W        W34314   1.119   0.476  14.995 -0.0211 -0.0563 -0.0405
18421W        W34315  10.760   1.495  11.930 -0.2184  0.3357 -0.3461
18422W        W34316   1.609   2.829   4.141  0.6097  0.0905 -0.2716
18423W        W34317   9.089   0.076   1.934  0.0764  0.1300  0.3157
18424W        W34318  14.997  11.225   3.026  0.0472 -0.0740  0.2852
18425W        W34319  18.821  12.440   4.773 -0.2820  0.2132  0.0360
18426W        W34320   6.200  10.177   5.321 -0.4262  0.0876 -0.1799
18427W        W34321   8.082  14.748   1.856 -0.2596  0.2395  0.0911
18428W        W34322  14.499  14.092   3.674  0.2861 -0.0924  0.2608
18429W        W34323   9.044   9.610   0.995 -0.3326  0.0521  0.0959
18430W        W34324   4.344  12.466  15.223 -0.2401 -0.3997  0.3921
18431W        W34325  15.794  15.969  12.678 -0.0289 -0.0516  0.2037
18432W        W34326  11.247   2.254   5.058 -0.0922  0.1311 -0.1611
18433W        W34327  15.821  13.435   0.177  0.1252  0.1344  0.2216
18434W        W34328   9.027  15.513   3.627  0.1823  0.0479  0.0717
18435W        W34329   2.416   2.614  10.005  0.2276  0.2489 -0.2333
18436W        W34330   6.523  17.909   1.321 -0.3568 -0.2625 -0.1003
18437W        W34331   1.890  18.716  12.931 -0.0013 -0.0524 -0.1883
18438W        W34332   2.166   0.393  14.838 -0.0028  0.0042 -0.1923
18439W        W34333   2.917  10.501  11.202 -0.2690 -0.0398 -0.2962
18440W        W34334  11.180  16.262  11.143  0.2980 -0.4192 -0.5039
18441W        W34335  18.821   3.082  11.433 -0.0100 -0.2413 -0.1974
18442W        W34336  15.912   7.183  13.268  0.1408  0.2149 -0.2272
18443W        W34337  18.341   3.557   1.035  0.0803  0.1015  0.5797
18444W        W34338   6.704  10.218   2.479  0.3134 -0.2981 -0.0399
18445W        W34339   5.408  11.480   4.687  0.0451  0.2589  0.0782
18446W        W34340   3.528   6.567   4.079  0.3126 -0.0045  0.0578
18447W        W34341  11.824   1.986   1.003  0.1560 -0.1771  0.0744
18448W        W34342  16.008  13.561   4.588 -0.0216 -0.0014  0.2471
18449W        W34343  13.862  12.378   0.212  0.2341  0.2388  0.1561
18450W        W34344   9.756   9.970  12.712  0.2170  0.0535  0.1222
18451W        W34345  12.558   3.725   3.015 -0.1616  0.0693 -0.0958
18452W        W34346   6.704   4.998   1.410  0.3580  0.0082 -0.0566
18453W        W34347  17.718   9.171  10.980  0.1194 -0.0391  0.3884
18454W        W34348   6.643  11.997  14.193  0.1018  0.2540  0.1137
18455W        W34349   8.999   2.216  15.102 -0.1595 -0.0682  0.0641
18456W        W34350   0.587  11.609   4.913  0.1083 -0.2719 -0.1214
18457W        W34351   8.869   8.536   3.746  0.2422 -0.2384 -0.1418
18458W        W34352   1.824  18.154  13.591  0.1034 -0.2342  0.0820
18459W        W34353   1.720   4.232   2.867 -0.0515  0.0175  0.4424
18460W        W34354   7.417   9.824   5.324 -0.1341  0.3603  0.0104
18461W        W34355  18.004  12.806   4.637  0.2388  0.0775  0.1571
18462W        W34356   8.620   9.436   1.232  0.1029  0.2577  0.1644
18463W        W34357   8.142   4.057  13.527 -0.1096 -0.0252 -0.3389
18464W        W34358   0.106   8.739  13.999 -0.0714  0.0815  0.4069
18465W        W34359   7.056  14.725  13.441  0.1504  0.1148 -0.0854
18466W        W34360   5.081  16.854   3.783 -0.0639 -0.2741  0.2644
18467W        W34361   1.964   3.502  14.981  0.1815 -0.0349  0.1977
18468W        W34362  12.703   0.293  15.466  0.0954 -0.1295 -0.0201
18469W        W34363   2.260   6.830  13.619 -0.2157 -0.1525  0.3526
18470W        W34364  16.729   3.136   5.139  0.0849  0.3487 -0.0298
18471W        W34365   1.895   3.017   1.625 -0.0145  0.1139 -0.0853
18472W        W34366   2.031   8.849   3.514 -0.1107 -0.1689 -0.1067
18473W        W34367   9.102   3.200   5.222 -0.0765 -0.1934  0.2767
18474W        W34368   0.649   8.180  13.118 -0.2902 -0.0924  0.0724
18475W        W34369  14.475   9.282  11.718  0.1262 -0.1912 -0.2493
18476W        W34370  13.286   4.947   4.575 -0.3170 -0.0674  0.1031
18477W        W34371  18.276   5.954  10.945 -0.0441  0.1456 -0.2149
18478W        W34372   7.412  12.007  15.249 -0.1292 -0.2966 -0.1059
18479W        W34373  10.879  10.835   1.580 -0.1581 -0.0202 -0.1859
18480W        W34374  10.174   3.452  12.669 -0.1652 -0.1342 -0.1689
18481W        W34375  18.242   1.892   0.434  0.0379  0.2837  0.2229
18482W        W34376   3.351  18.533  10.650 -0.1588  0.1932  0.0087
18483W        W34377   2.895  14.521  13.416 -0.2137 -0.0912  0.0550
18484W        W34378   8.404  13.827   1.689  0.1899 -0.1650 -0.0525
18485W        W34379  12.406   2.060   5.997  0.0288  0.0442  0.0206
18486W        W34380   9.359   7.282  14.405  0.2041  0.1255  0.0772
18487W        W34381   6.243  10.617   3.478  0.2342  0.1777  0.0076
18488W        W34382   7.313  10.080  12.987 -0.1125 -0.0116 -0.0686
18489W        W34383   9.394   7.226   4.491  0.2640  0.0870  0.1082
18490W        W34384  13.411   8.288  14.566  0.1945  0.3192 -0.2488
18491W        W34385  16.760  14.823  13.682  0.1694  0.2813  0.0892
18492W        W34386   2.094   7.325  15.062 -0.0144  0.1332 -0.1194
18493W        W34387  14.565  14.173   4.369 -0.2697 -0.1580  0.0051
18494W        W34388   3.896  17.390  14.874  0.1681 -0.0191 -0.2177
18495W        W34389  18.741   3.945   3.898  0.0192  0.0173  0.1126
18496W        W34390   1.018  10.965  13.900  0.1013  0.2946  0.2856
18497W        W34391   3.202  12.618   4.644  0.2179  0.0772 -0.0282
18498W        W34392  13.324  11.176  12.481 -0.1424  0.1200 -0.1429
18499W        W34393  14.317  17.128  14.910 -0.0110  0.0829  0.0881
18500W        W34394  15.119   9.718  10.508  0.0260 -0.0250 -0.0454
18501W        W34395   3.536   8.207   0.651 -0.0224 -0.2020 -0.3308
18502W        W34396  10.070  13.609  14.689 -0.1941 -0.1611 -0.1312
18503W        W34397   9.583  13.960  11.158  0.2781  0.4179  0.1765
18504W        W34398  10.673  17.291   3.907  0.1224  0.3487 -0.0161
18505W        W34399   3.122   6.900   4.062  0.0618  0.0390  0.3090
18506W        W34400   7.193  16.987   3.359  0.2211  0.1277  0.0350
18507W        W34401   7.024  14.193   1.020 -0.0964  0.1628  0.0369
18508W        W34402  10.613   3.770   4.524  0.1003  0.4668 -0.2006
18509W        W34403  11.444   5.827  14.427  0.1671  0.4500  0.1916
18510W        W34404   2.154   6.112   0.584  0.1732 -0.0324  0.0388
18511W        W34405   0.752   2.903   4.194  0.1099 -0.5165 -0.2739
18512W        W34406   3.212  14.857   4.352  0.2915  0.2896  0.0935
18513W        W34407  15.927   2.720  10.533 -0.0428  0.2606 -0.1161
18514W        W34408  12.803  12.803   2.963 -0.4898 -0.1100  0.0864
18515W        W34409   5.125  10.874   1.350  0.0450 -0.1539  0.0310
18516W        W34410   5.550  10.079  12.994 -0.0496 -0.2085  0.0855
18517W        W34411   6.373   1.740  11.145  0.1049  0.0395  0.2127
18518W        W34412  15.524   7.095  12.205  0.3434 -0.0328  0.0558
18519W        W34413  13.340   2.524   4.179 -0.0285 -0.2006  0.0808
18520W        W34414   0.922   9.480  10.950 -0.0270 -0.0697  0.1806
18521W        W34415   9.191  10.466   2.623  0.1040 -0.0620  0.1527
18522W        W34416   7.885  13.440   4.701 -0.2077  0.1849 -0.0294
18523W        W34417   4.823   8.521   1.214 -0.1353  0.0567  0.0703
18524W        W34418   9.140  15.925  12.553  0.1569 -0.1315  0.1188
18525W        W34419  16.808  14.032  12.082  0.1956 -0.0018 -0.1066
18526W        W34420  14.292   8.707   1.624 -0.3054 -0.1114  0.4103
18527W        W34421   2.622   3.792  14.495  0.0932  0.1214  0.1304
18528W        W34422   0.386  17.237  13.235  0.0733  0.0861 -0.4516
18529W        W34423  10.098  10.305  13.107  0.1337  0.0161 -0.0435
18530W        W34424   3.093   1.126   2.152  0.4135 -0.2561 -0.1037
18531W        W34425   7.407   2.965  11.533  0.0024  0.1315 -0.0189
18532W        W34426  13.621  15.091   1.433 -0.0675 -0.1724 -0.1857
18533W        W34427   0.397  17.923   5.522  0.0550 -0.0284  0.0803
18534W        W34428   2.439  11.516   0.534 -0.0729  0.0432 -0.0046
18535W        W34429   6.500  10.426   1.146 -0.1595  0.0483 -0.2476
18536W        W34430   1.941   3.859  13.883 -0.1484 -0.2035  0.0553
18537W        W34431  11.529   4.283   3.447  0.2551  0.1361 -0.0768
18538W        W34432   7.512   7.353   3.443  0.3329 -0.6367  0.1034
18539W        W34433  13.024   6.646  14.371  0.3329  0.2113  0.2473
18540W        W34434  13.335  18.364   1.791  0.1074  0.3865 -0.1279
18541W        W34435  16.770  15.759   2.571  0.3363 -0.0253 -0.2287
18542W        W34436   4.979   4.375   0.347  0.0350  0.1337  0.0272
18543W        W34437   2.244   5.179   4.345 -0.0395 -0.0202 -0.4237
18544W        W34438   3.475  18.008   4.842 -0.0533 -0.0160  0.3005
18545W        W34439  18.125   6.378  11.819 -0.0321  0.1962 -0.2567
18546W        W34440  13.378   8.905   0.835 -0.2777  0.1450  0.2121
18547W        W34441  13.526  14.468  10.361 -0.0543  0.0453 -0.4939
18548W        W34442  12.742   0.300   4.049  0.1365  0.1691 -0.3155
18549W        W34443  18.405  10.331   0.895 -0.2411  0.0451 -0.0710
18550W        W34444   9.148   9.765   2.023  0.0839  0.0758  0.1891
18551W        W34445  17.605  15.235  11.640  0.0601 -0.1270 -0.1413
18552W        W34446   6.652  10.844  12.476 -0.0745 -0.2743  0.3847
18553W        W34447   7.206   3.830  13.343 -0.0702 -0.0757 -0.1923
18554W        W34448   2.961  14.588  12.118 -0.1022 -0.0599  0.0894
18555W        W34449   9.213  15.844  11.202 -0.0611 -0.0400 -0.2118
18556W        W34450   3.395   4.826   4.330  0.1827 -0.1191 -0.3415
18557W        W34451   9.421   7.366  12.034  0.1738  0.2265  0.0308
18558W        W34452   1.332   3.949  13.794  0.0063  0.0116  0.2308
18559W        W34453   7.823   1.779  13.122 -0.0823 -0.1651 -0.1632
18560W        W34454   5.513   2.561  10.740  0.1857 -0.1383 -0.0470
18561W        W34455  16.599   2.174   2.791  0.3657 -0.1427  0.0163
18562W        W34456  13.689   6.878   4.035  0.0474  0.0186 -0.1639
18563W        W34457  17.163   2.555   0.564 -0.0390 -0.1076 -0.2591
18564W        W34458   1.299   5.122   4.363  0.0180  0.0126  0.0565
18565W        W34459  12.476  17.749  11.025  0.1461  0.1362 -0.3323
18566W        W34460   8.981   9.444   2.401  0.0212 -0.0838  0.2444
18567W        W34461   5.139  15.405   4.844 -0.1583 -0.4665 -0.2981
18568W        W34462  16.637   3.277  14.258  0.1663  0.2234  0.0020
18569W        W34463  11.541   7.378  13.109 -0.0766  0.1096  0.3198
18570W        W34464   0.344   7.462  12.473  0.2520 -0.0426  0.0171
18571W        W34465  12.666   0.384   3.132 -0.3700  0.0147 -0.1443
18572W        W34466   9.954  14.704   4.869  0.0004  0.1461  0.1638
18573W        W34467   3.810   3.344   2.906  0.0060  0.4877  0.1159
18574W        W34468  12.875  16.205   2.531 -0.0933  0.2413  0.1231
18575W        W34469  10.064   3.220  12.217 -0.0304 -0.0814 -0.0478
18576W        W34470  14.960   7.087  13.768  0.1621 -0.2019 -0.0343
18577W        W34471   5.308  10.705   0.250 -0.0422 -0.2071  0.1542
18578W        W34472   0.334   2.052   4.122 -0.0896 -0.0917 -0.1970
18579W        W34473  10.115   7.683   2.380  0.2708  0.1826  0.2577
18580W        W34474  14.769   3.680   9.647  0.1765 -0.1140 -0.0124
18581W        W34475   5.688   3.365   1.806 -0.2322  0.2859  0.1634
18582W        W34476   8.846   7.726  15.074  0.1280 -0.1818 -0.0248
18583W        W34477   4.527   8.538   2.289  0.2148 -0.3232 -0.1641
18584W        W34478  13.118   3.490   5.302 -0.0735  0.1260 -0.4000
18585W        W34479  10.636  15.992  12.701  0.3704  0.0853 -0.2645
18586W        W34480   0.915   4.379   9.449  0.1718  0.0840  0.0132
18587W        W34481  16.673  16.765  14.800 -0.0872 -0.4192 -0.2559
18588W        W34482   1.067  14.503  14.637 -0.2940  0.2245  0.1347
18589W        W34483   7.337   9.507   3.729 -0.0690  0.2189  0.0580
18590W        W34484   6.441   5.385  12.510 -0.7167  0.0616  0.2419
18591W        W34485   6.081   6.699  10.481  0.0336  0.3426 -0.1979
18592W        W34486  11.955  11.393   2.255  0.1822  0.0533  0.0013
18593W        W34487   5.104   0.442   5.041  0.0121 -0.0331  0.0363
18594W        W34488   9.400   5.403  11.402 -0.0306  0.4530  0.2512
18595W        W34489   1.207   6.957  12.581 -0.0597 -0.1718 -0.1582
18596W        W34490  18.451   4.834   1.810 -0.0888  0.2258  0.1557
18597W        W34491   1.242  17.493   5.814 -0.0243  0.4777 -0.1813
18598W        W34492   0.681   6.295  11.310 -0.1492  0.4430 -0.0317
18599W        W34493  12.710   5.174   2.739 -0.1830  0.3059 -0.0040
18600W        W34494   2.628  15.451  11.958 -0.2345 -0.2367  0.1574
18601W        W34495   4.908  17.312  14.707 -0.2310  0.0596 -0.3737
18602W        W34496  13.258  14.728   5.457  0.1718 -0.2218  0.2269
18603W        W34497   1.569   1.586  12.515 -0.2818 -0.1133 -0.1792
18604W        W34498   5.456  17.731  15.399  0.0759 -0.1406  0.2421
18605W        W34499   5.150   6.004  14.698  0.2014  0.3148  0.2728
18606W        W34500   9.048   1.791   1.863  0.0379  0.2313  0.1014
18607W        W34501   5.321   7.300   1.814  0.1318 -0.0690 -0.0081
18608W        W34502   3.793  18.334  13.467  0.0989  0.0444 -0.2203
18609W        W34503   5.006  15.106   3.582 -0.0044 -0.2289 -0.1622
18610W        W34504   0.435   6.996  10.888  0.1212 -0.2815  0.0695
18611W        W34505   8.136   0.762  11.466  0.2310 -0.4992 -0.3121
18612W        W34506   1.542  15.717  12.836 -0.0422  0.1070  0.2049
18613W        W34507   1.838   4.712   2.561  0.3139  0.0864 -0.1162
18614W        W34508  18.369  12.132  11.743  0.0689 -0.1520 -0.0906
18615W        W34509   6.110  16.438  13.932 -0.4456 -0.2006 -0.2167
18616W        W34510   0.935  16.701   3.765  0.3238 -0.0595 -0.0175
18617W        W34511  10.970   7.134   3.605 -0.1054 -0.0041 -0.1142
18618W        W34512   4.252   6.114   0.615  0.1983 -0.2440 -0.0875
18619W        W34513   5.436  16.388  13.396 -0.0819 -0.0629  0.0600
18620W        W34514  11.077   1.748  12.683 -0.1343  0.0953  0.0901
18621W        W34515  13.523   7.126  12.182  0.2668 -0.0952  0.2532
18622W        W34516   4.629   8.128  11.198  0.3648 -0.3643 -0.2638
18623W        W34517  10.997   4.178   2.522  0.1280  0.1172 -0.0889
18624W        W34518   5.793   6.921   4.107  0.2118  0.1792  0.0814
18625W        W34519  17.708   3.712  14.382 -0.2925  0.0938 -0.1286
18626W        W34520  10.423   0.639  12.256  0.2307  0.2083 -0.2115
18627W        W34521   2.312   7.870   3.450  0.0055 -0.3491  0.1041
18628W        W34522   3.277  18.801   0.576 -0.0461  0.0758  0.1123
18629W        W34523   2.695   5.432   4.254 -0.4977  0.1537 -0.2155
18630W        W34524   4.777   5.157   3.355  0.1488 -0.2057  0.0201
18631W        W34525  12.849   1.291   1.961  0.0813  0.2505 -0.0789
18632W        W34526  17.926   8.828  14.353 -0.0494  0.2553 -0.0489
18633W        W34527   2.587   6.540   0.605 -0.0352  0.0469  0.1480
18634W        W34528  12.980  13.787   3.208  0.2652 -0.2373 -0.0930
18635W        W34529   1.060  10.578  13.564  0.2177  0.0281  0.0693
18636W        W34530  18.003  11.376  10.863 -0.1126  0.3625  0.1188
18637W        W34531  10.334  10.775   1.738  0.0210 -0.0549  0.0518
18638W        W34532  17.371  18.469   2.742 -0.0638 -0.0100  0.3273
18639W        W34533  12.541   0.700  15.062 -0.1856  0.3198 -0.1310
18640W        W34534  15.119  16.297   3.272 -0.0058  0.1412  0.0299
18641W        W34535  14.876   1.326   3.651 -0.0682  0.0104 -0.0207
18642W        W34536   9.883   2.250  13.859 -0.5533  0.2164  0.2559
18643W        W34537  10.035  12.583   3.700  0.1777  0.0442 -0.2627
18644W        W34538   9.409  13.739  13.938  0.1549 -0.2559 -0.1592
18645W        W34539   7.994  12.108   5.272  0.1326 -0.1296  0.0019
18646W        W34540   3.093  14.037   2.391 -0.0560 -0.0970  0.2064
18647W        W34541   9.868  10.536  10.924 -0.0693  0.3364 -0.1184
18648W        W34542  12.085   5.587  12.963 -0.1152 -0.0464 -0.0732
18649W        W34543   0.293  14.564   2.372  0.0754 -0.0660 -0.1192
18650W        W34544   7.059   0.055   4.943  0.0899  0.0379 -0.0197
18651W        W34545  11.217   4.419   0.239  0.0009 -0.2745  0.0304
18652W        W34546  11.331   8.396   0.832 -0.1255 -0.2055  0.0921
18653W        W34547   7.341   7.987  12.740 -0.1950  0.2606  0.1406
18654W        W34548   4.680  15.408  14.527  0.3811  0.1980 -0.0532
18655W        W34549  16.228   8.855  11.319  0.1782  0.1301 -0.2907
18656W        W34550   4.999   2.591  14.843 -0.0607 -0.3917  0.1619
18657W        W34551  18.292  13.064  14.388 -0.2799 -0.0234  0.2948
18658W        W34552  15.546   8.858   2.563 -0.0361 -0.0921  0.1321
18659W        W34553   1.602   8.645  10.996 -0.3878 -0.2268  0.3874
18660W        W34554  15.107  17.072  11.779 -0.1213 -0.0441 -0.1194
18661W        W34555   9.750   9.694   4.934  0.0567 -0.0778  0.2490
18662W        W34556   0.563  12.252  10.862 -0.0904 -0.0749  0.2834
18663W        W34557   5.202   9.712  13.416 -0.2202 -0.1954  0.0924
18664W        W34558  15.142   3.579   2.716 -0.5900 -0.2356 -0.0456
18665W        W34559  14.521   7.679  11.560  0.1322 -0.2304  0.1380
18666W        W34560  17.497  17.308   0.308 -0.1278  0.1889 -0.0402
18667W        W34561   8.490   0.760  11.157 -0.2704 -0.0452  0.2569
18668W        W34562  18.747   7.929   0.811 -0.2344 -0.0457  0.1253
18669W        W34563  15.063   2.814  15.014 -0.2238  0.1059 -0.1525
18670W        W34564   3.608   6.766  12.653 -0.0141  0.0148  0.1126
18671W        W34565   4.264   1.279  10.121  0.0264  0.1863  0.0807
18672W        W34566  17.810   6.034  10.566 -0.0630  0.2561  0.0765
18673W        W34567  12.779   8.413   2.147 -0.2191  0.0819  0.4498
18674W        W34568   5.015  18.476   3.034  0.4244 -0.0366  0.1806
18675W        W34569  18.479   0.216  11.547 -0.1231 -0.4092  0.0693
18676W        W34570   0.803   3.091   3.376  0.0794  0.1373 -0.0835
18677W        W34571  14.452  15.914   3.924 -0.2184 -0.2578 -0.1373
18678W        W34572   2.427  18.332   1.292  0.3156  0.1635  0.0715
18679W        W34573  12.059   6.427  13.100 -0.0659 -0.1064 -0.4009
18680W        W34574  17.110   7.762   0.781 -0.0435 -0.0711 -0.2365
18681W        W34575   3.191  18.589   3.000  0.1900 -0.0870  0.2252
18682W        W34576  14.143  17.694  11.876  0.1378  0.0343 -0.3841
18683W        W34577  15.840   3.064  11.506  0.0921  0.1984  0.2372
18684W        W34578   8.225  17.844   4.444  0.1263 -0.0816 -0.1617
18685W        W34579   8.422  13.682  12.944  0.1278 -0.2518  0.0160
18686W        W34580   9.055  12.331   1.240  0.0384 -0.0133  0.0479
18687W        W34581   5.742  10.309   0.158  0.1530 -0.2764  0.1762
18688W        W34582   4.731   9.788   3.120  0.0363 -0.1959 -0.0493
18689W        W34583   1.680   7.003  13.717 -0.0435  0.0176  0.0689
18690W        W34584   5.151   4.688   9.908 -0.0680 -0.0786  0.1306
18691W        W34585   8.415   3.517  13.403 -0.3376  0.0260  0.3235
18692W        W34586   8.515  14.567   2.470  0.0710  0.2595  0.0438
18693W        W34587   7.298  14.020  12.362 -0.2241 -0.0677  0.1322
18694W        W34588   3.764  18.287  14.478 -0.0208  0.0887 -0.1577
18695W        W34589   2.220   4.312   4.690  0.2606 -0.1464  0.0105
18696W        W34590  10.010  17.846   4.151  0.0271 -0.0773 -0.1574
18697W        W34591  10.661   5.353   4.172  0.2221  0.0679 -0.1205
18698W        W34592   0.447  15.538   0.622 -0.2193  0.0993  0.3971
18699W        W34593   4.314   2.665  14.717 -0.1649 -0.0106  0.1117
18700W        W34594   7.766   7.036   1.278 -0.3198 -0.1238  0.3445
18701W        W34595   9.399  10.762  10.818 -0.1338  0.0791  0.0756
18702W        W34596   3.726   4.346   0.994 -0.2963  0.0706 -0.3763
18703W        W34597  18.121   4.690   2.658 -0.2119 -0.1577 -0.2776
18704W        W34598   2.156   7.418   0.097  0.0601 -0.0335  0.1296
18705W        W34599  12.421  13.353  12.752 -0.0368  0.0721 -0.0307
18706W        W34600  17.034  15.739  13.752 -0.1529 -0.3334 -0.0369
18707W        W34601   3.985  12.984   4.276 -0.1102  0.4297 -0.1087
18708W        W34602  12.190   2.573   3.519  0.1279 -0.2920 -0.5373
18709W        W34603  13.998  10.964   4.231  0.1782  0.0426 -0.2600
18710W        W34604  14.411  17.572   4.313  0.3401  0.1424 -0.0944
18711W        W34605  11.272   6.074   0.345  0.1142  0.0231 -0.0118
18712W        W34606  14.793   7.282   5.094  0.0074 -0.0665 -0.1128
18713W        W34607   3.530  16.073   5.047  0.2953  0.0749  0.2185
18714W        W34608   1.616  17.371   4.004  0.1346 -0.2291 -0.0206
18715W        W34609  13.550   7.181   4.549 -0.1858 -0.0414  0.0513
18716W        W34610   4.023   0.263   4.164  0.0297 -0.4514 -0.2046
18717W        W34611  13.778   1.382   2.893  0.0985  0.0549 -0.0314
18718W        W34612   4.121  12.375  13.935  0.0634 -0.1385 -0.0565
18719W        W34613   4.526   8.242   5.160 -0.0450  0.2085 -0.1645
18720W        W34614   9.693   1.637  14.990 -0.3731  0.2203 -0.0998
18721W        W34615  17.858  15.532   4.743 -0.0756 -0.0133 -0.2749
18722W        W34616  13.723  15.137   2.839  0.1914  0.1107 -0.0555
18723W        W34617   8.134   9.019  11.708  0.0969  0.0848  0.1705
18724W        W34618   2.137   7.058   2.396  0.2376 -0.0202 -0.0771
18725W        W34619   8.096   7.777  13.193  0.0687 -0.3043  0.1200
18726W        W34620   2.488   0.632  11.645 -0.0717 -0.0781  0.0344
18727W        W34621  17.120  15.153   1.490  0.3745 -0.0560  0.1199
18728W        W34622   6.946   6.954  11.153  0.0375  0.1739  0.3244
18729W        W34623  12.057  15.992  12.221  0.0660  0.2278 -0.1886
18730W        W34624  13.390   1.140   0.910 -0.1251 -0.0721 -0.1335
18731W        W34625   9.606   8.958   0.893  0.0767 -0.0754  0.0398
18732W        W34626  13.861  11.607   0.685 -0.0231 -0.1128 -0.1749
18733W        W34627  13.603   3.861  15.189 -0.0497 -0.1450 -0.2351
18734W        W34628   1.158   2.890  15.373  0.5014 -0.1735 -0.4258
18735W        W34629  11.070   3.036  13.579 -0.1970 -0.0775  0.1145
18736W        W34630   9.960   1.238   0.905  0.0497 -0.1528 -0.0257
18737W        W34631   9.628   3.004   3.328 -0.1330 -0.1102  0.1045
18738W        W34632   6.262   3.060   0.612  0.1036  0.0452  0.0680
18739W        W34633  11.957   6.545   0.042 -0.2206  0.2715 -0.2662
18740W        W34634  15.982   7.406  12.053 -0.3196 -0.2222 -0.0589
18741W        W34635   9.634   1.264   2.985  0.2300 -0.0165  0.2131
18742W        W34636   1.654  17.599   2.821 -0.2080  0.1522  0.0757
18743W        W34637   6.325  13.453   0.062  0.0447  0.0960 -0.2831
18744W        W34638   9.671  15.147  14.080  0.3803 -0.0296 -0.0998
18745W        W34639   2.571   2.160   9.856  0.0751 -0.0124 -0.1316
18746W        W34640  18.305   1.577  15.148  0.2577 -0.0135  0.0599
18747W        W34641  12.660   3.109  15.361  0.1074 -0.0835  0.0704
18748W        W34642  16.592   8.871   4.433  0.1568 -0.1610 -0.1008
18749W        W34643  11.469   6.987  14.895 -0.1215  0.6018 -0.2121
18750W        W34644   2.761  18.779  12.372  0.1208  0.2959 -0.2276
18751W        W34645  16.764  18.851   4.482  0.1421 -0.0246 -0.3633
18752W        W34646  15.842   0.795   3.633 -0.1504 -0.2468  0.1113
18753W        W34647   8.574  15.725   3.410 -0.1412 -0.0569 -0.1350
18754W        W34648   6.075  14.629  14.142 -0.2637  0.2782  0.1842
18755W        W34649   0.588  16.506   1.265 -0.2271 -0.1407  0.0443
18756W        W34650   6.439  15.767   3.361 -0.1495  0.0276 -0.2787
18757W        W34651  18.416  12.235  10.385  0.0241  0.0053  0.0307
18758W        W34652   5.760  10.288   1.717 -0.0420  0.0384  0.2234
18759W        W34653   2.485  15.754   3.634  0.0884 -0.2393 -0.1743
18760W        W34654  10.912   7.718   3.596 -0.2584 -0.2255  0.0969
18761W        W34655  16.793   2.845   0.592  0.1802 -0.2038 -0.1874
18762W        W34656  18.424   7.599   3.060  0.2026 -0.2049 -0.0500
18763W        W34657   3.761   5.932   1.792 -0.0018 -0.2699  0.5462
18764W        W34658  14.185  18.437  14.755 -0.0887 -0.0521  0.1096
18765W        W34659   0.235   1.200  12.301 -0.2315 -0.1837 -0.0032
18766W        W34660   3.739  13.137  11.248 -0.1316  0.3643  0.0245
18767W        W34661  12.246   7.360   4.045 -0.1528  0.1230 -0.2269
18768W        W34662  15.071  17.098   4.901  0.1367 -0.1503  0.1357
18769W        W34663   4.549   0.882  10.730  0.1192 -0.1271 -0.0090
18770W        W34664   0.232  14.804   1.860 -0.0277  0.1229  0.2120
18771W        W34665   6.020  16.580   2.713 -0.1903 -0.2465 -0.0481
18772W        W34666  18.734  14.538   5.326 -0.1233  0.2318  0.1481
18773W        W34667  16.934   2.365   5.069  0.4457  0.0698  0.0605
18774W        W34668   0.034   6.222   2.393  0.0429  0.3503  0.2958
18775W        W34669   1.929   9.772   5.137  0.2553  0.3736  0.0256
18776W        W34670   8.730  16.144  15.158  0.1876  0.0419 -0.3924
18777W        W34671   1.070   9.812  14.383 -0.3472  0.4910 -0.0656
18778W        W34672  18.835   8.166   2.203 -0.0447  0.1222  0.2006
18779W        W34673   0.730   0.548   3.710 -0.2091 -0.2387 -0.2328
18780W        W34674   1.136  14.841  13.125  0.2450  0.1268  0.1220
18781W        W34675  16.994   1.308  11.994 -0.0808 -0.0265  0.2094
18782W        W34676   9.705   9.746  11.477  0.1632 -0.3652  0.0553
18783W        W34677  10.072  15.621   1.237 -0.1229 -0.1224 -0.1089
18784W        W34678   7.013  18.502   1.140  0.0982  0.2190 -0.1177
18785W        W34679   3.927  15.866   2.202 -0.0931 -0.1470 -0.0576
18786W        W34680   2.954   5.232  11.849  0.0302 -0.4072 -0.1956
18787W        W34681  13.619   3.614  13.397  0.0402  0.2887  0.1406
18788W        W34682  10.563  17.975  13.550 -0.1063  0.1478 -0.0177
18789W        W34683  15.802  17.854  14.374 -0.1368  0.0578  0.4243
18790W        W34684  12.035  17.840  13.149 -0.4194 -0.1297 -0.0569
18791W        W34685  14.649   9.758  14.111  0.1536  0.2181  0.1294
18792W        W34686   8.065  10.727   1.928  0.0594 -0.2541 -0.0528
18793W        W34687  13.012   8.726   1.709 -0.1270  0.2058  0.2102
18794W        W34688   9.978   3.628   3.766 -0.0154  0.1765  0.1271
18795W        W34689   6.006  10.385   1.296  0.1617  0.1578 -0.3138
18796W        W34690  13.769   8.634   1.626  0.1667 -0.0259 -0.2569
18797W        W34691  15.734   8.906   5.220  0.2086  0.0721 -0.3902
18798W        W34692   5.232   3.521   5.946 -0.1476  0.0058 -0.0157
18799W        W34693  17.363  12.611  15.339 -0.1293  0.2895 -0.1167
18800W        W34694   3.039   4.623  11.094  0.2978  0.2209 -0.0840
18801W        W34695  12.678   5.691  12.186 -0.1101  0.1529  0.0696
18802W        W34696   8.221   2.647   4.091 -0.1504 -0.1511  0.3131
18803W        W34697  15.613  16.072   3.428  0.0710 -0.2363 -0.1382
18804W        W34698  11.379   0.974   3.058  0.1123 -0.2071  0.0300
18805W        W34699   3.079   3.722  15.007 -0.0590 -0.0280  0.0023
18806W        W34700  12.737   5.488   1.988 -0.2011  0.0719  0.1087
18807W        W34701   2.115  14.819  12.913  0.0970  0.2971 -0.0632
18808W        W34702   9.977  12.481   2.211  0.0993 -0.0055  0.0753
18809W        W34703  18.717  10.288   2.725 -0.1370  0.0330  0.0743
18810W        W34704  11.159   8.530  13.874  0.2575 -0.2262  0.3104
18811W        W34705   4.080  14.424  11.647 -0.2617  0.3207  0.2245
18812W        W34706  10.525   2.684   1.300 -0.2395 -0.0751  0.2596
18813W        W34707  11.522   7.713   0.380  0.2085 -0.0124  0.3072
18814W        W34708   6.010  17.575  10.757  0.1246 -0.1434 -0.0209
18815W        W34709  17.829   6.279   4.349  0.1844 -0.3591 -0.2074
18816W        W34710   6.811   2.608  15.343 -0.3483 -0.2260 -0.0288
18817W        W34711   8.659   0.093   3.325 -0.0077  0.0671 -0.1926
18818W        W34712  17.018  17.925  14.077 -0.0288 -0.1967  0.1644
18819W        W34713   3.997  15.165  13.893  0.0151 -0.2293  0.2509
18820W        W34714  16.474   3.035  12.802  0.1476  0.2864 -0.1850
18821W        W34715   3.544   2.166  14.629  0.1270 -0.3011  0.2298
18822W        W34716  14.186   4.411   2.238  0.0723 -0.1910 -0.0404
18823W        W34717   4.394  17.546   5.479 -0.1788  0.1138  0.1857
18824W        W34718   4.303   0.044   2.638  0.0043 -0.0773  0.0554
18825W        W34719   4.757  15.813  13.274 -0.1285 -0.3543 -0.0655
18826W        W34720   4.675  17.162   1.331  0.1864 -0.0426 -0.0336
18827W        W34721  18.329  18.173   1.085 -0.0533  0.1739 -0.0083
18828W        W34722  12.065  12.982  13.972  0.3662 -0.5046 -0.0480
18829W        W34723  10.816   3.615   0.069 -0.1079 -0.0315 -0.0534
18830W        W34724   8.408  16.586  14.291 -0.3168  0.0177 -0.2245
18831W        W34725  16.327   2.462   1.997  0.1680 -0.3807  0.0645
18832W        W34726  12.925   6.470   4.511  0.0792 -0.1841 -0.0607
18833W        W34727   5.630  15.295   3.087 -0.2082  0.0209 -0.0099
18834W        W34728  11.773  15.153   9.882  0.1328  0.0395  0.1544
18835W        W34729  12.957   2.064  13.524  0.0020 -0.0054  0.0994
18836W        W34730   4.977  15.024  14.404  0.1804  0.0616 -0.4063
18837W        W34731  16.649   7.294   0.357  0.3050 -0.0435 -0.3487
18838W        W34732  15.550   2.604  12.868 -0.0703  0.0524  0.0854
18839W        W34733   4.671  11.497   5.329 -0.4014 -0.0725 -0.1282
18840W        W34734  13.643   5.719   0.890 -0.0606  0.2809 -0.0934
18841W        W34735  16.201   8.844  14.516  0.1141 -0.0111  0.0994
18842W        W34736   9.392   0.318   3.273 -0.1900  0.0453  0.3600
18843W        W34737   2.652   2.582   4.520  0.2721 -0.1329 -0.0161
18844W        W34738   0.854   8.508  11.723  0.1010  0.1073 -0.0796
18845W        W34739   3.350   2.651   1.998  0.3870 -0.1566  0.0308
18846W        W34740   4.835   8.664  13.242  0.1625 -0.2551 -0.0585
18847W        W34741   8.006  17.753   3.041  0.0873  0.1845  0.2513
18848W        W34742   9.848   8.119  14.712 -0.3254 -0.3069 -0.3456
18849W        W34743   3.051  11.608  15.237  0.0341 -0.3120  0.3492
18850W        W34744   7.971  11.948   4.732 -0.1859  0.0994 -0.2735
18851W        W34745  11.789   4.872   3.888 -0.0845  0.0959 -0.0277
18852W        W34746  13.507  10.550  11.726  0.3152 -0.2932  0.0327
18853W        W34747  18.319  15.392   3.108 -0.1318  0.0167 -0.1647
18854W        W34748  10.395   9.297  14.979 -0.0029  0.2096 -0.3976
18855W        W34749   5.369  10.561   3.029  0.5122 -0.0515 -0.0751
18856W        W34750   1.796  13.907  12.050 -0.0843 -0.1427 -0.1796
18857W        W34751  11.299   3.163  14.999  0.3309 -0.1920  0.1325
18858W        W34752  18.512  15.841   0.711  0.0467 -0.1553 -0.1784
18859W        W34753   0.706   9.779   4.287 -0.0642 -0.0651  0.3198
18860W        W34754   7.342  17.923   2.315  0.0969 -0.2437  0.1685
18861W        W34755   9.001   7.961  14.231  0.0284 -0.4617  0.3271
18862W        W34756  13.717  13.693   4.658  0.1974  0.1528 -0.2899
18863W        W34757  13.941  18.545   0.617 -0.1500 -0.1024  0.0111
18864W        W34758   4.467  15.216   4.326  0.2969 -0.3453  0.0465
18865W        W34759  18.549  16.063  14.035 -0.3549 -0.4802 -0.0359
18866W        W34760   6.771  10.126  11.736  0.2201  0.2447 -0.2339
18867W        W34761  16.750  16.814  12.850 -0.2188 -0.1385  0.0867
18868W        W34762   7.626   9.989  12.307  0.2473  0.0023  0.2814
18869W        W34763   9.465  15.827   0.314  0.0607 -0.0870 -0.0211
18870W        W34764   8.451  13.340   1.727  0.2221 -0.3985  0.2169
18871W        W34765  17.662  15.501   2.309 -0.1227  0.0014 -0.2234
18872W        W34766  10.784  14.911   3.618 -0.0155  0.0862 -0.0236
18873W        W34767   2.569  12.460   2.141 -0.1890  0.0271 -0.2044
18874W        W34768   9.552   8.797   1.971 -0.1959  0.2325 -0.2380
18875W        W34769   2.840   6.759   2.731 -0.1598  0.3315  0.0917
18876W        W34770   1.385  14.822  10.424 -0.1472  0.1976  0.3323
18877W        W34771  13.770   3.071  11.318 -0.1478 -0.0397  0.0580
18878W        W34772   1.933  12.547  12.899  0.0695 -0.0778 -0.1448
18879W        W34773   4.057  15.249   4.052  0.0820 -0.2213  0.2484
18880W        W34774  12.997  10.568   0.397 -0.0868 -0.1607  0.1303
18881W        W34775  16.052  10.462   0.977  0.0573 -0.1867 -0.0506
18882W        W34776   8.502  17.687   3.248 -0.0807  0.2407  0.0075
18883W        W34777   1.123  11.975   2.082  0.1782 -0.0295 -0.1174
18884W        W34778  14.810   2.456  14.310  0.1569 -0.1704  0.3844
18885W        W34779  10.425   7.688  15.143  0.2219  0.0075 -0.3141
18886W        W34780   9.943  11.521  14.479 -0.1680 -0.0621 -0.1767
18887W        W34781   0.397  14.293   3.345 -0.2725 -0.1591  0.3167
18888W        W34782  13.773   6.278   4.892  0.0639  0.2188 -0.0809
18889W        W34783  17.845  10.427   5.085  0.2318  0.0318 -0.0309
18890W        W34784   6.934   3.228   0.574  0.1948 -0.2617 -0.1629
18891W        W34785  15.746   2.459   1.060  0.3116  0.2987  0.2332
18892W        W34786   4.827   6.415   1.907  0.2410  0.4399 -0.0116
18893W        W34787  15.257  16.074  12.520 -0.0538 -0.1091 -0.1424
18894W        W34788  17.597   3.084  12.871  0.0287 -0.2024  0.1461
18895W        W34789  14.750  16.311  14.061 -0.1330 -0.0289 -0.1999
18896W        W34790  17.181  16.550   1.357 -0.1575  0.1204  0.0710
18897W        W34791   3.745  16.432  15.161  0.2460  0.0323  0.0645
18898W        W34792   7.650   3.741   0.281 -0.0167 -0.0209  0.2152
18899W        W34793   0.835   8.290  10.598  0.0140  0.2479  0.2996
18900W        W34794   8.117   7.533  11.448 -0.1054  0.0327  0.1542
18901W        W34795   5.965  15.839   3.403  0.1906  0.1317  0.1279
18902W        W34796   0.613   1.297  12.622 -0.0148  0.2235 -0.0974
18903W        W34797  13.433   9.842   0.342 -0.2874 -0.1607  0.2650
18904W        W34798   1.031  17.265  14.459  0.0085  0.1786  0.1633
18905W        W34799   5.970  18.286  14.884  0.1348  0.0245  0.0821
18906W        W34800   9.920   3.702  12.991  0.0806  0.0315 -0.1880
18907W        W34801  18.399  15.973  10.741 -0.0459  0.0225 -0.0745
18908W        W34802   2.708  18.847   1.428  0.1060  0.2220 -0.3279
18909W        W34803   3.754   9.849   0.496 -0.0723 -0.1615  0.1711
18910W        W34804  17.966  17.583  11.158 -0.0776  0.0110  0.3034
18911W        W34805  13.381   3.566   0.180 -0.1132  0.0605 -0.1416
18912W        W34806  11.914   1.764   2.904 -0.1826 -0.1294  0.0045
18913W        W34807   9.226  13.483  12.724  0.2115  0.0728 -0.3234
18914W        W34808  10.797  11.368   2.957  0.0195 -0.1394 -0.0354
18915W        W34809   7.720   4.978   5.505  0.0232 -0.1370  0.1883
18916W        W34810  15.540  16.958   5.571 -0.2302 -0.1282  0.4210
18917W        W34811   5.120  14.966   2.648  0.3502  0.2308  0.1966
18918W        W34812   3.566  14.001   2.149  0.0664  0.4234 -0.5751
18919W        W34813   7.678   2.935  14.928  0.3657  0.2352 -0.3547
18920W        W34814   9.516   4.469   4.899 -0.0966  0.0296  0.1798
18921W        W34815  14.909   1.891   1.442 -0.1625  0.2550  0.0548
18922W        W34816   6.063   7.667   1.439  0.0575  0.1128 -0.1752
18923W        W34817  16.330   7.434  11.568 -0.2918  0.2158  0.0014
18924W        W34818   6.911   1.457   4.699 -0.1696  0.1523  0.2033
18925W        W34819   1.431   8.045  15.108 -0.0034  0.3804 -0.1144
18926W        W34820   4.693  11.320   0.129 -0.2258  0.0756  0.1390
18927W        W34821   0.832  10.226   2.999  0.2630 -0.0087 -0.0517
18928W        W34822   6.868  14.589  14.015 -0.0973  0.0694 -0.0699
18929W        W34823  10.356  15.565   3.738  0.2336  0.2253  0.2075
18930W        W34824  18.786  13.217  15.333  0.2664  0.3208 -0.0283
18931W        W34825   1.932  17.897  11.777 -0.0954  0.3514 -0.1904
18932W        W34826   6.477   6.011   3.459 -0.1186  0.4436 -0.2249
18933W        W34827   0.482   6.529  12.069  0.1416  0.0914  0.2636
18934W        W34828  12.069  15.458  10.265  0.1957  0.0319 -0.0635
18935W        W34829   2.714   9.900  10.999  0.0347 -0.0081 -0.0956
18936W        W34830   6.549  17.757  13.596  0.0687 -0.0945  0.1082
18937W        W34831  17.759   2.656   1.031 -0.0821  0.1446 -0.2486
18938W        W34832   5.445   5.638   1.811  0.1035 -0.2012 -0.1086
18939W        W34833  10.932  10.102   4.344 -0.0156 -0.0695 -0.0118
18940W        W34834  16.326  13.326  10.234  0.0540  0.3259  0.2036
18941W        W34835  16.567  13.263   0.766  0.0913  0.1293 -0.1765
18942W        W34836   2.646  11.921  15.112  0.1680 -0.1329 -0.3013
18943W        W34837   8.359  18.723  13.139 -0.1283  0.1521 -0.2534
18944W        W34838  16.007  16.429  12.583  0.2664 -0.4104  0.3294
18945W        W34839   6.585  11.956   3.949 -0.0993  0.0819  0.0994
18946W        W34840   0.953  10.203  13.065  0.0429 -0.1663  0.0579
18947W        W34841  17.778  13.995  14.114  0.0611 -0.1078 -0.0516
18948W        W34842   8.124  12.610  10.926 -0.1143 -0.2322  0.0372
18949W        W34843  12.557  10.921  14.785 -0.0131 -0.1957  0.0777
18950W        W34844   3.681  14.628   4.601  0.1244  0.1590  0.1595
18951W        W34845   7.327   7.024  14.984 -0.0284 -0.1710 -0.0032
18952W        W34846   8.058   3.534  11.368  0.1465  0.1294 -0.0254
18953W        W34847  18.303  18.127  12.505 -0.3132  0.1048  0.0063
18954W        W34848   2.157   8.223   4.142 -0.3515  0.2493  0.0996
18955W        W34849  12.480   0.010  13.724  0.1434 -0.2024  0.3543
18956W        W34850   1.027  11.484  14.005  0.3238  0.1651  0.1490
18957W        W34851   9.221  13.281   2.775 -0.1119 -0.3122 -0.4020
18958W        W34852   3.947  16.905   4.733 -0.1648  0.4236  0.2815
18959W        W34853  10.177  10.809  13.402  0.1622 -0.2602 -0.2475
18960W        W34854  12.407   4.279   1.128  0.1525 -0.0650  0.1289
18961W        W34855   6.701   6.245   3.089  0.0441  0.0643 -0.1253
18962W        W34856   0.415  11.202  14.763 -0.2422 -0.2973 -0.1167
18963W        W34857   1.063  13.867   0.965  0.1922 -0.0489  0.2939
18964W        W34858   4.605   9.165   5.229 -0.0033  0.4455  0.3754
18965W        W34859   6.297   8.548   2.691 -0.2919  0.0714 -0.0249
18966W        W34860   5.586   2.192   2.940  0.1154  0.0618 -0.1405
18967W        W34861   9.324  16.280  11.009 -0.1698 -0.0961  0.0175
18968W        W34862   0.034  16.349   3.797  0.3436 -0.2069 -0.0053
18969W        W34863  10.890  13.477   0.327 -0.1526  0.0322 -0.0458
18970W        W34864  10.958   6.095   0.778 -0.2603  0.3473  0.1405
18971W        W34865   5.117   8.683   1.571  0.1027  0.0959 -0.3819
18972W        W34866  11.962   6.008  11.631 -0.0386  0.0164 -0.0816
18973W        W34867  18.381   7.314  14.342 -0.3791 -0.1885 -0.2781
18974W        W34868   2.304  16.669   3.569 -0.0588  0.0651  0.1773
18975W        W34869  14.613   7.130   4.050  0.7573 -0.1488 -0.1083
18976W        W34870  18.449  17.880   4.948  0.0969  0.1813  0.0017
18977W        W34871  14.377  15.648  13.107  0.4330 -0.0528  0.2638
18978W        W34872   8.611  12.431  10.943 -0.0875 -0.1898 -0.2162
18979W        W34873   2.913   4.729  11.734  0.3235 -0.2101  0.2301
18980W        W34874  15.623  10.280   9.889  0.1962 -0.1392 -0.0530
18981W        W34875  11.940   9.920  13.705 -0.3356 -0.3333 -0.1796
18982W        W34876   2.634   3.119  10.835  0.4130  0.2444 -0.2866
18983W        W34877  13.137  11.138   0.537 -0.0896 -0.2667  0.2893
18984W        W34878   4.254   3.299  11.613 -0.2201  0.0323 -0.1665
18985W        W34879  10.317   0.878   4.101 -0.1371 -0.0128 -0.2956
18986W        W34880  17.157  11.567  11.352  0.1411 -0.1702 -0.0710
18987W        W34881  17.143  12.364   1.682 -0.1012  0.0806 -0.0900
18988W        W34882   6.463  15.615   1.524  0.1875 -0.2924 -0.0543
18989W        W34883  15.772  17.493   0.625  0.1301 -0.1496 -0.1573
18990W        W34884  10.910  18.635   5.041  0.2314  0.0007  0.0293
18991W        W34885   8.923   6.669  11.280  0.2331  0.0155 -0.1411
18992W        W34886   5.280   2.091  10.964  0.2397 -0.2403 -0.1567
18993W        W34887   5.490  18.857   1.317  0.2515  0.0163  0.0943
18994W        W34888   1.017   3.787   3.056  0.0288  0.1286 -0.0676
18995W        W34889  13.056   2.379   4.870  0.0377 -0.0874 -0.1630
18996W        W34890   5.130  17.566   2.231  0.1035  0.2037  0.1202
18997W        W34891   4.421   3.042   4.859 -0.4168  0.2882 -0.2417
18998W        W34892   1.944  10.220   4.831  0.1649 -0.1047  0.4342
18999W        W34893   7.934   5.612   2.892  0.1428  0.2047  0.1571
19000W        W34894  14.631   0.067  14.156 -0.0449  0.0686 -0.4010
19001W        W34895   1.196  16.340  12.319  0.5101  0.1580 -0.2244
19002W        W34896   9.572   2.982  13.345  0.0108 -0.1710  0.0619
19003W        W34897   1.461   0.669  13.041 -0.3340  0.0566  0.0949
19004W        W34898  13.626  18.877  14.451  0.0155  0.2100 -0.2087
19005W        W34899   6.841   9.707   3.971  0.0419 -0.0385  0.2630
19006W        W34900   3.641  16.873   2.993  0.1344 -0.0600  0.1070
19007W        W34901  14.908  16.235  11.518  0.2118  0.0551  0.2431
19008W        W34902   0.308  15.021   5.233 -0.2805  0.1127 -0.1352
19009W        W34903   5.530   7.993   1.583  0.2823 -0.0281 -0.0666
19010W        W34904  11.296  18.825   4.040 -0.0272 -0.1876 -0.0156
19011W        W34905  15.162   1.883   3.051 -0.0968 -0.0001  0.0091
19012W        W34906  17.105  13.732  11.497  0.1586  0.0764 -0.2109
19013W        W34907  13.546   1.540   0.244  0.2218 -0.1792  0.2421
19014W        W34908  11.175  15.874  11.557 -0.0400 -0.1097  0.3095
19015W        W34909   2.009   6.983   1.135 -0.0237 -0.0093 -0.2048
19016W        W34910  15.646   0.439   1.989  0.1880 -0.3087 -0.2959
19017W        W34911  18.210   7.568   2.606  0.3290 -0.2151  0.1465
19018W        W34912  18.266   6.451   1.707  0.2597 -0.1641  0.0698
19019W        W34913  18.679   7.651   2.425 -0.0198  0.0781 -0.2810
19020W        W34914  12.733  16.344   1.639 -0.0209 -0.0039  0.0040
19021W        W34915  12.190   2.669  14.144 -0.2707  0.1478  0.1221
19022W        W34916  17.713  14.800   4.189 -0.2254  0.0853 -0.1015
19023W        W34917  15.044   7.058  12.603  0.0983 -0.0014  0.0796
19024W        W34918  14.711   9.268  14.278 -0.2130 -0.0522 -0.1592
19025W        W34919   3.823  18.792  14.142  0.1989  0.0944  0.1711
19026W        W34920  10.497  10.281  12.218 -0.0751  0.0739  0.0363
19027W        W34921   0.818  17.306   3.094 -0.2905 -0.3061  0.1513
19028W        W34922   1.877  14.457  13.544  0.2556 -0.0159 -0.1820
19029W        W34923  16.385  16.327  14.652 -0.3558  0.0822  0.0226
19030W        W34924   1.059  11.009  10.465  0.2285  0.0199  0.0547
19031W        W34925  10.187  15.793   1.679  0.3549 -0.3109 -0.5595
19032W        W34926   9.538   5.769   2.203  0.0653 -0.4840 -0.0750
19033W        W34927   9.093  15.745  10.674 -0.1432 -0.0348  0.1782
19034W        W34928  15.289   4.561   3.199  0.1362  0.0218 -0.0379
19035W        W34929   3.543  10.504   1.622 -0.0481 -0.1177  0.0652
19036W        W34930  13.605   6.868   0.299 -0.3267 -0.3982  0.1999
19037W        W34931   9.675   5.244  13.764  0.2603 -0.1232 -0.2492
19038W        W34932   1.675   4.521  10.614  0.0201  0.0331 -0.1237
19039W        W34933  10.965  14.277   5.252  0.0818  0.1938  0.0646
19040W        W34934   3.656   9.481  12.699  0.0844 -0.1793  0.3857
19041W        W34935   5.182  13.180   0.742  0.2614 -0.3175 -0.0729
19042W        W34936  18.592   1.772   5.189  0.1632 -0.0423 -0.2573
19043W        W34937  14.189   3.811  11.635  0.0536  0.0604  0.3644
19044W        W34938  14.145  13.792   2.788  0.0367  0.2174 -0.1728
19045W        W34939   0.829   5.369  14.814  0.0931  0.0993 -0.2067
19046W        W34940  15.618   1.911   5.654  0.1346 -0.1392 -0.1290
19047W        W34941  16.863   9.368   2.424 -0.4537 -0.1757 -0.0851
19048W        W34942  11.698  13.982   3.531 -0.0483 -0.2053 -0.1106
19049W        W34943  11.370   8.626   2.407 -0.2871 -0.0492  0.2828
19050W        W34944   2.116  11.021   4.364  0.1349  0.1148 -0.0764
19051W        W34945   8.849   3.478   2.035  0.0832  0.1947 -0.3507
19052W        W34946   7.415  15.648  10.869  0.2063 -0.2514  0.0697
19053W        W34947  17.104   7.208   3.760  0.0485  0.2729 -0.0220
19054W        W34948   9.839  18.763   1.516 -0.1052 -0.0174 -0.0009
19055W        W34949   9.999  14.029  13.013  0.0181 -0.2156 -0.2463
19056W        W34950  11.279   2.599  15.323 -0.0299 -0.1035  0.2969
19057W        W34951   9.814  18.193  14.385 -0.0879 -0.0876  0.0422
19058W        W34952  10.898   4.266   3.136  0.2723 -0.3255  0.0093
19059W        W34953   2.218  10.205   2.544  0.1094  0.2495 -0.1534
19060W        W34954  14.223  14.250  13.183  0.0107 -0.2383 -0.3214
19061W        W34955  10.031   7.960  15.305 -0.0331 -0.1627  0.0248
19062W        W34956  12.911   4.089  10.628  0.3228  0.0393 -0.1014
19063W        W34957   1.637   5.796  14.747 -0.2700 -0.0166  0.1510
19064W        W34958   4.746  15.373   1.852 -0.2995 -0.0605 -0.1161
19065W        W34959  11.426   6.362   3.736 -0.0582  0.1346  0.0349
19066W        W34960  18.725  17.554   3.972 -0.4143  0.1944 -0.1111
19067W        W34961   3.723  10.956  13.952 -0.2160  0.2363 -0.2458
19068W        W34962   1.707   3.422  12.388 -0.0738  0.1523 -0.2195
19069W        W34963   9.207  17.582  11.959 -0.0920  0.1354  0.0334
19070W        W34964  15.572  11.047   2.854  0.0726  0.2285 -0.2783
19071W        W34965   3.145   1.926   5.448  0.1516  0.1292  0.0242
19072W        W34966   4.994  10.082   1.876 -0.3458  0.0285 -0.1802
19073W        W34967  10.260  13.049   1.348  0.0712  0.2611  0.1965
19074W        W34968  15.583   9.478   0.805 -0.1862 -0.1586  0.0354
19075W        W34969   7.887   4.013  12.680  0.2046  0.0884 -0.1761
19076W        W34970  16.916  13.271   1.850 -0.2258 -0.3156  0.1021
19077W        W34971   9.381   9.250   3.064  0.2031  0.2355  0.2283
19078W        W34972   4.889   4.524  11.048 -0.1692 -0.1002 -0.2054
19079W        W34973  11.553   1.034   3.933  0.0021  0.0604 -0.2935
19080W        W34974  18.656  13.934  11.545 -0.1376 -0.1555 -0.0933
19081W        W34975  10.120   0.545  14.726  0.0948  0.1199 -0.0603
19082W        W34976  15.641  11.851   4.641 -0.3234  0.1922 -0.2352
19083W        W34977   9.309  10.943   1.093  0.2773 -0.2552  0.1157
19084W        W34978   7.320   4.840   2.017 -0.3195  0.0738 -0.1227
19085W        W34979   5.640   4.608  15.093  0.1123  0.1333 -0.0947
19086W        W34980  13.447  15.811  13.347 -0.1669  0.0592 -0.1304
19087W        W34981  16.633   7.587   4.609  0.1527 -0.0393 -0.0928
19088W        W34982  14.892   3.951   0.004  0.1753  0.0348  0.1514
19089W        W34983   9.082   5.260  12.271 -0.1696 -0.0506 -0.0794
19090W        W34984   5.540   2.920  13.511 -0.0954  0.0851 -0.0207
19091W        W34985   5.889   5.788   0.416 -0.1158 -0.1124  0.0500
19092W        W34986   1.241   2.219  12.221  0.2011  0.0713 -0.0623
19093W        W34987   1.678   2.575   1.235 -0.2554 -0.3111 -0.1643
19094W        W34988  14.512   5.921   4.321  0.2381  0.3609  0.3250
19095W        W34989   0.406   7.872  15.281  0.3501 -0.1811  0.2942
19096W        W34990  16.684   6.939  13.778 -0.3124 -0.1314 -0.1858
19097W        W34991   0.967  15.611   1.030  0.1162  0.3482  0.1326
19098W        W34992  17.653   1.558   2.063 -0.0371  0.2945 -0.0984
19099W        W34993   6.834  16.307  12.128 -0.2570 -0.1290 -0.0434
19100W        W34994  12.142   4.863  15.471 -0.0613  0.1373  0.3035
19101W        W34995  10.822  12.579  10.889  0.1487  0.0323  0.1866
19102W        W34996  15.825  13.547   5.108  0.0153 -0.2034 -0.3071
19103W        W34997  16.186   6.244   1.507 -0.0703 -0.2293 -0.1810
19104W        W34998  13.170  16.189   1.854 -0.0538  0.0614  0.2019
19105W        W34999   1.713   4.636  13.847 -0.2260 -0.0821 -0.0760
19106W        W35000  13.437  14.787  13.128  0.0603 -0.0293 -0.0809
19107W        W35001  10.633   1.000  11.926 -0.0951  0.0897  0.1094
19108W        W35002   8.410   2.495  15.361 -0.0226 -0.1402  0.0175
19109W        W35003   9.975  18.695   3.730  0.0733 -0.3408 -0.3768
19110W        W35004   6.855  16.631  11.718  0.3526 -0.1143  0.3331
19111W        W35005  17.726  11.029   1.247 -0.0426 -0.1951 -0.2854
19112W        W35006  17.697   6.172   1.266  0.2767  0.2154  0.0326
19113W        W35007   3.440   8.896  13.233  0.0830  0.1068  0.1813
19114W        W35008   0.303  10.531  10.913 -0.1881  0.3195  0.0932
19115W        W35009   6.693  11.118  14.081  0.0046 -0.0453 -0.0971
19116W        W35010   1.408  12.049   0.223 -0.2602  0.1261  0.1627
19117W        W35011   9.527   1.835   4.796  0.1264 -0.0486 -0.0440
19118W        W35012   3.677  11.246   0.071 -0.0034  0.1225  0.3437
19119W        W35013   1.322  16.928  15.465  0.0569  0.0521 -0.1362
19120W        W35014   9.624   7.665  12.373 -0.0516  0.0571 -0.1920
19121W        W35015   9.745  10.742   4.333 -0.1697 -0.1391 -0.1617
19122W        W35016  13.060   4.928  12.712  0.2225  0.0123 -0.1659
19123W        W35017  14.430   1.651  13.946 -0.1505  0.1446  0.0377
19124W        W35018   8.101   3.082   4.436  0.0748  0.0880 -0.2140
19125W        W35019  13.639   6.473   3.548 -0.3949 -0.2005  0.0681
19126W        W35020  10.496   9.858   4.318 -0.2414 -0.0027  0.0876
19127W        W35021   5.850  16.902   3.106 -0.2341  0.0683  0.1544
19128W        W35022   3.094   4.037  10.444  0.1009  0.0294 -0.2929
19129W        W35023   3.195  10.837  13.438 -0.2463  0.3099 -0.1218
19130W        W35024   5.119   0.558   0.732  0.0009  0.1696  0.0119
19131W        W35025  15.157   8.539  11.720 -0.0592  0.3605 -0.2191
19132W        W35026   5.628   4.104  12.914 -0.0730  0.0191  0.0493
19133W        W35027  16.748   7.958   3.464  0.0711  0.3011 -0.0645
19134W        W35028  10.755  13.712  13.946 -0.0926 -0.2101  0.0697
19135W        W35029  18.067   8.840  12.358 -0.0301 -0.1775  0.0062
19136W        W35030  11.830   6.705   3.945  0.1054 -0.0493  0.0960
19137W        W35031  13.185  15.481   4.552  0.3394 -0.0492 -0.1140
19138W        W35032  14.582  12.627   4.362  0.0990 -0.2512 -0.1574
19139W        W35033  17.266   7.529  15.318 -0.1174  0.2343  0.1056
19140W        W35034   7.404   6.899  13.794 -0.0735  0.3777  0.0883
19141W        W35035   7.482   6.838  11.221 -0.4347 -0.0430 -0.0780
19142W        W35036  13.565  18.665  13.127  0.0636 -0.2451 -0.1318
19143W        W35037   3.378   3.750   4.030  0.1632 -0.0148 -0.0384
19144W        W35038  18.702  17.113  11.109 -0.1482 -0.1890  0.1224
19145W        W35039   9.876  16.586  13.295 -0.0576  0.3223  0.0115
19146W        W35040   6.174   4.935   1.490 -0.1441  0.0376 -0.3570
19147W        W35041   2.809   5.499   0.800  0.0411  0.0939 -0.4940
19148W        W35042   8.111  17.017   5.065  0.0502  0.0379  0.3936
19149W        W35043   2.281  12.724  13.259  0.3212 -0.3660 -0.1464
19150W        W35044   1.036   7.717   4.576  0.0884 -0.2412 -0.0148
19151W        W35045   8.865   3.743   2.484 -0.0237 -0.1111  0.1566
19152W        W35046   8.426  13.237  14.121 -0.2453  0.0923 -0.1257
19153W        W35047  11.759   5.394  14.751  0.3003 -0.0607 -0.0128
19154W        W35048  11.361  12.270   4.215  0.3661 -0.0935  0.1116
19155W        W35049  11.749  14.576   5.215 -0.2302 -0.0648 -0.1500
19156W        W35050   7.093   4.342  14.766 -0.2977  0.1175 -0.0486
19157W        W35051   7.112  11.879  13.919  0.2056  0.2744  0.0189
19158W        W35052  16.270  15.539   1.267  0.0183  0.1336  0.0207
19159W        W35053  13.395  10.926  15.092  0.3338 -0.0136 -0.0823
19160W        W35054  12.203   3.079   3.520  0.0083  0.0481  0.2038
19161W        W35055   1.046  15.031   3.743 -0.0808  0.1734 -0.1298
19162W        W35056   1.768  16.953  12.189 -0.0301 -0.2735 -0.1196
19163W        W35057  10.325   3.449   4.158 -0.0182  0.1349 -0.2459
19164W        W35058  11.104   9.556   2.328 -0.3150 -0.0736 -0.0193
19165W        W35059   5.758   8.976   1.249  0.4506  0.1216  0.1187
19166W        W35060   8.254  11.091   3.294  0.1510  0.0868 -0.0047
19167W        W35061   3.825   4.007  14.671  0.1105 -0.2484  0.0490
19168W        W35062   9.831  10.220   0.776 -0.1495  0.0470 -0.0374
19169W        W35063   6.557   5.140  12.937 -0.1658  0.4493 -0.4004
19170W        W35064  13.297  11.133   2.890 -0.1752  0.1279  0.1632
19171W        W35065  15.544   3.139   0.996 -0.1167  0.1242 -0.2097
19172W        W35066  12.823   2.332   6.140 -0.0304  0.1018  0.2275
19173W        W35067   3.311  18.824  12.424 -0.0980  0.1582  0.0003
19174W        W35068  11.754  14.063  11.512 -0.0114  0.1150  0.1371
19175W        W35069   1.509   9.781  14.601  0.1122 -0.5945  0.0774
19176W        W35070   7.513   9.350  12.435 -0.0075  0.1390  0.5071
19177W        W35071  14.926   3.390  13.750 -0.0101 -0.1416  0.0184
19178W        W35072   7.507  18.195  12.224 -0.0518  0.1572 -0.2200
19179W        W35073  13.032   9.019   4.204 -0.1263  0.0790 -0.1002
19180W        W35074   9.413   5.224   1.260  0.0170 -0.2336 -0.3066
19181W        W35075   6.173  10.773  13.321 -0.0105 -0.0739 -0.1251
19182W        W35076  13.592   8.200  15.042  0.0844 -0.1469 -0.1081
19183W        W35077   0.800  16.308  11.051  0.3062  0.0831  0.1253
19184W        W35078   3.904  13.164   2.162  0.0632  0.1930  0.0164
19185W        W35079   3.492  14.729  14.530  0.1119  0.0439  0.4341
19186W        W35080  12.960  16.257   0.041  0.1998  0.3153  0.0352
19187W        W35081  15.254  11.347   2.604  0.1525 -0.0739  0.2432
19188W        W35082  13.077   3.924   2.834  0.1051 -0.1079 -0.1582
19189W        W35083   7.956   8.514  11.575  0.0109  0.0901  0.0917
19190W        W35084  16.087  10.420   3.912 -0.0796  0.1203 -0.1135
19191W        W35085   4.350  17.978  13.017 -0.4952  0.2587 -0.2277
19192W        W35086   9.496   8.506   5.041  0.2389  0.2461  0.1524
19193W        W35087   0.741  10.222  15.099 -0.3260  0.3514 -0.2668
19194W        W35088   5.542  17.421  12.545  0.2838  0.0755  0.4628
19195W        W35089   3.957   8.940  13.540  0.2814  0.0366 -0.0240
19196W        W35090  18.173   8.105   4.227  0.5262 -0.1412 -0.2241
19197W        W35091  13.801   2.899  14.473  0.5604  0.2821 -0.1136
19198W        W35092  14.217   3.654  12.139  0.0564  0.3015 -0.0775
19199W        W35093   7.062  11.895   4.305  0.1585 -0.2196  0.2302
19200W        W35094   9.240   7.967  15.378  0.0083 -0.1857  0.1057
19201W        W35095  12.311  15.557   3.310 -0.0407 -0.1958  0.0552
19202W        W35096  13.975   2.574   2.281  0.0771  0.2722 -0.1734
19203W        W35097   1.899  17.111  14.036 -0.2692  0.3576  0.0879
19204W        W35098  12.979   7.724   2.367 -0.0436 -0.1870  0.0861
19205W        W35099   3.391   9.137   0.642 -0.1187  0.2460  0.0423
19206W        W35100  15.797   5.347   4.154  0.0138  0.4867  0.1079
19207W        W35101   4.222  17.077  13.317  0.1176 -0.1400  0.3588
19208W        W35102   6.588   6.952   2.031  0.0693 -0.0287  0.0861
19209W        W35103  13.752  18.495   3.516 -0.3011  0.0636 -0.0447
19210W        W35104   4.916   6.740  14.376 -0.0045  0.0182 -0.1951
19211W        W35105  13.636  15.775   4.477  0.0008  0.1186  0.0089
19212W        W35106   8.491   2.081  15.064 -0.1477  0.1858 -0.0151
19213W        W35107  15.466  11.681  13.216 -0.0266  0.1615 -0.1007
19214W        W35108  16.008   1.756   1.309 -0.4057  0.0108 -0.3292
19215W        W35109   1.308   8.698   2.451 -0.1142  0.2711  0.1167
19216W        W35110  15.520  14.063   5.974  0.0574  0.0693 -0.2978
19217W        W35111   6.309  17.717  14.556  0.0854  0.0539 -0.0442
19218W        W35112  11.706  17.525  13.482  0.1449  0.1385 -0.2313
19219W        W35113  17.743   7.634  14.623  0.1372 -0.3630  0.2860
19220W        W35114  17.835  14.491   2.316 -0.1885  0.1406  0.2958
19221W        W35115  15.530   3.580  14.443  0.1443 -0.0984 -0.2726
19222W        W35116   9.776   4.772  14.161 -0.4179  0.3410  0.1442
19223W        W35117   0.039   4.972   1.890  0.1004 -0.1152 -0.1547
19224W        W35118   0.753  11.422   4.475  0.0031 -0.3555 -0.1586
19225W        W35119   6.843   5.810  15.468  0.3840 -0.0743  0.0980
19226W        W35120  15.283  12.556   0.488  0.3401  0.0089 -0.1361
19227W        W35121  11.848   4.292  13.158  0.0978  0.2025 -0.1790
19228W        W35122  11.610  14.912   0.339  0.0823  0.1325  0.0612
19229W        W35123  17.316  16.581  12.920  0.2521  0.0162 -0.0964
19230W        W35124  10.294   4.795  13.388 -0.2450  0.0088  0.2178
19231W        W35125   6.490   1.855  13.951 -0.1024  0.2098 -0.1635
19232W        W35126   5.792   3.379   4.367 -0.2225  0.0335 -0.0414
19233W        W35127   1.752   7.208   4.729 -0.0158 -0.1208 -0.1741
19234W        W35128   8.619  10.324  13.950  0.1548  0.1609 -0.0493
19235W        W35129   4.074   8.262   4.279 -0.4361 -0.0013  0.3167
19236W        W35130   6.798  11.087  10.805 -0.1960 -0.2928  0.1965
19237W        W35131   4.058  11.086   4.067 -0.2592 -0.0505 -0.0085
19238W        W35132   4.610  13.537   5.105 -0.1451 -0.2242 -0.0443
19239W        W35133   4.422   0.838  15.420 -0.1082  0.2626  0.1018
19240W        W35134  15.306   1.620   3.891  0.2599  0.0824 -0.1506
19241W        W35135  14.566  13.216   5.234  0.2045 -0.1591  0.0483
19242W        W35136  14.964   9.892  13.484  0.1088  0.0953  0.3063
19243W        W35137   3.503  15.058  13.973  0.0102 -0.1270  0.1644
19244W        W35138   1.460  17.720  13.903  0.1234 -0.0419 -0.1804
19245W        W35139   3.111  18.235   2.545 -0.1328 -0.1292 -0.1558
19246W        W35140   4.715  18.247  14.228  0.1085 -0.2230 -0.1065
19247W        W35141   1.290  12.540  13.691  0.0914 -0.1608  0.0124
19248W        W35142  10.412  16.594   1.659  0.0538  0.1430  0.0103
19249W        W35143   1.229   1.254  15.272  0.1298  0.0578 -0.4339
19250W        W35144   1.434   8.033   0.552 -0.2469 -0.0969 -0.1232
19251W        W35145   2.488   4.465   3.412  0.0760 -0.2115  0.1897
19252W        W35146   3.542  16.074  13.658  0.0458  0.0506 -0.0326
19253W        W35147   9.554  10.230  11.286 -0.0071 -0.0301 -0.0971
19254W        W35148  15.175  16.574  11.456 -0.3119 -0.1410 -0.1039
19255W        W35149   5.487  14.926  10.766  0.1273 -0.1133  0.0594
19256W        W35150  10.580   1.792  12.399 -0.1972  0.0986 -0.0649
19257W        W35151   8.048  17.422   1.019  0.1255 -0.0094 -0.1297
19258W        W35152   2.153   5.094   2.954 -0.0259 -0.1430 -0.1042
19259W        W35153  13.033   7.526  15.462 -0.2582 -0.0754 -0.1514
19260W        W35154   4.512   9.997   2.664  0.0275  0.3968 -0.2761
19261W        W35155  14.814   1.070  12.511 -0.0986  0.0603 -0.0006
19262W        W35156  14.966  15.917   1.501  0.2231 -0.0543  0.1713
19263W        W35157  13.365   4.181  11.576 -0.0872  0.3578  0.2544
19264W        W35158   3.404  17.097  11.341  0.0165 -0.0180 -0.0954
19265W        W35159  11.581  13.110   1.080 -0.1956  0.1317 -0.0026
19266W        W35160   6.274   7.257   2.348  0.0763 -0.0217 -0.2582
19267W        W35161   6.253   1.437   2.611 -0.0612 -0.2599  0.1312
19268W        W35162   8.744  16.538  11.105 -0.3483 -0.0586 -0.1160
19269W        W35163  17.544   0.584   1.353  0.2392 -0.0682 -0.0354
19270W        W35164  15.204  14.525   3.006 -0.0458  0.0336 -0.0047
19271W        W35165   7.878   1.223   3.925  0.0421  0.1163 -0.1108
19272W        W35166   7.614  15.569   5.350 -0.0490  0.1641 -0.3642
19273W        W35167   4.051  12.289  11.827  0.4287  0.0296  0.5080
19274W        W35168  16.493  10.726  11.453  0.2660  0.2174  0.0639
19275W        W35169  12.922  17.100   3.008 -0.3084  0.0298  0.3582
19276W        W35170  17.452   7.500   1.934  0.0451  0.1787 -0.3693
19277W        W35171   0.551   9.651   1.372  0.1323 -0.1642  0.0627
19278W        W35172  11.916  11.560  15.297 -0.0685  0.0944 -0.1089
19279W        W35173  16.248  11.069  12.912  0.2007 -0.1334  0.1231
19280W        W35174  15.476  14.533  11.146  0.3555  0.0974  0.3605
19281W        W35175   3.568  13.972   1.662  0.0036 -0.5871 -0.1250
19282W        W35176   5.113  12.291   0.876  0.0165  0.2281 -0.2361
19283W        W35177   3.119   9.859   4.161 -0.1230  0.0900 -0.1648
19284W        W35178  10.830  10.147   2.237  0.1882  0.4044  0.1343
19285W        W35179   6.100  17.591   4.718  0.3494  0.0918  0.0823
19286W        W35180   4.588   7.484   0.341 -0.0399  0.0058 -0.1956
19287W        W35181   7.894  10.968   1.492 -0.2265 -0.1226  0.1745
19288W        W35182   9.747   7.140  11.122  0.4041  0.1151  0.4053
19289W        W35183  16.888   9.498   1.391 -0.1274  0.1740 -0.4400
19290W        W35184   6.211  12.462  13.979  0.1434 -0.1225 -0.0566
19291W        W35185  13.085   1.673   2.666 -0.2551 -0.1070 -0.0747
19292W        W35186   9.760   5.443  12.977 -0.1105  0.0804 -0.0285
19293W        W35187   7.618   8.222   1.452 -0.2679  0.1228 -0.3731
19294W        W35188   9.474  15.735   3.503  0.1730 -0.0008  0.2024
19295W        W35189  13.475  12.875   0.088  0.0345 -0.0350  0.4646
19296W        W35190  17.639  17.656  12.846  0.2421 -0.1506 -0.1053
19297W        W35191   0.572   4.050   0.704  0.0945  0.0887  0.0899
19298W        W35192   6.225   9.413  11.911 -0.1115  0.0138 -0.3043
19299W        W35193  12.698   4.200   4.266 -0.0360 -0.2532  0.0026
19300W        W35194  14.622  16.278   4.467  0.0634 -0.4052 -0.0243
19301W        W35195  18.473  16.150   1.190  0.0106  0.0342  0.2680
19302W        W35196   7.454   6.292  12.104 -0.0200 -0.1757 -0.2249
19303W        W35197  11.896  10.192  15.038  0.0036 -0.1871 -0.0382
19304W        W35198   6.135   1.456   0.294 -0.0066 -0.2629  0.3613
19305W        W35199  13.275  18.512   1.283  0.0385 -0.1205 -0.0366
19306W        W35200  13.134   8.783   1.247 -0.0163  0.0679  0.1634
19307W        W35201   4.991   6.012  13.581  0.0288 -0.1239  0.0961
19308W        W35202   3.233  12.251  13.444  0.0640 -0.0446  0.0044
19309W        W35203   4.872   6.916   2.021 -0.0508  0.1112 -0.3137
19310W        W35204  13.008  12.922  10.617  0.1079  0.3051  0.4361
19311W        W35205  13.845  17.175   0.362  0.1453  0.1428  0.0485
19312W        W35206  11.769   7.519  12.628  0.0256  0.0043  0.0155
19313W        W35207   2.378  18.071   1.710  0.2800 -0.0623 -0.2319
19314W        W35208  10.079   0.388   5.856 -0.0717  0.1508  0.0748
19315W        W35209   4.717   4.201   1.249  0.3162  0.3792  0.0528
19316W        W35210  18.236  15.605  12.212  0.0313 -0.4888 -0.1408
19317W        W35211   3.088  12.155  11.655 -0.1472 -0.2039  0.0572
19318W        W35212  13.128   4.920   2.652 -0.3058 -0.0175  0.1671
19319W        W35213   6.558  13.330   2.645 -0.1303 -0.1883  0.3735
19320W        W35214   8.912  14.521   3.886  0.3141 -0.0477 -0.2052
19321W        W35215  11.297  12.981   2.282 -0.2752  0.0058 -0.0913
19322W        W35216   0.735   6.114   4.934  0.1863 -0.0078  0.0319
19323W        W35217   0.627  13.540   3.743 -0.1148 -0.0440  0.2880
19324W        W35218   0.158  17.582  14.134  0.5874 -0.1449 -0.1850
19325W        W35219  14.489   7.789   1.337  0.0896 -0.1040 -0.2989
19326W        W35220   0.688  15.428  10.826  0.1260  0.1035  0.0116
19327W        W35221  18.662  14.930   2.249  0.0259  0.0108  0.2063
19328W        W35222   4.168  16.604   5.525  0.0341  0.4088  0.2416
19329W        W35223   0.737  15.911   3.282  0.3536 -0.1243  0.3868
19330W        W35224  17.950   8.959  14.891  0.7027  0.1410 -0.0297
19331W        W35225  11.484  11.687   4.880  0.0605  0.4604 -0.5440
19332W        W35226   1.546   5.680   9.430  0.2085  0.1170  0.1146
19333W        W35227   6.566   0.748   4.140  0.0760  0.1271 -0.3300
19334W        W35228   0.130  10.177   4.835  0.0431 -0.1824 -0.1089
19335W        W35229   3.566  13.853  13.355 -0.0995  0.0105  0.1919
19336W        W35230  13.479   0.356  15.211 -0.4446  0.2613  0.1203
19337W        W35231   6.953  15.789  11.175 -0.1422  0.1401  0.0315
19338W        W35232   5.789   1.679  11.079 -0.0921  0.4648 -0.2914
19339W        W35233  14.877  15.859   4.802 -0.1609  0.0995 -0.0885
19340W        W35234  13.484   4.606  12.939 -0.1313  0.1395 -0.0354
19341W        W35235   8.658  13.108   4.965  0.0431  0.0078 -0.3062
19342W        W35236  17.821   4.001   5.204  0.3549  0.0162 -0.1627
19343W        W35237  16.955  10.764   1.036  0.0553 -0.1977  0.1648
19344W        W35238   9.106  16.579   5.700 -0.1074  0.2324  0.1891
19345W        W35239  17.164   7.901   2.081  0.3744 -0.1732 -0.2297
19346W        W35240  15.325  10.343   1.394 -0.0614 -0.0356  0.1881
19347W        W35241   5.743  15.488   0.394 -0.2658  0.3497  0.3401
19348W        W35242  17.250   7.515   3.341  0.4301 -0.1097  0.0219
19349W        W35243  17.894  14.026  13.556 -0.1881  0.2394 -0.0514
19350W        W35244   7.178  15.057   0.451 -0.2710 -0.1586  0.0771
19351W        W35245   3.143  13.265   3.860  0.1129 -0.0694 -0.1482
19352W        W35246   7.517  11.011   5.030  0.0444 -0.1404  0.0108
19353W        W35247  16.699  16.776   3.361 -0.3568 -0.3012 -0.0385
19354W        W35248  10.353  10.057  14.188 -0.2257 -0.2319  0.0947
19355W        W35249   3.546  11.338  10.590  0.0645 -0.0437 -0.3036
19356W        W35250   9.845  16.276   2.785  0.1011 -0.0740  0.1912
19357W        W35251   5.790  14.422   4.209  0.1964 -0.2029  0.2604
19358W        W35252   5.883  14.175   5.043 -0.1431  0.0808 -0.0873
19359W        W35253   2.607  18.013   0.439 -0.3982  0.0139  0.2396
19360W        W35254   1.714   0.921  10.470 -0.3424 -0.1483 -0.2210
19361W        W35255  14.487   5.944  14.748 -0.1994 -0.0117  0.0311
19362W        W35256  14.564   7.312   2.535 -0.0900 -0.0343 -0.5079
19363W        W35257  11.314  13.578  10.762 -0.0811 -0.0791 -0.0674
19364W        W35258  18.251   8.378  12.571  0.1599  0.3991  0.1902
19365W        W35259   5.156  10.226   9.878 -0.1413 -0.0355  0.1484
19366W        W35260  11.966  17.787   3.784 -0.1207  0.0082 -0.1115
19367W        W35261   6.755   6.319   4.021 -0.3315  0.1175  0.2023
19368W        W35262   7.706  13.680   4.277 -0.1659  0.0975  0.1998
19369W        W35263   5.539  10.400   0.612 -0.3690 -0.0959 -0.1070
19370W        W35264   9.305   2.424  12.567 -0.1516  0.1868 -0.0190
19371W        W35265   5.561  13.763  12.473 -0.3255  0.0696 -0.2353
19372W        W35266   6.027   4.112  11.278 -0.0853  0.0044 -0.2468
19373W        W35267  17.743  16.352  13.145 -0.5085 -0.1000  0.3448
19374W        W35268   9.690  14.335  11.709  0.1241  0.2028  0.0377
19375W        W35269  17.534   6.556  12.555 -0.2006 -0.0294 -0.2099
19376W        W35270   3.401   4.960  10.853 -0.2985 -0.3873  0.0354
19377W        W35271  15.223   9.637   2.126  0.0568  0.1813 -0.2764
19378W        W35272  11.658  11.256   4.729 -0.0263 -0.1184  0.0338
19379W        W35273  13.473   5.504  14.903  0.2552 -0.2151  0.3773
19380W        W35274   5.898   6.686   1.305  0.4218 -0.0553 -0.0642
19381W        W35275   9.350  17.606  10.925 -0.1089  0.0036  0.3526
19382W        W35276   5.000  17.542   2.924 -0.1129 -0.0220 -0.2890
19383W        W35277   9.733   3.072   0.748  0.0567  0.1071  0.2089
19384W        W35278   7.580   4.922  11.895  0.1027  0.1005 -0.0668
19385W        W35279  17.010   7.517  13.037  0.1999 -0.0156 -0.0747
19386W        W35280   6.720   8.807  12.583 -0.0800 -0.0107 -0.0895
19387W        W35281  16.371   8.929   1.718 -0.1876 -0.0842  0.3697
19388W        W35282   5.901  11.954  11.888  0.4902 -0.0496 -0.1948
19389W        W35283   0.302  11.105   3.725  0.1170 -0.0691 -0.0564
19390W        W35284  18.771  18.273   2.714  0.0928 -0.0575 -0.0284
19391W        W35285   6.555   1.484  11.731  0.0860 -0.1420 -0.4027
19392W        W35286  11.428  15.774   0.196  0.1198  0.1798 -0.4300
19393W        W35287  11.850  16.390  13.397  0.0704  0.2279 -0.3310
19394W        W35288  17.074   6.458  11.472 -0.0176  0.0255 -0.3052
19395W        W35289   2.165  11.704  15.110  0.1682  0.0955  0.1544
19396W        W35290   0.413  13.182  13.155  0.0712  0.2872  0.0782
19397W        W35291   2.907   8.180  12.413  0.2600 -0.1971 -0.1231
19398W        W35292   6.861  10.005  14.161  0.3148  0.2122 -0.0794
19399W        W35293   6.584  18.878   1.466 -0.2595 -0.0209  0.0057
19400W        W35294  17.026   3.331  12.245 -0.2414  0.0874  0.0372
19401W        W35295  15.425  14.219  11.510 -0.0764 -0.1916 -0.1917
19402W        W35296   7.601  13.763   2.938  0.0745 -0.1675  0.1292
19403W        W35297  15.870   3.893   0.077  0.3221  0.0705  0.0012
19404W        W35298   3.499  17.117   2.165 -0.1295  0.2676  0.1048
19405W        W35299   4.645   0.524   1.638  0.0109  0.0314 -0.0354
19406W        W35300  15.632   1.646  12.730 -0.0031 -0.1073  0.3469
19407W        W35301  14.051  13.296  14.093 -0.3808  0.2465 -0.3405
19408W        W35302  15.372   2.586   2.634  0.4770 -0.0465 -0.2577
19409W        W35303  12.169   0.796   2.828  0.3363 -0.0346 -0.1803
19410W        W35304   3.379   7.307   2.705  0.0768  0.0899  0.2117
19411W        W35305  17.116  18.397  11.442  0.2200  0.1615 -0.0098
19412W        W35306  17.255  13.859   3.549  0.1291 -0.2402 -0.0712
19413W        W35307  15.817   3.395  14.936 -0.0875  0.0873  0.2516
19414W        W35308  16.387   6.555  12.196  0.0224 -0.0799  0.2080
19415W        W35309   1.095   6.393  10.576  0.1636  0.1164 -0.0508
19416W        W35310   7.500  16.372  13.533  0.1919  0.3712 -0.0654
19417W        W35311   9.608   5.413  15.175  0.1185 -0.1472 -0.2236
19418W        W35312   7.360  10.008  14.394  0.0959 -0.2406  0.1114
19419W        W35313  18.736   2.003   0.180  0.0570 -0.0343 -0.1905
19420W        W35314  17.372  12.932  13.715  0.1677  0.3586  0.3805
19421W        W35315  13.205  18.062   0.344  0.1978 -0.0322  0.0686
19422W        W35316  17.005  14.743   4.174 -0.1808  0.1779 -0.1761
19423W        W35317  18.638   5.375   3.169 -0.4556 -0.0642  0.1376
19424W        W35318  10.750   2.071  11.864  0.0501 -0.0654  0.0664
19425W        W35319   1.657  12.402  11.454 -0.2304 -0.3071 -0.3521
19426W        W35320  15.324  10.921  15.447  0.1051  0.1104 -0.2063
19427W        W35321   6.845   1.269  14.392 -0.5564  0.2178 -0.0712
19428W        W35322  15.048  16.572  11.941 -0.1435 -0.1139  0.3604
19429W        W35323   5.296  14.472  14.254  0.1790 -0.2924 -0.1600
19430W        W35324  15.551  15.806  12.187 -0.2879 -0.0718 -0.5352
19431W        W35325   6.707  16.107   4.664 -0.0539 -0.0208  0.1001
19432W        W35326  16.240  15.543   2.566 -0.3048 -0.2105  0.3877
19433W        W35327  18.749  10.780   2.937  0.0826  0.3099  0.1631
19434W        W35328  17.916  13.333   3.113 -0.1375 -0.0616 -0.0392
19435W        W35329   0.348  17.254   2.858 -0.0494  0.3794 -0.2069
19436W        W35330  13.510   4.622  11.461 -0.3392 -0.0256  0.1101
19437W        W35331   2.859   4.164  14.811  0.0663  0.2395  0.2773
19438W        W35332   4.862  10.740   0.596 -0.0747  0.1630 -0.2666
19439W        W35333  17.041   7.622   1.658  0.0840 -0.3089  0.1698
19440W        W35334   3.781   3.642  11.316  0.1665  0.3607  0.0194
19441W        W35335   2.521  15.412   2.447 -0.3024  0.1844  0.1905
19442W        W35336   2.984  11.995  12.953 -0.1950  0.0937 -0.1111
19443W        W35337  17.145   9.184   4.995  0.0617  0.3246  0.1772
19444W        W35338   4.135  17.441  15.290  0.0992  0.0088  0.0824
19445W        W35339   9.573  11.547   2.738 -0.0537 -0.1898  0.0259
19446W        W35340  16.469  15.072   0.578 -0.0811  0.1470  0.2932
19447W        W35341  16.120  15.692  13.845  0.0799  0.4797  0.4867
19448W        W35342  15.544   4.480   0.673 -0.1112  0.0330 -0.1681
19449W        W35343  17.452   5.191   1.167  0.1437 -0.1328  0.2009
19450W        W35344   5.294  18.806  14.948 -0.0092 -0.0754 -0.0970
19451W        W35345   4.014   1.258   1.504 -0.1127 -0.0391 -0.3141
19452W        W35346   8.240   5.311  15.029 -0.1074  0.1793  0.1473
19453W        W35347  16.374  17.354   2.076  0.1551  0.0982  0.0122
19454W        W35348   1.024  18.341  11.880 -0.2669  0.2942  0.3423
19455W        W35349   6.783   6.337   5.431  0.0613 -0.1218 -0.0072
19456W        W35350  11.769   2.302  13.980 -0.0273 -0.1407  0.0333
19457W        W35351  12.759   3.003   2.003 -0.0002  0.0552 -0.0851
19458W        W35352  17.557   5.431  10.570  0.1787  0.0552  0.3047
19459W        W35353   5.520   3.435  15.124 -0.1928  0.1187  0.0833
19460W        W35354  13.042   3.653  10.388  0.0835 -0.0939 -0.2455
19461W        W35355   9.180   3.463  14.623 -0.1239  0.1245  0.0531
19462W        W35356   8.666   9.100  15.383  0.2598 -0.2162  0.0628
19463W        W35357  12.833   6.398   3.681  0.0223 -0.0277 -0.4498
19464W        W35358   9.535  14.475   1.628  0.3522 -0.0257  0.0558
19465W        W35359   4.754   9.489  13.213  0.2333 -0.0330 -0.0148
19466W        W35360   3.080  17.148  12.513 -0.2614  0.0266 -0.0464
19467W        W35361   1.630   5.089  10.372  0.2485 -0.0195 -0.1021
19468W        W35362  15.792   3.320  10.495 -0.1092  0.1971 -0.1083
19469W        W35363  10.169  13.075  13.543 -0.2554  0.3762 -0.1472
19470W        W35364  17.376   8.043   3.272  0.2365 -0.0255 -0.1865
19471W        W35365  10.003  18.025  13.477 -0.2976  0.2689  0.2547
19472W        W35366   6.486   2.484   4.823 -0.1992  0.2922 -0.0862
19473W        W35367   5.967  12.641  15.120  0.0267 -0.1483  0.0734
19474W        W35368   3.241  11.040   2.900 -0.2305 -0.0057  0.3016
19475W        W35369  17.688  11.757  12.765 -0.0249 -0.3288  0.3121
19476W        W35370   9.022  12.938  12.924  0.1892  0.1503 -0.0104
19477W        W35371  11.729   0.623   0.323  0.2104  0.1587  0.3899
19478W        W35372   6.548   2.885  12.135 -0.0503  0.2371 -0.1668
19479W        W35373  10.264   3.083   4.556 -0.0967  0.3808 -0.2041
19480W        W35374   7.651  13.537   1.374 -0.0971  0.0027 -0.0513
19481W        W35375   2.689   6.495  10.227  0.1364  0.0445 -0.1228
19482W        W35376   8.739  11.610  11.251  0.0369  0.3372  0.0171
19483W        W35377  10.741   5.807  15.451 -0.0600  0.0207 -0.0136
19484W        W35378  18.266  18.625  13.780  0.0711  0.0655  0.0592
19485W        W35379   2.242   8.940  12.199 -0.1052  0.0729  0.0143
19486W        W35380  16.455   1.285   1.596  0.1568 -0.1643  0.0362
19487W        W35381   8.631  14.294  12.707  0.1059  0.1120  0.0019
19488W        W35382  18.686  16.950   5.454  0.4360  0.2560  0.2472
19489W        W35383   0.601  17.610   0.258 -0.0042  0.1937 -0.1861
19490W        W35384  17.803   5.053  14.288  0.1897  0.3657 -0.0370
19491W        W35385   3.641   5.405   1.744 -0.2083 -0.1379 -0.2347
19492W        W35386   3.071  13.092   0.556  0.0211 -0.1330  0.0637
19493W        W35387  15.442  17.423   5.788  0.0418  0.0692  0.0383
19494W        W35388   0.170   7.387   2.836  0.3580 -0.0197  0.2429
19495W        W35389   2.601   1.445  14.007 -0.1041  0.2155  0.0277
19496W        W35390  12.767  13.858   5.118 -0.2230  0.1431  0.0139
19497W        W35391   5.990  16.513  10.774  0.1343  0.0481 -0.2417
19498W        W35392  14.295   2.039   3.170 -0.1452  0.0321 -0.4228
19499W        W35393  12.591   7.215  13.468 -0.1047  0.1461 -0.3507
19500W        W35394  12.235   3.113   0.766  0.1406  0.2905 -0.1309
19501W        W35395   3.100   1.412   1.698  0.2580 -0.1231  0.0467
19502W        W35396  12.588  12.503  11.584  0.0572 -0.0132  0.1391
19503W        W35397  14.768   2.842   1.679 -0.1153  0.0365  0.1034
19504W        W35398   7.359  13.668   0.951 -0.0046  0.2515 -0.3814
19505W        W35399   9.519  15.985  13.892  0.3471  0.0513 -0.0314
19506W        W35400  11.551  18.400   0.928 -0.0912 -0.2718  0.0486
19507W        W35401   8.845   4.802   2.595 -0.1011  0.0306  0.0432
19508W        W35402   0.630  15.717  12.729 -0.1128 -0.1195  0.1804
19509W        W35403  13.231   3.320   4.450  0.0156  0.0350 -0.3162
19510W        W35404   9.155  16.519   6.299 -0.1545 -0.3505  0.0805
19511W        W35405   9.835   5.354   4.998 -0.2093 -0.0318 -0.0094
19512W        W35406   4.396   7.834  12.899  0.1846  0.1007 -0.3080
19513W        W35407  15.246   5.996   2.307  0.0065  0.1281 -0.1627
19514W        W35408   8.350  12.359   3.224 -0.2359  0.2024 -0.2340
19515W        W35409   7.939   9.154  10.812 -0.0696 -0.0864 -0.0347
19516W        W35410   8.245  16.376   0.325 -0.0381  0.2293  0.0496
19517W        W35411  15.134   9.881   1.367 -0.2488 -0.1242 -0.0081
19518W        W35412   3.474   8.863  12.208 -0.1233  0.1465 -0.0398
19519W        W35413  15.870  16.999   3.289  0.0737  0.0951  0.0206
19520W        W35414  14.171   6.485  13.727  0.4905  0.1333  0.1801
19521W        W35415  14.109  16.642   3.449  0.0869  0.1345  0.3407
19522W        W35416   1.130  17.892  13.159  0.3310 -0.4250 -0.0419
19523W        W35417   0.962   4.024   2.549  0.0993  0.2064  0.0489
19524W        W35418  16.667  10.816  10.944  0.0811  0.3998 -0.0774
19525W        W35419   1.531  11.730   3.888 -0.3200  0.1014 -0.1814
19526W        W35420  10.635  16.767  12.026  0.0286 -0.0323 -0.2082
19527W        W35421   2.933   4.818   0.636  0.1444  0.0210  0.0318
19528W        W35422  13.100  11.213   4.466 -0.4894  0.3606  0.2832
19529W        W35423  10.236  17.816  11.340  0.0394  0.1159 -0.4219
19530W        W35424   7.473  10.558   3.108 -0.1647 -0.0350  0.0915
19531W        W35425  16.040  12.608  13.084 -0.0325 -0.0610 -0.4665
19532W        W35426  11.457  17.542  11.426  0.0610  0.1739  0.2512
19533W        W35427   4.365  11.164   4.439 -0.1653  0.3609  0.2347
19534W        W35428  11.788   7.168   4.113  0.0052  0.2553  0.3667
19535W        W35429   5.255   4.217  11.972 -0.1243  0.1569 -0.1222
19536W        W35430   8.006   5.290  10.150 -0.1026  0.1054  0.0519
19537W        W35431  13.259  16.757   6.041 -0.1979 -0.0137 -0.2225
19538W        W35432  10.584   5.955   4.425  0.4868  0.0844  0.0734
19539W        W35433   4.711  13.102   4.874  0.3561 -0.0381 -0.2084
19540W        W35434   7.544   8.004  15.136  0.2568 -0.2694  0.1867
19541W        W35435  10.181  12.169  13.242  0.0359  0.1277 -0.0351
19542W        W35436  10.108   5.113   4.684 -0.0755 -0.0975  0.0659
19543W        W35437   0.743  14.079  14.522  0.0621 -0.2930 -0.1316
19544W        W35438   4.592   6.375   0.333  0.0695  0.2246 -0.2072
19545W        W35439  13.907   7.090   1.511  0.1722  0.1187  0.1368
19546W        W35440   1.183   2.389   3.023 -0.1298 -0.2326 -0.1201
19547W        W35441   2.880  11.612  13.230  0.0206 -0.3311  0.0949
19548W        W35442  16.203   6.193  15.203  0.1588  0.1536 -0.1646
19549W        W35443   2.562   9.179  14.302 -0.0780  0.0614 -0.0445
19550W        W35444  11.318  15.160   1.958  0.0873  0.0322  0.3496
19551W        W35445   7.716   2.530   4.215 -0.0560 -0.1353  0.1723
19552W        W35446   9.309  13.048   4.250  0.3266  0.2827 -0.1702
19553W        W35447  16.544   1.805   1.416  0.0145  0.1281  0.0071
19554W        W35448   4.114  13.185  14.677 -0.0096  0.1333 -0.1556
19555W        W35449   8.014   3.784   2.223 -0.1244  0.0224 -0.1182
19556W        W35450   6.679  12.182  13.718  0.0855 -0.2144 -0.0287
19557W        W35451   2.937   5.700  14.189  0.0502  0.2522 -0.2327
19558W        W35452  12.985  14.467   0.118  0.1074 -0.1557  0.1333
19559W        W35453   0.952  11.818   4.666 -0.1123 -0.2006 -0.2099
19560W        W35454  10.060   8.030  11.424  0.0097  0.0320  0.2813
19561W        W35455  14.423   6.016  13.710 -0.1525  0.2801  0.1368
19562W        W35456   3.743   0.028  13.351  0.1674  0.2409  0.1488
19563W        W35457   8.739  15.619  11.444 -0.0545 -0.0680  0.0446
19564W        W35458   0.603  16.906   3.487  0.0540  0.2180  0.1780
19565W        W35459  15.368   4.717  12.186  0.1210 -0.0161 -0.1793
19566W        W35460  13.084   7.133  14.491 -0.0039  0.2379  0.0514
19567W        W35461   0.516  17.608  12.314  0.0401 -0.3467 -0.1126
19568W        W35462   5.865  13.372   3.182 -0.0037 -0.1620  0.3423
19569W        W35463  16.789  14.409   0.064  0.2470  0.0321 -0.0266
19570W        W35464   0.552  12.596  13.207  0.2345 -0.0050  0.2027
19571W        W35465   9.375  17.456   2.521 -0.1143  0.0819  0.1767
19572W        W35466   4.237   7.917   3.973 -0.2585  0.1406 -0.1250
19573W        W35467   2.280   3.293   2.508  0.1036  0.0362 -0.1972
19574W        W35468  17.746  12.928   5.135  0.0487  0.1024  0.2329
19575W        W35469  12.610   8.724   2.463  0.2458  0.0292  0.0457
19576W        W35470  14.087   5.402   2.121 -0.2624  0.3221 -0.2140
19577W        W35471   8.633   3.591  14.158 -0.0715 -0.2156 -0.1453
19578W        W35472   4.108  13.759   4.883  0.4982 -0.1435 -0.2368
19579W        W35473  16.572  12.954   3.996 -0.1497 -0.1840  0.1191
19580W        W35474   9.682   9.810   1.830 -0.1818 -0.0598 -0.3897
19581W        W35475   6.703  17.339  12.116  0.1384 -0.4993  0.1521
19582W        W35476   3.343   3.877   2.207  0.1793  0.0309 -0.1035
19583W        W35477   2.664   4.872   3.029  0.3223  0.1357  0.2917
19584W        W35478  15.965  12.275  12.165  0.0568  0.0887  0.0739
19585W        W35479   8.939  17.435  10.479 -0.0208  0.1525 -0.1447
19586W        W35480  13.350  11.844   1.832  0.2733 -0.0657  0.3152
19587W        W35481  15.271   9.704  14.897 -0.2894  0.4460 -0.1852
19588W        W35482  17.653   2.237  12.665 -0.4235 -0.0589  0.0442
19589W        W35483   0.176  18.561  13.547 -0.3616 -0.2520 -0.1321
19590W        W35484  18.091  10.801   0.873 -0.1892  0.0065 -0.4759
19591W        W35485   8.753   2.746   3.961  0.0484 -0.1961  0.0225
19592W        W35486   4.801  18.590   3.892 -0.1331  0.4836  0.3238
19593W        W35487  17.539   4.479   4.125  0.1791 -0.1301 -0.0814
19594W        W35488   0.307  11.536   4.206  0.4568 -0.5685 -0.3402
19595W        W35489   3.708   1.523  12.294 -0.0945 -0.0426 -0.0465
19596W        W35490  14.826   9.427  12.552  0.0827  0.1987 -0.0256
19597W        W35491   5.403  15.872  11.384  0.0017 -0.0663  0.1018
19598W        W35492  16.161   3.735  14.642 -0.0429  0.1084  0.1812
19599W        W35493  10.164   1.497  15.300 -0.2814  0.0383  0.1132
19600W        W35494  13.115   7.037   0.727 -0.1841 -0.0597  0.1116
19601W        W35495  11.621   2.001   4.169  0.0817  0.0695  0.0380
19602W        W35496  13.230   1.126  12.081  0.1083 -0.2234 -0.3849
19603W        W35497   0.500  17.777   3.222  0.2948 -0.1308 -0.2154
19604W        W35498  15.854   7.507   1.622 -0.1793  0.0726 -0.1198
19605W        W35499   9.138   5.146  15.350 -0.0827 -0.2350  0.1805
19606W        W35500   6.057  12.735  10.723 -0.3142  0.0726  0.0857
19607W        W35501   7.253   3.242  11.924  0.1160 -0.2723  0.3965
19608W        W35502  17.279  11.713   4.911 -0.1738 -0.1538  0.2326
19609W        W35503  14.494  14.629   0.506  0.2254 -0.1805  0.2329
19610W        W35504   8.674   7.369   1.393 -0.1163 -0.0267  0.0051
19611W        W35505  18.798  18.489   0.126 -0.4163 -0.4085 -0.2581
19612W        W35506   7.274   3.141  15.242 -0.3377  0.2240 -0.1657
19613W        W35507  12.244  16.252   0.765 -0.1717  0.0507  0.0553
19614W        W35508   6.121  13.716   4.799 -0.2368 -0.2371 -0.2134
19615W        W35509   5.607   3.393   2.398  0.1513  0.0219  0.0267
19616W        W35510   6.022  11.787  14.923  0.1301 -0.2985  0.0226
19617W        W35511   9.042   3.352   3.811  0.0752 -0.1045  0.1951
19618W        W35512  15.655   4.296   0.206 -0.0418  0.1015 -0.2303
19619W        W35513  12.136  10.775   1.455  0.1336 -0.1934  0.1871
19620W        W35514   1.951  16.550  12.822  0.0510  0.1234 -0.0921
19621W        W35515   2.616   8.892  11.680 -0.0662 -0.1412  0.2477
19622W        W35516   7.633  17.152   0.867 -0.0472  0.3557 -0.0419
19623W        W35517   9.515   8.125   4.309 -0.2355  0.1266  0.0335
19624W        W35518   6.530   8.997   2.901  0.0890  0.0754 -0.0536
19625W        W35519  16.992   2.777   4.805  0.0685  0.0108  0.1938
19626W        W35520  12.885  14.046   5.543  0.1247 -0.1790  0.0719
19627W        W35521   1.658  17.794   0.785  0.2336 -0.2281 -0.0953
19628W        W35522   6.540   3.351  13.078 -0.0363 -0.0973 -0.1126
19629W        W35523  13.747   4.526   0.175  0.0997 -0.0971 -0.0536
19630W        W35524   7.874   3.348   0.805  0.2817  0.1127  0.4146
19631W        W35525  11.144   1.379  14.717 -0.1166  0.3336  0.1470
19632W        W35526  11.618  17.593  12.934 -0.1938  0.1194  0.1338
19633W        W35527   0.524  15.262  12.561  0.0824  0.0597  0.0937
19634W        W35528   8.167  11.657  13.937 -0.0314  0.2150  0.2675
19635W        W35529  16.637   4.241   4.525  0.1353 -0.1786  0.1598
19636W        W35530  16.129  13.983  15.077  0.1678  0.0893  0.3829
19637W        W35531   4.620   2.848   3.889  0.2127  0.1037  0.0344
19638W        W35532  15.004  15.101  14.408 -0.3084 -0.1394  0.2573
19639W        W35533   2.305  18.538  11.220 -0.3418 -0.2037 -0.3811
19640W        W35534   4.435  14.775  11.508 -0.3139 -0.0486 -0.1287
19641W        W35535   1.127  14.285  12.305  0.0044  0.0696  0.2110
19642W        W35536   9.539  11.306   0.130 -0.3334  0.1341 -0.0161
19643W        W35537  10.815   4.150  14.652 -0.0940  0.1370 -0.0504
19644W        W35538   4.948  11.795   1.792 -0.0593  0.0608  0.2867
19645W        W35539   6.900   4.483   2.718  0.0354 -0.0530  0.0652
19646W        W35540   4.613   0.752  14.956 -0.0990  0.3709 -0.1334
19647W        W35541  17.781  12.210  12.629 -0.0732  0.2341  0.1300
19648W        W35542  10.621   3.162  13.703 -0.0529  0.2609  0.1685
19649W        W35543   4.503  10.404  13.723  0.5013  0.1662  0.1250
19650W        W35544   1.802  10.930  10.761 -0.3334 -0.2618 -0.0887
19651W        W35545  18.085  16.365   2.463  0.4490  0.0777  0.4244
19652W        W35546  10.548  14.896   4.467  0.2660 -0.0090 -0.1361
19653W        W35547   5.506   2.570   3.316  0.1010 -0.0112  0.2375
19654W        W35548  13.831   5.792   4.980  0.0582  0.0738 -0.0905
19655W        W35549  10.939  11.988  12.312 -0.2200  0.2995  0.1153
19656W        W35550   6.491   2.023   3.549 -0.0422 -0.2412 -0.1774
19657W        W35551  17.914   2.263   5.524 -0.2119  0.3594  0.1052
19658W        W35552   2.311   7.789   2.948  0.1688  0.0884 -0.0808
19659W        W35553  15.284  10.182   2.876  0.1425  0.1727  0.1939
19660W        W35554   1.497   6.527   5.194 -0.1328 -0.3412  0.0898
19661W        W35555  16.386   0.839   2.474 -0.0688  0.1457 -0.0397
19662W        W35556   8.188   7.829   0.706 -0.0401 -0.0488 -0.0918
19663W        W35557   3.278  10.095  11.557 -0.0777  0.1854 -0.0420
19664W        W35558  10.826  13.291   2.434 -0.0299  0.0766 -0.2276
19665W        W35559   3.271   7.893  13.406 -0.0526  0.0490 -0.1837
19666W        W35560  16.471   2.645  10.447  0.1430  0.0006  0.2124
19667W        W35561   1.752  12.388   0.282  0.0952 -0.0246 -0.2084
19668W        W35562   3.314   7.953   3.491  0.1703 -0.0607 -0.2918
19669W        W35563  14.922   8.581  11.293  0.1066  0.1143  0.3099
19670W        W35564  10.753  13.459   1.142 -0.0244 -0.0256 -0.0136
19671W        W35565   9.214   5.452   2.683 -0.2164  0.1648 -0.2442
19672W        W35566  12.029  17.412  12.668  0.1805  0.0368  0.0379
19673W        W35567  18.030  14.041  13.028 -0.3917  0.2211 -0.0793
19674W        W35568   5.110  18.610   0.503  0.0905 -0.1575 -0.1933
19675W        W35569  14.430   9.209  10.952  0.0435  0.0202  0.1325
19676W        W35570   5.700  13.860   1.551  0.0353 -0.2098 -0.0630
19677W        W35571  14.456  16.542   0.799 -0.1683 -0.0338 -0.2444
19678W        W35572   4.948  14.459   2.820  0.1593 -0.0682 -0.0816
19679W        W35573  10.062  11.469   2.929 -0.3371 -0.0609 -0.1099
19680W        W35574  17.035  11.818   0.156 -0.1751 -0.0199 -0.2941
19681W        W35575  12.428   0.486   4.422 -0.0117  0.1282  0.0014
19682W        W35576   7.868   0.313   5.326 -0.4136 -0.1691 -0.2835
19683W        W35577  12.951   8.244  12.740 -0.1311 -0.0494  0.1319
19684W        W35578   3.702   0.877  13.339  0.0403 -0.1903 -0.0207
19685W        W35579   3.626   7.185   0.960  0.0687 -0.2493 -0.5672
19686W        W35580  12.596  18.407   4.319 -0.0781 -0.2308  0.1125
19687W        W35581  17.616   0.553   4.436  0.1534  0.1342 -0.1984
19688W        W35582  18.864  18.541  14.170  0.2717  0.1431  0.0006
19689W        W35583  18.803   8.639   4.004  0.0044  0.0060 -0.0825
19690W        W35584   6.526  17.194   2.043  0.1801  0.4211 -0.2445
19691W        W35585   8.343   6.297  14.507  0.0686 -0.1653 -0.0751
19692W        W35586  18.595   6.129  15.412 -0.1898 -0.1693 -0.2101
19693W        W35587   8.093   0.291  11.287  0.0963  0.0581 -0.1234
19694W        W35588   5.611   0.924   5.127 -0.2088 -0.1342 -0.1108
19695W        W35589   8.505   6.111   2.722 -0.2064  0.1876 -0.2707
19696W        W35590   3.289   7.231  14.677  0.0589 -0.2975 -0.0401
19697W        W35591  12.586  16.725   4.191 -0.1996  0.0589  0.0942
19698W        W35592  16.305  18.110   1.209 -0.1386  0.0306  0.3811
19699W        W35593   3.877   6.779  15.169  0.2154 -0.1337  0.1127
19700W        W35594  11.738   1.005  14.512  0.1067 -0.0966  0.4483
19701W        W35595  15.655  12.004   3.426  0.0402  0.1086  0.2354
19702W        W35596   3.511  11.476   4.383 -0.0996  0.0482  0.0713
19703W        W35597   0.846  17.239   2.582  0.1330 -0.2672  0.0235
19704W        W35598   4.339  14.791  12.011  0.0162  0.0378 -0.2856
19705W        W35599   0.169   0.873   0.824  0.1308 -0.0967 -0.1205
19706W        W35600   9.123   4.526   2.244  0.0034  0.2880  0.0723
19707W        W35601  15.836  16.429   3.142  0.0200  0.3043 -0.3301
19708W        W35602   0.170  18.804  11.799 -0.0303  0.0966 -0.2355
19709W        W35603  11.432  10.898  10.721 -0.2123 -0.3103  0.0621
19710W        W35604   4.683   1.423   5.567 -0.0103 -0.2387 -0.3649
19711W        W35605   8.208  16.898   0.216 -0.0558  0.1925  0.1301
19712W        W35606   9.535  17.418   5.044 -0.3149 -0.1298 -0.1185
19713W        W35607  17.736   6.609  13.887 -0.3295 -0.1345 -0.0264
19714W        W35608   1.073  11.013  12.634  0.2860 -0.1812  0.1185
19715W        W35609  18.334   4.203  13.254 -0.1445  0.1122 -0.1683
19716W        W35610  18.809  18.421  12.478  0.0036 -0.0005  0.0221
19717W        W35611  14.873  13.453   5.597  0.0248  0.2239 -0.0918
19718W        W35612   5.560   6.543   3.556  0.0958 -0.2253 -0.2299
19719W        W35613   5.676  11.573   4.174 -0.1115  0.0239  0.0032
19720W        W35614  13.034  12.276  12.883 -0.0734  0.0098 -0.1938
19721W        W35615   4.022  16.055  12.941 -0.1680  0.1883 -0.1515
19722W        W35616  14.724   2.929  14.580  0.1337 -0.0155  0.1256
19723W        W35617   9.609  12.811   3.921 -0.1793 -0.0473 -0.2580
19724W        W35618  18.296   9.971  13.226  0.1273  0.0260 -0.2820
19725W        W35619   7.344   3.488  14.184  0.2700  0.0311 -0.1356
19726W        W35620  10.713  15.750   2.550 -0.2077 -0.0606 -0.0173
19727W        W35621   9.556  10.381  14.328 -0.0892 -0.0573 -0.0587
19728W        W35622   0.161   2.096  11.993 -0.0157  0.3187 -0.1865
19729W        W35623  10.545   5.131  12.522  0.2263  0.2543 -0.1382
19730W        W35624  12.155  18.259   3.602 -0.0512  0.0080  0.2123
19731W        W35625   5.110  10.535  11.196 -0.1677 -0.3349 -0.1978
19732W        W35626  15.130   4.603  10.495 -0.1220 -0.0025 -0.1612
19733W        W35627   5.645   2.303   5.210 -0.3355 -0.2603  0.0453
19734W        W35628   4.970  18.176  14.707 -0.1080 -0.1360  0.0896
19735W        W35629  14.582   0.638  11.315 -0.1198  0.0834 -0.0807
19736W        W35630  14.374   5.819   3.449 -0.3463 -0.0702  0.0986
19737W        W35631   8.913  14.020  13.629 -0.1482 -0.1659  0.1848
19738W        W35632  11.489   2.816  11.102  0.1506 -0.0832  0.3012
19739W        W35633  11.593   0.616  11.897  0.0528 -0.3306 -0.1218
19740W        W35634  12.723   9.253   5.099  0.0078 -0.1675  0.2633
19741W        W35635  11.728   4.187  11.131  0.1311 -0.2090  0.0246
19742W        W35636  12.095   0.892   4.352 -0.0590  0.1786  0.0494
19743W        W35637  14.963   2.911  14.056 -0.0127 -0.0264  0.0395
19744W        W35638   6.624  15.394   2.025  0.2741 -0.0755  0.2748
19745W        W35639  17.435   1.300  11.043 -0.0613  0.1096 -0.1090
19746W        W35640   4.228  12.461   4.301  0.0023  0.1839  0.1725
19747W        W35641  12.452   6.446  12.638 -0.0419 -0.0991  0.1318
19748W        W35642   9.539   0.746  11.907  0.0027  0.0576 -0.0526
19749W        W35643   9.608  11.433  15.127 -0.1530 -0.2684  0.0612
19750W        W35644  14.281   5.861   0.920 -0.1955 -0.1577 -0.0050
19751W        W35645  17.295   8.772  10.209  0.2841  0.0287 -0.2485
19752W        W35646   9.194  12.315   2.225 -0.1298  0.2978 -0.0185
19753W        W35647  18.514   6.042   5.216 -0.1299  0.0130 -0.0183
19754W        W35648   9.499  11.225  14.689 -0.0433 -0.2716 -0.1134
19755W        W35649  14.746   4.269   1.613 -0.1299  0.0419 -0.0607
19756W        W35650  15.980  11.989  11.726  0.1291 -0.0632 -0.0704
19757W        W35651  16.069   0.907   3.200 -0.3419  0.0298 -0.2578
19758W        W35652   6.919   2.192   3.909  0.1408  0.3307 -0.1788
19759W        W35653   5.616   6.800   3.087 -0.1660 -0.0153  0.1782
19760W        W35654   1.404   9.064  15.167  0.1690  0.0467  0.2229
19761W        W35655   1.901  10.068   3.447 -0.0715 -0.6443 -0.1963
19762W        W35656  15.112   3.880   4.733  0.2172 -0.2275  0.5900
19763W        W35657  13.489  10.911   4.415 -0.1219  0.2890 -0.0372
19764W        W35658   0.796   2.659  13.968 -0.2859 -0.0830 -0.1523
19765W        W35659   7.743   2.632  14.557  0.2748 -0.0024  0.0135
19766W        W35660  10.917  10.165   0.527 -0.2031  0.0963  0.0150
19767W        W35661   1.808   3.798   0.935 -0.2934 -0.3973 -0.0366
19768W        W35662  10.668   6.772  15.117 -0.1254 -0.0490  0.0567
19769W        W35663  10.854  12.970   1.379 -0.1519 -0.3384  0.2677
19770W        W35664   6.657  10.826   1.768  0.0828  0.2740 -0.2706
19771W        W35665  13.563  18.388   0.146 -0.1645  0.0021  0.2283
19772W        W35666  15.796   9.015  11.174 -0.3317 -0.0153 -0.1213
19773W        W35667   5.107   3.183   4.788 -0.3662  0.0291  0.0868
19774W        W35668  11.441   3.323  11.015 -0.0419 -0.2121 -0.1530
19775W        W35669  16.515   2.595  11.902 -0.4007 -0.2837  0.1336
19776W        W35670   1.627  12.069  11.841  0.1481 -0.1878  0.2956
19777W        W35671  12.028  18.675  15.479  0.1432  0.1629  0.1253
19778W        W35672   2.497  10.674   3.762 -0.3644 -0.0132 -0.0915
19779W        W35673  15.495  16.962  11.467 -0.0527  0.1229  0.1703
19780W        W35674   4.672   8.841  14.642  0.1055  0.0790  0.2761
19781W        W35675  18.574   4.792  13.951 -0.0110  0.1045  0.4142
19782W        W35676   3.219   8.680  14.720 -0.0253 -0.0417  0.2235
19783W        W35677   4.587  12.729   0.143 -0.0144  0.0453  0.1385
19784W        W35678   8.499   1.020   2.168  0.0592  0.2986 -0.0119
19785W        W35679  17.186   0.249   0.992  0.0057 -0.3308 -0.1309
19786W        W35680   1.594   6.207  11.521  0.1295 -0.1334  0.2686
19787W        W35681   4.295  17.733   0.661  0.1795  0.4422  0.0625
19788W        W35682   0.905  14.513  13.684 -0.1730  0.1041  0.1933
19789W        W35683  11.401  13.034  12.727  0.0357  0.3266 -0.0649
19790W        W35684   7.173  12.014   2.647  0.0717  0.0077 -0.1490
19791W        W35685  16.276   9.908  15.205 -0.0862  0.1005  0.0836
19792W        W35686  12.939   4.731  11.212 -0.0427  0.0024  0.0192
19793W        W35687   7.566   2.364  15.005 -0.0385 -0.0774 -0.3952
19794W        W35688   4.282   8.995   4.826  0.0216 -0.0300  0.2194
19795W        W35689  15.669  17.586   5.379  0.4338 -0.0488  0.0880
19796W        W35690   1.266   8.989   4.946  0.0301  0.2660 -0.2352
19797W        W35691  13.999  18.761  12.213  0.1092 -0.0294  0.3511
19798W        W35692  12.226   8.358   1.346 -0.6616 -0.2484  0.3194
19799W        W35693  10.419   0.719  11.543  0.1197  0.0950  0.2968
19800W        W35694   2.818  17.494  14.936  0.4149 -0.0593  0.0889
19801W        W35695  13.525  15.152  14.608  0.0181  0.0524 -0.2481
19802W        W35696   3.423  18.583   4.180  0.1687 -0.1715  0.1378
19803W        W35697  16.351   0.116  12.312  0.0254 -0.0208  0.3039
19804W        W35698   7.920   6.591  15.363  0.0283  0.0516 -0.1166
19805W        W35699   1.887   5.420  14.101 -0.1231  0.0169  0.1626
19806W        W35700  15.987   9.013   2.186  0.0626 -0.0850  0.0496
19807W        W35701  18.370   9.164  11.150 -0.0119  0.0863 -0.3088
19808W        W35702  17.631  16.798   2.854  0.4046  0.1853  0.0299
19809W        W35703  10.717   7.126  15.453  0.1145 -0.0890  0.0774
19810W        W35704  14.313  18.195   6.429 -0.4614 -0.1881 -0.2168
19811W        W35705   7.805   5.289   4.278  0.0255  0.1863 -0.1118
19812W        W35706  11.207   4.223   0.822  0.1250 -0.0910 -0.2886
19813W        W35707  14.422   1.110   0.245 -0.0418  0.0442  0.1117
19814W        W35708  12.512   4.041  13.814  0.1485  0.0108  0.0190
19815W        W35709   8.285   9.266   3.433  0.2986  0.1287  0.4459
19816W        W35710  15.547  17.365  13.346  0.1141  0.1710 -0.2174
19817W        W35711  16.906  10.008   0.366 -0.1747 -0.3840 -0.0558
19818W        W35712  13.441   4.700  15.271 -0.4248  0.2968 -0.1397
19819W        W35713   8.272   4.565   3.881  0.0245  0.0374  0.0416
19820W        W35714   6.248   7.742   4.247 -0.1214 -0.1274 -0.0442
19821W        W35715  14.292  15.318   0.234 -0.0842 -0.2287  0.1231
19822W        W35716   0.334  11.172   4.821 -0.1012  0.1866 -0.0938
19823W        W35717   9.294   1.321  12.861  0.4712  0.0115  0.0128
19824W        W35718  15.395  11.349  12.403  0.2218  0.0639 -0.0200
19825W        W35719   9.746  14.498  14.358  0.1442 -0.1036  0.2138
19826W        W35720   9.711  17.272   0.116  0.3505  0.0829  0.2341
19827W        W35721  12.723   0.430  12.511 -0.2429 -0.2530  0.1667
19828W        W35722  10.519  11.230   1.874 -0.1135 -0.0796 -0.0886
19829W        W35723   1.817  10.912   1.060  0.1478 -0.0187  0.0846
19830W        W35724   7.979   5.079   2.005  0.1166  0.0715 -0.0957
19831W        W35725   4.825   6.811   1.023 -0.1693  0.2791  0.3108
19832W        W35726   5.565   9.013  13.737  0.0134  0.1790  0.2410
19833W        W35727   9.611   7.629   1.195  0.1167  0.3841 -0.1675
19834W        W35728   9.514  15.581  15.148  0.0602  0.0573  0.0884
19835W        W35729   1.618   0.576  12.376 -0.2657  0.1442 -0.1745
19836W        W35730   5.423   0.578   2.082 -0.2224 -0.3790  0.3602
19837W        W35731   1.069   8.996   2.006 -0.3062 -0.2687 -0.5351
19838W        W35732  17.035  16.410   2.998 -0.1116  0.0525  0.2068
19839W        W35733   3.141   9.737   2.781 -0.2439 -0.0638 -0.3169
19840W        W35734  14.164  16.194  12.642 -0.3896 -0.1548 -0.0361
19841W        W35735  14.836   5.776  10.561 -0.1488  0.3538 -0.1173
19842W        W35736   0.276   0.718   0.286  0.2522  0.4604 -0.0206
19843W        W35737  15.994  18.864   1.015 -0.0613  0.2575 -0.2128
19844W        W35738   8.498   9.437  11.531 -0.2152 -0.1253 -0.3029
19845W        W35739  18.799   8.328  10.985 -0.1476  0.2264 -0.0918
19846W        W35740   9.634   1.634   3.940  0.3072  0.0947 -0.0118
19847W        W35741   3.114  14.058   1.437 -0.1187 -0.3355 -0.1138
19848W        W35742  15.721   6.283  13.434  0.2535 -0.0372 -0.2481
19849W        W35743   3.897  13.447   1.087  0.1069 -0.2272  0.1024
19850W        W35744   9.704   7.438   5.116  0.0786 -0.0137 -0.0096
19851W        W35745   7.685  16.894   2.043 -0.0887  0.1210 -0.4977
19852W        W35746   2.853   1.947   2.503 -0.1079 -0.0436  0.0497
19853W        W35747   7.889  11.486   3.065  0.0762 -0.2184  0.4070
19854W        W35748   2.982   9.631  11.293  0.2359 -0.0645  0.3458
19855W        W35749  17.454   2.373  10.174 -0.1670 -0.3085  0.1292
19856W        W35750  17.917   6.167  13.181  0.0108  0.0992  0.1800
19857W        W35751   6.749  16.551   3.844 -0.3194 -0.1145 -0.2390
19858W        W35752   5.438   4.833   2.537  0.1903  0.0777 -0.1239
19859W        W35753  11.646  14.404   2.673 -0.1243  0.0678 -0.1480
19860W        W35754   5.531   8.787  15.092  0.1559 -0.1106  0.2878
19861W        W35755   7.360  11.205  12.498 -0.2443  0.0151 -0.1298
19862W        W35756   4.979   4.252  13.926  0.1983  0.0881  0.2221
19863W        W35757  16.341  13.603  14.765 -0.2379 -0.0380  0.0185
19864W        W35758   2.112   2.426   9.638  0.0445  0.0606  0.0813
19865W        W35759   6.093  15.880  14.838  0.1564  0.0900 -0.3121
19866W        W35760   1.646   2.054   2.108  0.1356 -0.2305  0.1491
19867W        W35761   5.899  18.572  15.350  0.1967 -0.4445  0.4056
19868W        W35762   4.033  14.447   3.586 -0.1001  0.1303 -0.2591
19869W        W35763   0.620   0.162   2.778  0.0630  0.0344  0.4130
19870W        W35764  10.842   8.489   4.934  0.1789 -0.1321  0.1139
19871W        W35765  14.709  18.336   6.064  0.0966 -0.1009 -0.0374
19872W        W35766  12.230   0.520  12.869  0.2438 -0.0636 -0.3142
19873W        W35767  17.756   9.994  11.362 -0.0069 -0.1769 -0.0702
19874W        W35768  15.831   8.582   4.330 -0.2544 -0.2637  0.0540
19875W        W35769   6.206   8.991  13.146  0.2083  0.2719 -0.1346
19876W        W35770   2.189   5.187   1.122 -0.2190 -0.0976  0.0163
19877W        W35771   4.667   5.355  15.417  0.0531 -0.0507 -0.0703
19878W        W35772  16.399   3.834  11.504  0.0606 -0.3570  0.2622
19879W        W35773  11.239   7.601   2.319 -0.0598  0.2490 -0.0802
19880W        W35774   4.505   5.493   3.501  0.0756  0.1571 -0.0943
19881W        W35775  11.870   3.879  12.399 -0.0399  0.0239 -0.2734
19882W        W35776   5.049  17.816  11.644 -0.3107  0.0132 -0.0193
19883W        W35777  10.953   4.645  10.780 -0.1791  0.0686  0.1279
19884W        W35778   9.098  14.981  12.568  0.0888  0.0166 -0.2997
19885W        W35779  18.653  13.264   0.739 -0.1380 -0.0521 -0.1884
19886W        W35780   0.900  13.710   4.930 -0.0257 -0.3246 -0.0685
19887W        W35781   9.385   3.068  15.318  0.1084 -0.0786  0.4598
19888W        W35782   2.785   8.225  13.843  0.3550  0.0706  0.2431
19889W        W35783   3.757  15.936  12.119 -0.2959  0.0879  0.0425
19890W        W35784   8.306   3.332  12.396 -0.0246  0.2268  0.1196
19891W        W35785  16.578   4.779   2.468 -0.2424 -0.2096 -0.3016
19892W        W35786   2.341  12.230  13.116 -0.1480 -0.0240  0.1534
19893W        W35787   3.760   3.615   3.764 -0.2000  0.0402  0.0758
19894W        W35788   6.375  10.116   1.544 -0.0439 -0.0307  0.1290
19895W        W35789   8.592  15.814  14.869  0.1316  0.3352  0.2406
19896W        W35790  11.211  11.196   2.804  0.1212  0.3571 -0.1474
19897W        W35791   8.202  16.641  11.412 -0.0733  0.0143 -0.3169
19898W        W35792   0.462   8.958  11.413  0.0010  0.3365 -0.2033
19899W        W35793   2.437   9.699  11.426  0.0856  0.0935 -0.1211
19900W        W35794   6.826  14.030  12.575 -0.0869  0.3286 -0.0973
19901W        W35795   1.982  16.909  13.436  0.1561 -0.0240 -0.1999
19902W        W35796   6.635   0.106   1.940  0.2351  0.2333 -0.3418
19903W        W35797   2.981   7.314  15.158 -0.1738  0.0811  0.2021
19904W        W35798   3.701   2.714   3.264  0.1211 -0.4142  0.3549
19905W        W35799   2.458   5.741  15.271 -0.0879  0.0656  0.2976
19906W        W35800   2.382   6.275   2.978  0.1074 -0.2013  0.0463
19907W        W35801   3.295  17.755  11.931 -0.0599  0.0732 -0.1399
19908W        W35802  11.444  18.703   1.727 -0.0956 -0.0849 -0.0877
19909W        W35803   3.435  14.676  12.504 -0.0654 -0.2627 -0.3019
19910W        W35804   1.903   2.369   3.999  0.0545  0.3063  0.2252
19911W        W35805  10.537   6.987   4.749 -0.2642 -0.4508 -0.0605
19912W        W35806   9.712   0.299   4.078  0.0740  0.0482  0.3636
19913W        W35807   6.468  14.005  10.910  0.3467 -0.3688 -0.0821
19914W        W35808  10.094  17.979   0.177 -0.2236  0.3404  0.1110
19915W        W35809   0.147  18.077  13.674  0.0190  0.0625 -0.1646
19916W        W35810   8.714   4.494  11.181 -0.0462 -0.3421  0.0459
19917W        W35811  17.362  16.397   4.732 -0.0741 -0.0015 -0.0906
19918W        W35812   1.394   0.959  14.027  0.3404 -0.0286 -0.0913
19919W        W35813   0.764   9.031  11.916 -0.2295 -0.0090 -0.0151
19920W        W35814   8.899   6.571  11.899  0.3269  0.0337  0.2255
19921W        W35815   9.502  16.010  12.134 -0.0640 -0.2581  0.3632
19922W        W35816  13.427  10.902   1.176 -0.1701 -0.0882  0.0367
19923W        W35817   6.219  17.956  15.197  0.0701 -0.0690 -0.1258
19924W        W35818  13.464   9.258  14.095 -0.1707 -0.3256 -0.2206
19925W        W35819   3.792   0.968   3.423  0.0575 -0.0014 -0.1152
19926W        W35820   1.008   4.084   0.334  0.1380  0.0438  0.1863
19927W        W35821   0.332   8.689   3.690 -0.2456  0.1908  0.1456
19928W        W35822   9.629   3.493   4.669  0.1283  0.1255  0.0664
19929W        W35823   7.944   5.308   5.251  0.5336  0.3564 -0.2397
19930W        W35824  18.041   1.319  12.154  0.3818  0.1973 -0.0803
19931W        W35825   1.833   9.073  10.878  0.4988 -0.3895 -0.1339
19932W        W35826   9.867  10.050   3.073 -0.0094  0.0509 -0.1814
19933W        W35827  10.610  15.129  12.108 -0.2305 -0.0578 -0.1599
19934W        W35828  18.575   1.059  10.334 -0.0732  0.4138 -0.3119
19935W        W35829  11.327   5.279  14.519  0.1289  0.1561  0.2067
19936W        W35830   8.617   9.471   4.789 -0.2749 -0.0785  0.2027
19937W        W35831  15.245  18.790  12.920  0.1532 -0.3077 -0.3847
19938W        W35832  15.185   4.077   0.412  0.2101 -0.2096 -0.1963
19939W        W35833  11.931  10.073   0.432  0.0087 -0.2017 -0.3027
19940W        W35834   4.979  17.045   3.037 -0.2807 -0.1549 -0.0912
19941W        W35835  12.026  17.331   4.022  0.0933 -0.0669 -0.0896
19942W        W35836   2.871   7.586   2.751  0.0130  0.1552 -0.1099
19943W        W35837  11.058   5.705   4.063  0.2499  0.4837 -0.2366
19944W        W35838   7.914   1.525   4.398 -0.1115 -0.3367 -0.0266
19945W        W35839  16.014  12.627   2.420  0.1184  0.2058 -0.0276
19946W        W35840  12.541   4.213   3.646  0.2547 -0.1306 -0.0127
19947W        W35841   2.539   9.737   5.567 -0.1472  0.0008  0.1655
19948W        W35842  16.577   2.574  13.542  0.3344  0.2735  0.0047
19949W        W35843   8.511  18.801   2.727  0.2881 -0.0178 -0.0226
19950W        W35844  10.849  11.074  13.052 -0.2686  0.3002  0.0611
19951W        W35845   3.217   0.516   1.949  0.0668 -0.1445  0.0055
19952W        W35846  16.703   6.046  11.614 -0.0733  0.0736 -0.1709
19953W        W35847  18.092  16.946   3.655 -0.0895  0.0496  0.0476
19954W        W35848  10.669   5.302  15.474  0.0138 -0.0862  0.1637
19955W        W35849  16.232   6.585  10.690  0.0228  0.1479  0.0453
19956W        W35850   0.814  15.793  15.342  0.1074 -0.2650 -0.2637
19957W        W35851   8.504   3.898  11.339  0.2764 -0.0702 -0.0272
19958W        W35852   4.523  14.216  10.310 -0.0138 -0.0770 -0.0426
19959W        W35853  18.805   9.676   4.849  0.1643 -0.2432  0.1790
19960W        W35854   6.451   1.879   0.383 -0.3706  0.1375  0.2352
19961W        W35855  12.422   9.692   3.216 -0.1187  0.2309 -0.0572
19962W        W35856  11.639  10.644  11.665 -0.2694  0.0840  0.1112
19963W        W35857   7.933  16.757   4.649  0.0220 -0.4816  0.1210
19964W        W35858   1.766   2.864  11.231  0.1787 -0.2087  0.1826
19965W        W35859   2.727   8.092   3.307  0.5106 -0.3109 -0.4042
19966W        W35860  10.767  16.364   4.968 -0.0892  0.2815 -0.0909
19967W        W35861   0.319  18.126  15.281  0.2279 -0.5103  0.0014
19968W        W35862   0.201   6.061  11.913 -0.0153 -0.3660 -0.0831
19969W        W35863  15.521   3.285  15.388 -0.0886  0.3623  0.1676
19970W        W35864  13.623  13.267  14.662 -0.1040 -0.3749 -0.3472
19971W        W35865   1.769  13.577   4.544  0.3371 -0.3300  0.3294
19972W        W35866  15.309  11.025  14.400  0.1444  0.3699  0.0099
19973W        W35867  16.749   0.040  12.644 -0.0625  0.3581  0.0791
19974W        W35868   7.960  10.436   0.761  0.0400  0.0644  0.1502
19975W        W35869  12.319   9.058   1.546 -0.0905  0.0478  0.0403
19976W        W35870   3.368   8.642  15.407 -0.0806  0.2909  0.3637
19977W        W35871  17.241   5.097   2.143  0.1930  0.1935 -0.3180
19978W        W35872  18.226  17.914  13.940 -0.0116 -0.0563 -0.1531
19979W        W35873   6.925  14.034  11.514 -0.0318 -0.2852  0.1855
19980W        W35874  14.257   4.485   0.204 -0.1401  0.2023 -0.1425
19981W        W35875   1.591   9.014   3.770 -0.1102 -0.0479  0.0538
19982W        W35876   0.513   1.957  11.238  0.1815  0.0602 -0.1636
19983W        W35877  17.417  17.469   2.797  0.0981  0.2904 -0.1913
19984W        W35878  13.722  17.078  13.029  0.0205 -0.2512 -0.1701
19985W        W35879   2.658   1.028   2.351 -0.0838  0.0010 -0.3672
19986W        W35880   1.221   4.709   4.799 -0.3170 -0.1461  0.0877
19987W        W35881   1.579  17.802  13.360  0.0691  0.0263  0.2244
19988W        W35882   8.546  15.883   5.550 -0.1254 -0.2194  0.0147
19989W        W35883   3.793  16.951  12.135 -0.0423 -0.0405  0.0427
19990W        W35884   2.055  16.045  14.495 -0.3654 -0.1952 -0.1286
19991W        W35885   9.966  16.327  13.881  0.0127  0.1181  0.3750
19992W        W35886  16.423  14.472   2.497  0.1820 -0.1868  0.1117
19993W        W35887  11.419   0.188   3.480  0.0723 -0.1087 -0.0249
19994W        W35888  14.037  17.597   0.621  0.0582  0.2364 -0.0122
19995W        W35889  12.397  12.625   3.827 -0.0703  0.2793 -0.0101
19996W        W35890   5.553   9.493  13.167  0.1235  0.0968 -0.1670
19997W        W35891  14.366  18.583  13.412  0.1130 -0.3844  0.0937
19998W        W35892   7.835  17.682  12.824 -0.3854 -0.2171 -0.4207
19999W        W35893  13.564   3.827   4.359  0.4343 -0.0787  0.0220
20000W        W35894  16.093   4.712  13.797  0.1314 -0.0407  0.2553
20001W        W35895  10.145  15.945  12.942 -0.0570 -0.4966  0.2345
20002W        W35896   7.556   0.071  13.580 -0.1449  0.0387  0.0294
20003W        W35897   9.228  17.986   4.839  0.0541 -0.2234  0.1282
20004W        W35898   3.201   8.295  10.104  0.0942  0.0243 -0.2021
20005W        W35899   5.045   7.871   2.890 -0.0921  0.0698  0.2079
20006W        W35900  15.673   2.814   1.384 -0.0780  0.1501 -0.4180
20007W        W35901   4.843   0.200  13.158  0.1077  0.3636  0.1440
20008W        W35902   3.130  17.038  14.865 -0.1474  0.3142 -0.2034
20009W        W35903   3.609   5.346   0.754 -0.0524 -0.3916 -0.2413
20010W        W35904  12.210   5.793   3.951 -0.0334  0.2555  0.1399
20011W        W35905  13.060   5.298   2.361  0.0221  0.0386  0.1498
20012W        W35906  16.975   2.372   1.018 -0.2263 -0.0717  0.0065
20013W        W35907   3.791   2.756  14.939  0.1289  0.2314  0.0067
20014W        W35908   7.462   3.858   2.736  0.0933 -0.1325 -0.1170
20015W        W35909   9.352  12.081  11.227  0.1298  0.1844  0.1561
20016W        W35910  14.300  15.292  11.763 -0.1026  0.4306  0.0466
20017W        W35911   0.719   8.299   1.655  0.0452 -0.2263 -0.0989
20018W        W35912   8.731  16.200   0.312 -0.1533  0.2154 -0.4334
20019W        W35913   3.230  12.430   1.275  0.1885 -0.1817 -0.1138
20020W        W35914   9.552   0.801   0.148  0.4107  0.0526 -0.0476
20021W        W35915  15.971  10.815   4.689  0.0096  0.0358 -0.0558
20022W        W35916  13.291  18.327   5.690  0.1220  0.0522 -0.5361
20023W        W35917   7.371  17.682  11.941 -0.1765  0.1733  0.1313
20024W        W35918   0.599   0.924  11.544 -0.0321  0.1995  0.0371
20025W        W35919   1.109   6.894  10.761  0.1074  0.3957  0.1246
20026W        W35920  14.721   3.019   1.218  0.0691 -0.1650  0.1216
20027W        W35921  10.879  18.505  10.321  0.0632  0.2343 -0.1059
20028W        W35922  17.455   5.434   3.057 -0.0339 -0.3292 -0.1532
20029W        W35923   0.693   0.989  13.201 -0.3782  0.0073  0.0136
20030W        W35924  10.704   9.012   4.217  0.1003 -0.1264  0.0466
20031W        W35925   4.927   6.602  15.476 -0.1461  0.1491 -0.2004
20032W        W35926  15.436   3.074   0.513 -0.1939 -0.3198  0.0185
20033W        W35927  13.675  14.031   3.357 -0.2273  0.1756  0.1621
20034W        W35928   3.031   1.522   0.062 -0.0478 -0.0187 -0.0705
20035W        W35929   4.239   8.110  10.512 -0.2257  0.1392 -0.2053
20036W        W35930  11.082  17.487  15.180 -0.0164 -0.0683  0.0865
20037W        W35931   0.425  15.579   1.119  0.1067 -0.2448  0.0757
20038W        W35932   6.765  17.597  11.155 -0.1794 -0.3598  0.3415
20039W        W35933   7.689   1.931   2.687 -0.0254 -0.2844 -0.1368
20040W        W35934  14.521  14.523   2.411  0.0491  0.0601 -0.0803
20041W        W35935   7.824   9.876  14.570 -0.0781  0.2044 -0.4013
20042W        W35936   6.755   7.657   2.600 -0.0988 -0.0486 -0.0000
20043W        W35937  18.147  14.194  11.221 -0.4051  0.1654 -0.1283
20044W        W35938   7.365  14.253  15.330  0.1217  0.1116 -0.0994
20045W        W35939  12.231   3.625   0.828 -0.1002 -0.1522  0.1074
20046W        W35940  16.025  10.110  12.541 -0.2760  0.3492  0.2748
20047W        W35941   6.513   5.380  15.433 -0.0158 -0.3262 -0.0554
20048W        W35942   7.111  15.235  15.241  0.0483 -0.4229 -0.2636
20049W        W35943   3.600   9.756  11.272  0.2385  0.0834 -0.1478
20050W        W35944  13.721  11.478   5.075  0.1361 -0.2074  0.0709
20051W        W35945   3.591   9.879  12.401 -0.1447 -0.0604 -0.1651
20052W        W35946   2.132  11.283   1.471 -0.0157 -0.2181 -0.1610
20053W        W35947   7.977   8.940   4.122  0.1487 -0.0404 -0.2244
20054W        W35948  14.053  12.635   1.823 -0.0499  0.0829 -0.1858
20055W        W35949  16.091   0.632  15.054  0.1807 -0.0737 -0.2514
20056W        W35950  13.617   8.826  12.871 -0.4463 -0.3379 -0.0295
20057W        W35951  15.170   2.570  10.993 -0.0113 -0.0282  0.0544
20058W        W35952   2.386   1.153  12.053 -0.0447  0.1385  0.3929
20059W        W35953  12.507   3.745   5.475  0.1581 -0.0148 -0.1032
20060W        W35954  17.169  17.470   2.347  0.3722 -0.0792 -0.4950
20061W        W35955  13.901  17.483   4.479 -0.0823 -0.2646  0.2210
20062W        W35956  10.020   4.358   1.131 -0.0057 -0.0131  0.2986
20063W        W35957  14.869   8.825  14.438  0.2076  0.3188  0.0836
20064W        W35958  11.753   1.292  13.164 -0.3024 -0.0288  0.2581
20065W        W35959  11.878  13.158  13.531  0.0755 -0.0161 -0.0455
20066W        W35960   3.218   6.796  12.026 -0.1615 -0.0045  0.1367
20067W        W35961   7.296   6.661  12.822 -0.0419 -0.3316  0.1678
20068W        W35962  12.203  14.377  14.275  0.0397  0.0347 -0.0356
20069W        W35963   2.623   0.213  15.008 -0.1291 -0.1782 -0.1989
20070W        W35964   1.226   6.212   0.777 -0.6778  0.2469  0.1778
20071W        W35965   9.891  13.177   3.799 -0.0664 -0.0219  0.0844
20072W        W35966   8.601   0.476  11.570  0.1236  0.3128  0.1550
20073W        W35967  13.725   4.340  14.236  0.1252 -0.2485 -0.3232
20074W        W35968   3.929   3.857   0.988  0.2335  0.0370 -0.0478
20075W        W35969  11.849   2.249   2.013 -0.0119 -0.0320  0.1007
20076W        W35970   0.376  14.049   0.673 -0.1233 -0.0191  0.0635
20077W        W35971   9.888   5.963  14.323 -0.0605 -0.2746  0.1895
20078W        W35972   3.116  10.296   4.928 -0.1251 -0.0025  0.0008
20079W        W35973  12.148  16.513   2.978  0.1462  0.0311  0.0552
20080W        W35974  12.464  18.157   5.969  0.0567  0.1281  0.2116
20081W        W35975  13.250   0.281  13.882  0.0222 -0.0203 -0.2584
20082W        W35976   8.769  14.818   4.383  0.0936  0.3958 -0.0675
20083W        W35977   4.041   7.663  15.217 -0.0798 -0.1086 -0.1111
20084W        W35978   4.490  18.731  13.081 -0.2720 -0.0005 -0.1445
20085W        W35979   4.715  11.947   0.825 -0.0737  0.1093 -0.0883
20086W        W35980   0.701  14.435  14.155 -0.1108 -0.0448  0.1804
20087W        W35981   7.889  17.963  11.899  0.0981  0.1680  0.0720
20088W        W35982   7.716   7.004   1.784 -0.1867 -0.0245 -0.2644
20089W        W35983  13.942   2.188   1.034  0.0995  0.0670  0.2313
20090W        W35984  10.808   4.740   1.099  0.1351 -0.0613  0.1656
20091W        W35985   2.025   4.478   4.205  0.0476 -0.0299 -0.2419
20092W        W35986  11.577  18.520   6.156 -0.0673  0.0668  0.2791
20093W        W35987   9.249   8.886  14.066  0.1049  0.0680 -0.0175
20094W        W35988   9.537  16.154   3.169  0.1868 -0.2289  0.0936
20095W        W35989  15.675   5.034   4.688 -0.0806 -0.0988  0.0945
20096W        W35990   6.173  10.869   3.006  0.2507 -0.2772 -0.4033
20097W        W35991  15.941   9.537  10.866 -0.4859 -0.0401  0.1567
20098W        W35992   1.497  16.952   1.288 -0.1804 -0.3719 -0.1710
20099W        W35993   8.848  11.644  13.365  0.1124 -0.2153 -0.0915
20100W        W35994   5.647  17.529   1.221 -0.0864 -0.2123  0.0753
20101W        W35995   7.849  15.370   0.075  0.1052 -0.0860 -0.3180
20102W        W35996  18.601  15.506   3.531  0.0781 -0.0142 -0.1216
20103W        W35997   9.428  13.436   5.578  0.1538 -0.1548  0.1450
20104W        W35998   5.446  16.173   1.035  0.0011  0.3192  0.2978
20105W        W35999   1.144  12.436   2.041 -0.2949 -0.2679  0.2215
20106W        W36000  14.257   7.185   2.897  0.0571  0.1159  0.0016
20107W        W36001   5.447   4.523   0.333  0.1226  0.0291 -0.2187
20108W        W36002   2.443   2.830   0.009  0.0349  0.3420  0.1024
20109W        W36003   7.009   1.103  13.940 -0.2981 -0.1035  0.1284
20110W        W36004   1.443   8.632   1.959 -0.0576 -0.2412 -0.2111
20111W        W36005   5.478  11.900   0.839  0.0676  0.1145  0.1381
20112W        W36006   2.632  16.404   2.163 -0.0179 -0.0477  0.2983
20113W        W36007   7.259  12.826   4.536 -0.2838  0.1326  0.0772
20114W        W36008   0.925   8.966  15.029 -0.1732 -0.0630  0.2034
20115W        W36009   5.687   4.018   3.183  0.0418  0.1518 -0.3035
20116W        W36010  18.209   5.159  13.117 -0.0810  0.0080 -0.1474
20117W        W36011  15.841  15.959  11.714 -0.1453  0.1002 -0.2896
20118W        W36012   7.896   8.446   1.904  0.1036  0.1899 -0.0461
20119W        W36013   9.057   1.189   2.791  0.1684 -0.1311 -0.1862
20120W        W36014  15.193   9.159  14.664 -0.3101  0.2631 -0.2719
20121W        W36015  14.805   9.112   4.667 -0.2443  0.0319  0.0866
20122W        W36016   4.291  15.540  14.242  0.0682  0.2309 -0.1165
20123W        W36017  14.156  15.752  11.930  0.2634  0.0248  0.1501
20124W        W36018  15.759   3.085  14.527 -0.1693 -0.1781 -0.0343
20125W        W36019  11.465  17.870  15.150  0.0778  0.2232  0.2211
20126W        W36020   8.783   7.536   5.070  0.0455 -0.2197  0.1123
20127W        W36021   6.454   9.311  13.464  0.3908  0.1787  0.0039
20128W        W36022   2.248   1.009   1.836 -0.0592  0.1494  0.0204
20129W        W36023   5.373   6.139  10.438  0.1834  0.0324  0.3415
20130W        W36024  15.681   3.618  12.137 -0.0192 -0.3752  0.2913
20131W        W36025   7.741  13.022  12.867  0.1753  0.0384  0.2424
20132W        W36026   5.975   0.090   2.732 -0.0944 -0.1773  0.1861
20133W        W36027   1.001  15.820   0.559  0.2134 -0.2033 -0.2387
20134W        W36028   2.337  18.257  13.658  0.3505 -0.1313 -0.4348
20135W        W36029  15.531   5.392  13.706 -0.0604 -0.0452  0.0397
20136W        W36030   3.082  13.617   0.682  0.0259  0.0865  0.4860
20137W        W36031   1.026  16.186   0.130 -0.0007 -0.1878  0.2729
20138W        W36032  13.293  11.594  12.842  0.0414 -0.1740 -0.1399
20139W        W36033   2.799  15.672  11.483 -0.0272  0.0283  0.0652
20140W        W36034   6.620  10.964   3.721  0.0551  0.0193 -0.0574
20141W        W36035   3.865   3.376   0.771  0.2144  0.3607  0.0762
20142W        W36036  14.460   6.800   1.175 -0.2544  0.0031  0.0532
20143W        W36037   6.360  12.449  14.806  0.0104 -0.0537 -0.0130
20144W        W36038  10.933   3.137   2.316 -0.1277 -0.4398 -0.4321
20145W        W36039   3.760  14.982   1.937  0.2844 -0.1118  0.0723
20146W        W36040   5.310  13.356   4.095 -0.1956  0.1900 -0.0908
20147W        W36041   4.148   9.418  12.645  0.2650 -0.1997  0.0457
20148W        W36042   3.529   6.487   0.088  0.2555  0.1163  0.1937
20149W        W36043   3.503  14.930  12.905  0.1070 -0.0073 -0.0093
20150W        W36044  18.354   2.022  15.323  0.0621  0.2551  0.0602
20151W        W36045   3.763   2.712  12.739 -0.2687  0.0632  0.0278
20152W        W36046   3.035  14.452   1.037 -0.0481  0.2365  0.1254
20153W        W36047   4.838   0.034  15.380 -0.2116  0.1686  0.1335
20154W        W36048   8.104   8.723   0.579  0.3370  0.3269 -0.0687
20155W        W36049   9.828  18.399  14.865 -0.0748  0.1216 -0.1462
20156W        W36050   8.523   3.924   5.902  0.2649 -0.0521  0.1711
20157W        W36051   8.667  12.593   0.956 -0.0533 -0.2752 -0.0603
20158W        W36052  18.278   7.800  10.881  0.2937  0.1223 -0.0659
20159W        W36053  13.242  14.187   4.336  0.0903 -0.1024 -0.0251
20160W        W36054  12.808  16.175  12.262 -0.2105  0.2746  0.0308
20161W        W36055   7.884  18.490  14.598 -0.1468 -0.2093 -0.0722
20162W        W36056   0.065  15.847  12.061  0.3195 -0.0761 -0.2426
20163W        W36057  13.527  11.426   2.150  0.2659 -0.2144 -0.0919
20164W        W36058  13.392   6.120   2.420 -0.0587  0.0980  0.0846
20165W        W36059  18.384   6.247  13.326  0.0840  0.3686 -0.3949
20166W        W36060   5.029   3.603  11.465 -0.2209 -0.2902 -0.1016
20167W        W36061   6.302  17.131  15.227 -0.3791 -0.0675 -0.2945
20168W        W36062   7.725   9.634   4.685 -0.0590  0.0510 -0.0721
20169W        W36063   2.088  11.238   2.448  0.0225 -0.2709 -0.1389
20170W        W36064  18.526   3.424  10.308 -0.1135  0.2087  0.0584
20171W        W36065   6.708   4.495   5.405 -0.0507  0.2380 -0.0913
20172W        W36066  18.374  14.582  15.413  0.0814  0.0078 -0.0461
20173W        W36067   7.284  10.227   4.642 -0.1658 -0.0920 -0.2323
20174W        W36068  16.867  13.465   1.134 -0.1496 -0.1015  0.0772
20175W        W36069   0.357   7.880  10.611 -0.1825  0.1556  0.1803
20176W        W36070  18.596   5.886   3.822 -0.1013  0.1896  0.1804
20177W        W36071   6.223  12.800  13.554  0.0755 -0.3124  0.0160
20178W        W36072  15.432  15.634  12.624  0.0078 -0.4371  0.0091
20179W        W36073  15.722  11.327  14.147  0.4244  0.1383  0.0302
20180W        W36074   5.442  10.336  12.147 -0.3272 -0.0111  0.0042
20181W        W36075  15.573   9.278   3.697 -0.1187  0.3717  0.0088
20182W        W36076  13.663   1.528   5.869 -0.1312 -0.1359  0.2010
20183W        W36077  11.123   7.910   0.143 -0.4662  0.0197  0.2020
20184W        W36078  13.369  17.453  14.108 -0.0929 -0.0045 -0.0783
20185W        W36079  18.099   5.553  14.410  0.0257 -0.0300  0.0491
20186W        W36080  12.975   5.006   0.519  0.1223 -0.1934  0.0716
20187W        W36081   5.954   0.478   0.897 -0.0783 -0.2677 -0.0764
20188W        W36082   9.585   1.586   0.984  0.1668 -0.3491  0.1342
20189W        W36083  10.270  14.727   5.820 -0.3426 -0.1380 -0.3559
20190W        W36084   5.972   0.958  11.536  0.1488 -0.0996  0.1261
20191W        W36085  12.431   8.901  10.853  0.0964  0.2675  0.1676
20192W        W36086   9.486  11.685   5.047  0.0156 -0.0402 -0.1497
20193W        W36087   4.159   8.818  12.680  0.1550  0.2500  0.2477
20194W        W36088   7.172  15.694   0.659 -0.2361 -0.1487 -0.1061
20195W        W36089  15.189  13.037  12.587  0.0452 -0.0881  0.2248
20196W        W36090   4.515   7.773   0.777 -0.1472 -0.1316  0.1970
20197W        W36091   1.434  10.665  10.842 -0.0418 -0.3288 -0.1187
20198W        W36092   0.459  13.243   5.470 -0.0263 -0.0743 -0.3083
20199W        W36093  17.163   0.006   0.097  0.0162  0.1074  0.0164
20200W        W36094   2.161   6.011   1.317 -0.1781  0.0434  0.1879
20201W        W36095  17.220  16.884   3.104  0.1804  0.0744 -0.1101
20202W        W36096   2.376   0.728  13.316 -0.2259 -0.2172 -0.2966
20203W        W36097   6.451  11.205   3.262  0.1757 -0.1253  0.2397
20204W        W36098  13.200  16.403   3.942 -0.1884 -0.1202  0.1905
20205W        W36099  18.602   4.365   4.168 -0.4155  0.4283  0.1478
20206W        W36100  12.922  13.248  12.744  0.1850  0.0998  0.0908
20207W        W36101   0.924  15.506  12.359 -0.1928  0.0697 -0.1306
20208W        W36102   5.151   3.302  12.888  0.1183 -0.1719 -0.3954
20209W        W36103  13.302  12.439   3.837  0.0557  0.3631 -0.0758
20210W        W36104  10.609   0.731   1.337 -0.0196  0.2837  0.0889
20211W        W36105   4.646  13.352   1.562  0.1672 -0.0181 -0.1945
20212W        W36106   6.587   9.382  11.031 -0.1362  0.1994 -0.1582
20213W        W36107   1.866  13.355  11.362 -0.1292  0.0527 -0.1593
20214W        W36108   3.278  14.626  13.922 -0.0253  0.0773 -0.1957
20215W        W36109  10.089  11.275   0.493  0.0213 -0.0539  0.0871
20216W        W36110   7.794  17.320   3.726  0.1549  0.1489 -0.4116
20217W        W36111  12.773  11.362  13.121 -0.2364 -0.0197 -0.2245
20218W        W36112  15.673   8.108  14.198  0.1270  0.2703  0.1434
20219W        W36113   9.489  10.529   1.805 -0.0795  0.1435 -0.1221
20220W        W36114  13.843   3.991   2.133 -0.1096  0.0512  0.3197
20221W        W36115   0.702   6.119  11.829  0.0221  0.1351 -0.2262
20222W        W36116  13.418   6.448  11.736 -0.0734 -0.0004 -0.0230
20223W        W36117   0.519   6.394  13.116  0.1945 -0.3695  0.0086
20224W        W36118  14.814   6.640   2.687 -0.1151 -0.1653 -0.2892
20225W        W36119   5.144  12.546   1.464 -0.2028 -0.1658 -0.1431
20226W        W36120  12.944  11.290   9.473 -0.0769 -0.0905  0.1031
20227W        W36121  14.723   1.089  10.497 -0.0991  0.0417 -0.0598
20228W        W36122   3.362   7.021  13.652 -0.2710  0.0728  0.3851
20229W        W36123   8.475  13.846   3.461  0.0900  0.0814 -0.2140
20230W        W36124  10.832  18.230   4.141  0.0815  0.1516 -0.0821
20231W        W36125   3.083  16.209   2.015  0.2341  0.0782  0.0089
20232W        W36126   1.907  15.420  13.121  0.0557  0.2751  0.1427
20233W        W36127  12.443   3.232   0.331 -0.0096  0.0838 -0.2423
20234W        W36128  18.270  10.042   2.542  0.0383 -0.2710  0.3336
20235W        W36129   9.603   6.269   9.922 -0.0218  0.0360  0.1217
20236W        W36130  11.509   7.269  10.610 -0.0124 -0.4453  0.0378
20237W        W36131  12.928   1.940   0.757 -0.0309 -0.4176 -0.0915
20238W        W36132   6.280  18.662  10.387 -0.0461 -0.1783  0.2200
20239W        W36133  12.357  13.438  15.231 -0.0931 -0.2966 -0.0255
20240W        W36134  11.629  16.205  14.428  0.0580 -0.2001 -0.0829
20241W        W36135   6.925  10.115   1.437 -0.2293  0.1612  0.1164
20242W        W36136  17.614  12.323   3.964  0.0668 -0.0087  0.1370
20243W        W36137   1.973  18.877   5.770 -0.1013  0.2041  0.2102
20244W        W36138   4.143   6.348   3.379 -0.1769 -0.0523  0.1719
20245W        W36139  17.813   0.410  15.085 -0.0524  0.0832 -0.1027
20246W        W36140   3.484  13.663   4.075 -0.1202 -0.0803  0.1574
20247W        W36141  12.817   7.354   2.002 -0.4117 -0.0838  0.1806
20248W        W36142   2.702   3.431  15.487  0.4820 -0.0232  0.3146
20249W        W36143  12.398  12.557  13.073  0.0428 -0.1136  0.1902
20250W        W36144  16.426  12.365  12.371 -0.0027  0.0437  0.1815
20251W        W36145   9.499   1.815   3.067 -0.0506  0.2995 -0.0134
20252W        W36146  18.855   0.259  14.293  0.1750 -0.1148 -0.5456
20253W        W36147  11.300  10.057  13.723 -0.0832  0.1867  0.2159
20254W        W36148  14.172  16.483   3.967  0.0085 -0.0059  0.1629
20255W        W36149   4.473   4.001  12.516  0.0543 -0.2070 -0.3039
20256W        W36150   0.391  12.369  13.694  0.0441 -0.0451 -0.1422
20257W        W36151   7.223  12.050   1.058 -0.0973  0.3825  0.2928
20258W        W36152  15.233   1.227   2.413 -0.0979  0.0337  0.3024
20259W        W36153   2.841   2.795   1.853  0.3662 -0.0243 -0.0648
20260W        W36154  13.146  12.112  14.726 -0.0064 -0.0016  0.3302
20261W        W36155  12.662   7.674   2.736 -0.1644 -0.1520 -0.1440
20262W        W36156   8.070   2.494   3.319 -0.0251 -0.2919  0.0672
20263W        W36157  16.953   8.189  12.425  0.1925 -0.4577  0.1356
20264W        W36158   8.205   2.394   4.529  0.1673  0.0687  0.1382
20265W        W36159   9.651   6.131   2.943 -0.0873  0.0603  0.0894
20266W        W36160  15.323   4.527   2.634 -0.1423 -0.3093  0.3565
20267W        W36161   4.088  13.436   0.187 -0.0424  0.1874 -0.1039
20268W        W36162   0.219   7.359  11.694 -0.1496 -0.0676  0.1796
20269W        W36163   3.474  18.689  13.733 -0.1331 -0.2575  0.2605
20270W        W36164   0.584   5.609  13.628  0.1556 -0.2842 -0.0440
20271W        W36165   9.708   7.853  11.779  0.2014 -0.1599  0.0710
20272W        W36166   4.170  15.768   5.754  0.2116 -0.1627 -0.4131
20273W        W36167   6.374  14.314   4.057  0.0756  0.0878  0.0572
20274W        W36168  17.399   5.666   4.457 -0.1581 -0.0651 -0.0966
20275W        W36169   2.219  10.799  14.354  0.5734 -0.0670 -0.0428
20276W        W36170   9.889   9.003   4.479 -0.4648  0.1406 -0.5142
20277W        W36171   6.355   3.614  12.696  0.3181 -0.1430  0.2707
20278W        W36172  11.397  15.441  11.489 -0.4113 -0.0657  0.2509
20279W        W36173  12.367  16.371  13.824  0.1362  0.0570  0.0435
20280W        W36174  18.271   2.177   5.974  0.2012  0.1736  0.0854
20281W        W36175  14.727  11.333  15.199  0.1702 -0.2465 -0.2314
20282W        W36176   6.753  18.804   4.484  0.5050  0.0991  0.0337
20283W        W36177   6.657   6.863   3.868  0.1725  0.1868  0.0023
20284W        W36178   7.850  16.269  11.223 -0.1703  0.0465  0.1612
20285W        W36179   5.161   7.186  14.381  0.2121 -0.1395  0.0432
20286W        W36180   3.826   2.048   4.803  0.2002  0.0712  0.1797
20287W        W36181  18.010   9.758  13.529 -0.2192  0.0956 -0.2469
20288W        W36182  12.525  14.419   4.398 -0.1345 -0.2131  0.0783
20289W        W36183   7.809  13.638   9.565  0.1526  0.0612  0.2773
20290W        W36184  13.669   7.022  15.099  0.1190 -0.0217 -0.1375
20291W        W36185   7.394  18.595  14.536 -0.1223  0.1213 -0.2978
20292W        W36186   6.742  12.084   2.344  0.0325 -0.0324 -0.0955
20293W        W36187  12.137   8.472   2.452  0.0979 -0.1502  0.3887
20294W        W36188   3.388  10.060   3.092 -0.1431  0.1072  0.3157
20295W        W36189   4.332  15.751   4.067 -0.5164 -0.0763 -0.1622
20296W        W36190  16.698   9.533   0.503 -0.0026  0.2193 -0.1956
20297W        W36191  12.399  18.583   3.843  0.0395 -0.1352 -0.0363
20298W        W36192   9.056  13.685   2.472 -0.0109 -0.1689 -0.0732
20299W        W36193  18.098   4.898   1.438 -0.2803 -0.2736  0.2623
20300W        W36194  11.233  14.640  14.972  0.2326  0.0912 -0.0436
20301W        W36195  17.760  17.855  12.105  0.0985  0.0711 -0.5344
20302W        W36196  11.181  17.889   4.346 -0.1001  0.0719  0.1186
20303W        W36197   1.755  17.894  14.242  0.1126  0.1383 -0.1766
20304W        W36198   8.277  15.876   0.316  0.0542 -0.0864 -0.0318
20305W        W36199   2.062   6.271  13.015 -0.2206  0.1371  0.0837
20306W        W36200   0.769  14.016  13.525  0.1309 -0.0534 -0.1694
20307W        W36201   4.860   7.355   2.920 -0.3792 -0.2610 -0.0206
20308W        W36202   3.081   1.707   1.267 -0.0488 -0.1443  0.0284
20309W        W36203  12.208   1.592  14.893 -0.0957 -0.4001 -0.0167
20310W        W36204   3.577  12.115  15.443  0.1770  0.1885  0.0759
20311W        W36205   1.367  15.006  14.519  0.0767  0.1742  0.0996
20312W        W36206   8.259  18.702  11.223 -0.2277  0.0753  0.1602
20313W        W36207   0.682  14.011   4.423  0.0981  0.0284  0.1502
20314W        W36208   8.948   1.105  14.270  0.0228 -0.1186 -0.0999
20315W        W36209  11.602  16.132  12.453  0.1476  0.0991  0.0487
20316W        W36210   7.719   2.830  13.082  0.1249  0.0148 -0.1401
20317W        W36211   2.595   0.618   2.754  0.2073  0.3036 -0.1564
20318W        W36212   4.759  11.752   3.261 -0.3541  0.0020 -0.0668
20319W        W36213   4.719  18.795  14.179 -0.2148  0.1413 -0.1737
20320W        W36214   3.246   0.979  14.481 -0.1936  0.1545 -0.5091
20321W        W36215   7.222   3.909   1.055 -0.0184  0.3453  0.0199
20322W        W36216  10.247  15.882   4.737  0.3343  0.1199  0.3198
20323W        W36217   0.274  10.025   1.545  0.2814 -0.1444 -0.1575
20324W        W36218   1.246   8.442   0.857  0.1249  0.1714 -0.1968
20325W        W36219  15.939  11.149   1.487 -0.0604 -0.1263  0.1282
20326W        W36220   2.079   0.893  10.146  0.1877 -0.1919  0.2801
20327W        W36221   4.159   4.185   3.161 -0.2175 -0.2627  0.0980
20328W        W36222   4.814   9.439  11.080 -0.0044  0.2176  0.1385
20329W        W36223   8.235   5.241  12.810  0.0364  0.0202  0.0868
20330W        W36224   6.943   3.343   3.610  0.0701  0.0926  0.3380
20331W        W36225  11.783   0.864  15.294  0.0488  0.1853 -0.3167
20332W        W36226   5.574   3.538  14.183  0.0520  0.2539 -0.1537
20333W        W36227  17.021  12.303  14.942 -0.0694 -0.1615  0.0509
20334W        W36228   7.037  18.565  11.665  0.1962  0.2047 -0.1460
20335W        W36229  13.401  14.080  12.690 -0.1003 -0.0109  0.0441
20336W        W36230  10.537   4.626  12.434 -0.0522  0.1633 -0.1852
20337W        W36231  12.104  12.462  12.652 -0.0699  0.0101 -0.2316
20338W        W36232   7.438   7.813  10.950 -0.1703 -0.0505 -0.1299
20339W        W36233   5.764  10.210  15.113 -0.0919  0.0020  0.2212
20340W        W36234  15.584  10.420  15.443 -0.0979  0.0740  0.1385
20341W        W36235  16.031   9.743   5.383 -0.0781  0.1726  0.0802
20342W        W36236   7.258  11.559  11.354  0.2896 -0.0265  0.1218
20343W        W36237  16.732   1.827   4.758  0.2276 -0.0869 -0.0973
20344W        W36238  17.306  15.450  10.265 -0.2303  0.0995  0.1885
20345W        W36239   7.629  10.858  12.006 -0.0587  0.2039  0.2107
20346W        W36240  16.223   0.510   4.083  0.0169 -0.1587 -0.1011
20347W        W36241  15.938  17.541   5.830 -0.1945 -0.1352 -0.0820
20348W        W36242  15.587  17.696   1.475 -0.1363 -0.2341  0.1741
20349W        W36243   8.147   8.182  14.417  0.2855  0.1969  0.0141
20350W        W36244  17.236  12.457  13.543 -0.0585  0.0858 -0.0120
20351W        W36245  11.260  14.133  14.546 -0.2661 -0.0190 -0.3167
20352W        W36246   6.376  18.166   0.519 -0.1659  0.0415 -0.2472
20353W        W36247  17.954   2.772  14.409 -0.2426 -0.0825  0.1378
20354W        W36248  17.107   8.769  14.677  0.1496 -0.0223  0.1660
20355W        W36249   1.083  18.685   1.052  0.1118 -0.1109 -0.1692
20356W        W36250  16.372   8.833  13.356 -0.1427  0.0051 -0.1634
20357W        W36251   5.557  11.506  15.490  0.0940 -0.3362  0.0130
20358W        W36252   3.153  15.002   0.272 -0.3384 -0.0491 -0.2100
20359W        W36253   5.184  14.380  15.148 -0.1489  0.0619 -0.0147
20360W        W36254  12.728  13.840   1.627  0.0641 -0.0822 -0.1372
20361W        W36255  12.968   9.668   3.451 -0.0034  0.4716 -0.3303
20362W        W36256  12.841  16.880   2.457  0.1939 -0.3015 -0.2130
20363W        W36257  12.175  12.475  14.269 -0.1665  0.0528  0.4918
20364W        W36258   6.047  13.086   4.727 -0.0944  0.3386 -0.0121
20365W        W36259  17.098   4.416   2.592  0.1226  0.2551 -0.2780
20366W        W36260   4.220   7.480   1.670  0.1112 -0.2932  0.3523
20367W        W36261   7.976  10.883   5.205  0.2124  0.0922  0.0450
20368W        W36262  15.793  13.856   2.255 -0.3236  0.0538  0.0666
20369W        W36263  11.908  15.285  11.566  0.0951  0.0018  0.1937
20370W        W36264  11.726  17.519  14.371  0.3007  0.2132  0.1302
20371W        W36265  18.202   2.666   1.242  0.0282 -0.0291  0.1108
20372W        W36266  17.847  14.466   1.757  0.2737  0.1314 -0.1184
20373W        W36267  12.989  14.595  10.144  0.0748 -0.1808  0.1585
20374W        W36268   8.605   0.861  10.045 -0.0965 -0.2357 -0.1963
20375W        W36269  16.611  13.998  15.209  0.2010 -0.0614  0.1296
20376W        W36270  11.598  11.130   6.045 -0.1671 -0.1815  0.1439
20377W        W36271   0.458   7.495  13.771  0.0052  0.1267  0.0442
20378W        W36272  15.449   3.062   1.785 -0.1684 -0.0119  0.1769
20379W        W36273  18.629  10.178  10.432  0.1439  0.0385  0.1460
20380W        W36274   3.268   2.498   3.121  0.3097  0.0255 -0.1185
20381W        W36275   0.888   6.975   4.628 -0.0211  0.1041  0.0928
20382W        W36276   9.389   9.646   1.404  0.2665 -0.0439  0.0257
20383W        W36277  17.612  14.212  12.273 -0.2192 -0.0294 -0.2079
20384W        W36278  14.776   4.125   4.458 -0.0782  0.3481 -0.0741
20385W        W36279   2.064  16.441  11.562  0.0703 -0.1611 -0.0591
20386W        W36280  12.013   7.804  14.380 -0.0771  0.1150 -0.2284
20387W        W36281   0.251   9.426  11.214 -0.0849  0.0927 -0.1453
20388W        W36282   1.458  14.660  10.902  0.0539 -0.0448  0.0871
20389W        W36283   2.278  17.748   2.253  0.3051  0.0336  0.0135
20390W        W36284   3.831   8.552  12.337  0.1679  0.3224 -0.1146
20391W        W36285  15.809   7.437   3.185  0.0019  0.2051 -0.1840
20392W        W36286   3.464   8.743   3.502 -0.0889  0.0207  0.1918
20393W        W36287  18.495  12.765   4.230  0.2042 -0.1620 -0.1497
20394W        W36288  15.796  13.678   1.359 -0.3190 -0.0408  0.0677
20395W        W36289  13.703   9.220   1.754  0.0252 -0.2321  0.0850
20396W        W36290   6.819   7.538  11.177 -0.0256  0.1345  0.1802
20397W        W36291  10.341  15.522  13.926  0.0309 -0.1410 -0.0876
20398W        W36292   5.656   6.166  10.968 -0.1566 -0.0556 -0.2849
20399W        W36293  11.241  17.825   1.426  0.1815  0.2499 -0.2219
20400W        W36294  10.372  10.521   3.551 -0.1379 -0.0965 -0.0485
20401W        W36295  16.209   4.951   1.745  0.3743  0.1123 -0.0646
20402W        W36296  18.810  12.970   3.030  0.2118 -0.2232  0.1364
20403W        W36297   0.044  18.002   3.160 -0.4162 -0.2284 -0.0326
20404W        W36298  13.867   3.670   3.470  0.0747  0.2826  0.1687
20405W        W36299  18.302  12.350   4.431  0.1813  0.1538  0.0768
20406W        W36300  12.912  11.687  11.739  0.1226 -0.2792  0.2436
20407W        W36301   6.882   8.350   3.115  0.2400  0.2570  0.0785
20408W        W36302  16.302  12.795   0.748  0.4534 -0.0146 -0.1056
20409W        W36303  16.035  15.783   4.577  0.1101  0.0104 -0.3562
20410W        W36304  10.972  14.079  11.087  0.0869  0.0612 -0.2574
20411W        W36305   0.390   2.273  13.761 -0.3955  0.1193 -0.3948
20412W        W36306  13.821   9.992   1.379  0.0452 -0.1546 -0.3876
20413W        W36307   6.663   8.980  14.045  0.2577  0.3183  0.1073
20414W        W36308  17.899  13.953   0.232  0.0535  0.2696  0.2138
20415W        W36309  12.150  13.629  12.350 -0.0436 -0.2510 -0.3393
20416W        W36310   0.648  16.244  12.402 -0.1156 -0.3185 -0.2560
20417W        W36311   3.280  11.801   0.618  0.2703 -0.1635  0.1376
20418W        W36312  11.940   0.271   2.613 -0.4780 -0.1274  0.2860
20419W        W36313   8.740   0.176  14.600 -0.0602  0.1795  0.2534
20420W        W36314  13.459  18.833   1.608 -0.0717 -0.0201  0.2954
20421W        W36315  16.834   6.197  12.117  0.0945 -0.0666 -0.0440
20422W        W36316   5.446  11.484  10.996  0.2573  0.3083 -0.2096
20423W        W36317  14.412   6.322  15.127 -0.0627 -0.5664 -0.0483
20424W        W36318  15.728  11.551  11.849 -0.0816  0.3878 -0.3544
20425W        W36319   3.760   7.866   3.923  0.0300  0.1338 -0.1292
20426W        W36320   6.911  10.729   1.312 -0.2116 -0.0388  0.2067
20427W        W36321  16.456   2.476  11.376 -0.0620  0.0206 -0.0665
20428W        W36322  18.190  11.275  15.379 -0.2047 -0.0415 -0.2577
20429W        W36323  11.968   3.107   2.512  0.0349  0.0211  0.0514
20430W        W36324  15.957   6.710   4.673  0.1752 -0.3406 -0.0136
20431W        W36325  17.070  13.043   1.407 -0.0377  0.1955  0.0080
20432W        W36326  16.108   0.659   5.649 -0.3130 -0.0038 -0.0129
20433W        W36327   6.603  14.686  14.741  0.0198  0.3548 -0.2105
20434W        W36328   2.118   5.003  12.990 -0.0821 -0.0418 -0.0871
20435W        W36329  16.961  11.394  12.375  0.0503 -0.3221  0.2726
20436W        W36330   5.427   3.239   3.464  0.4021  0.1456  0.1678
20437W        W36331  17.781   7.238  12.270  0.1836  0.1406 -0.0276
20438W        W36332   2.140  12.493  15.485 -0.2463 -0.0123  0.1371
20439W        W36333  12.453   6.804  11.734 -0.0609 -0.0536 -0.0353
20440W        W36334   9.803  13.244   1.964 -0.1216 -0.1229 -0.2545
20441W        W36335   5.875  10.146   2.929  0.2547  0.2294  0.0179
20442W        W36336  12.333  18.848   4.344 -0.1860  0.0861  0.0473
20443W        W36337   3.170  13.441  11.519 -0.0573 -0.0808 -0.0054
20444W        W36338   4.696   2.504   1.890 -0.0641  0.0416 -0.1532
20445W        W36339   7.410   3.807   1.520  0.0523  0.0171  0.0362
20446W        W36340  13.598  15.535  15.152  0.0368  0.3269  0.0737
20447W        W36341   3.971  18.604  12.220 -0.2872  0.0530 -0.0188
20448W        W36342   1.621   3.031  11.663 -0.0396 -0.2403  0.1598
20449W        W36343   2.164   9.683   4.165  0.3626  0.2909  0.1557
20450W        W36344  10.216   8.948   2.532 -0.0567  0.1164 -0.2660
20451W        W36345  16.297   6.899  14.068  0.3770 -0.0837  0.1252
20452W        W36346  11.817   6.134   2.123 -0.4205 -0.1674 -0.1182
20453W        W36347   2.168  13.338  13.061 -0.1792  0.1928  0.0644
20454W        W36348   1.529  12.884   1.647  0.0512  0.2234  0.2192
20455W        W36349  10.147  18.056   5.481 -0.1928 -0.4093  0.1838
20456W        W36350  16.773  11.278   3.101  0.0155  0.2743  0.1431
20457W        W36351  10.604   5.311   1.152 -0.1471  0.1196 -0.0574
20458W        W36352  14.154   4.102  12.022  0.0653 -0.2620  0.2620
20459W        W36353   8.720   9.184   3.729 -0.0020 -0.2866 -0.1610
20460W        W36354  10.892  14.388  13.025 -0.0981 -0.1589  0.0211
20461W        W36355   9.340  10.820  13.459 -0.2057  0.0788  0.0213
20462W        W36356  17.835   3.266  15.165 -0.1787 -0.0981  0.4725
20463W        W36357  13.956   4.647   1.111 -0.0648 -0.2249 -0.0914
20464W        W36358  16.141   7.602   4.788  0.2988  0.0587 -0.0457
20465W        W36359   2.849  18.629   0.976 -0.0180  0.3429 -0.2727
20466W        W36360   6.940  11.775  12.836  0.1469 -0.0026 -0.0411
20467W        W36361  13.755   7.418  13.923  0.0625 -0.1000 -0.1196
20468W        W36362  18.079  17.854   4.455 -0.0105 -0.0085 -0.2618
20469W        W36363  17.653   1.146  13.809  0.1759  0.0377  0.1468
20470W        W36364   6.738  12.080   2.867  0.0274  0.1444 -0.1093
20471W        W36365   5.285  14.958  11.758  0.1361  0.0414  0.0950
20472W        W36366   2.703   1.453  11.810  0.2625 -0.0496 -0.4259
20473W        W36367   9.394  13.429   4.741  0.1181  0.0367 -0.3119
20474W        W36368   1.597   6.270  12.855 -0.1074  0.0885  0.2635
20475W        W36369   1.284  14.687  14.045 -0.1850  0.1899  0.2089
20476W        W36370  11.418   2.179  13.266  0.0919  0.1176 -0.2674
20477W        W36371   9.872  17.210  14.520  0.0624 -0.0802  0.4431
20478W        W36372   7.267  14.127   2.003  0.2376  0.1126  0.3940
20479W        W36373   8.472   6.542   0.947 -0.0153  0.2598  0.1848
20480W        W36374  11.061  17.526  11.808 -0.1995 -0.2859  0.2425
20481W        W36375  11.967  12.175  10.842 -0.0030 -0.1007  0.1346
20482W        W36376  18.061  16.146   0.847 -0.0511  0.2695  0.1859
20483W        W36377  14.990  13.542  12.909  0.1837 -0.0400 -0.0258
20484W        W36378   7.347  15.272   4.039  0.2473 -0.0987  0.0955
20485W        W36379  11.383  10.810  14.737  0.1322 -0.3915  0.0981
20486W        W36380  16.675  17.659  14.875 -0.1615 -0.0694  0.1517
20487W        W36381  10.532  14.152  14.413  0.1913  0.2481 -0.2247
20488W        W36382  14.806  15.508   3.867  0.2110  0.1840 -0.0798
20489W        W36383  10.326  18.855  13.879 -0.0934 -0.0405 -0.2517
20490W        W36384  15.877   9.472   4.523  0.0725  0.2747  0.0140
20491W        W36385   3.605   3.794   0.400  0.4305  0.2748 -0.1873
20492W        W36386  11.427   7.857   4.952 -0.1126 -0.0248  0.0230
20493W        W36387   7.219  17.391   5.814 -0.1675  0.0155 -0.1684
20494W        W36388   5.617  17.480  12.025  0.2822  0.0031 -0.4343
20495W        W36389   2.754   5.792   1.499  0.1252 -0.0004  0.0581
20496W        W36390   4.650  18.867   1.636  0.0107  0.2990  0.1705
20497W        W36391  16.784  15.607   1.248 -0.0224  0.1825 -0.1067
20498W        W36392  16.428   5.091  13.901  0.2121  0.2320 -0.3041
20499W        W36393  13.199   9.761   0.801 -0.1542 -0.0000  0.1446
20500W        W36394   4.996   9.997  10.265 -0.0621 -0.1372 -0.0811
20501W        W36395  13.574   1.830   2.430 -0.3096  0.1736 -0.0029
20502W        W36396   5.748  17.246  11.135  0.1732  0.1754  0.2240
20503W        W36397   3.863   2.758   3.738  0.1630  0.1067 -0.1029
20504W        W36398   6.428   8.668   4.077 -0.1549 -0.1693  0.2351
20505W        W36399   3.685   4.406  13.810 -0.2249  0.0917 -0.2724
20506W        W36400   2.498   2.238   0.561 -0.0692 -0.2295  0.0355
20507W        W36401  13.160  12.126   4.231  0.2049  0.0793  0.1858
20508W        W36402  16.390  15.009  13.298  0.0598 -0.0798 -0.4175
20509W        W36403   1.975   9.360  15.281 -0.0332  0.0162  0.2072
20510W        W36404   4.476   9.702   1.719 -0.1661 -0.2842  0.3168
20511W        W36405   9.379   7.989  12.614  0.2415  0.1697  0.0184
20512W        W36406  17.491  14.389  12.784 -0.2736 -0.2694  0.0917
20513W        W36407  11.806  11.112  11.612  0.0480 -0.2806 -0.2319
20514W        W36408  11.128  16.097   2.574  0.0760  0.1663  0.2064
20515W        W36409   0.090  11.495   9.717 -0.1537  0.0199 -0.1642
20516W        W36410   8.748   7.316   2.415 -0.1433  0.2048 -0.0056
20517W        W36411   2.553  13.759   2.467 -0.2147  0.0857  0.0665
20518W        W36412   0.868  12.290   0.130  0.1739  0.0182  0.1224
20519W        W36413  17.549   8.023  11.860 -0.2081  0.1994  0.2368
20520W        W36414   6.410   1.145  11.404 -0.3856 -0.0044  0.0008
20521W        W36415   1.012  17.065   5.640 -0.2735 -0.0637  0.0617
20522W        W36416   1.752   2.034  12.433  0.0354  0.0136 -0.1036
20523W        W36417   5.959   2.366   2.573  0.2667  0.0606 -0.0865
20524W        W36418  14.708   7.360   2.029  0.2050 -0.1432 -0.1094
20525W        W36419  10.508  13.721   4.309  0.1549  0.1034 -0.0847
20526W        W36420   5.829  14.939  12.520 -0.1817  0.1295  0.0057
20527W        W36421  13.636   3.474   4.788 -0.0802 -0.1998 -0.1942
20528W        W36422   0.169   3.949   4.285 -0.3760 -0.6036  0.0226
20529W        W36423   7.608   2.515  12.646 -0.1131 -0.1208  0.1739
20530W        W36424  16.002   9.141   3.470  0.0376  0.0817 -0.1641
20531W        W36425  11.653  17.399   3.135  0.1314 -0.0035 -0.0559
20532W        W36426  13.344  16.873  12.432 -0.2556  0.2229  0.3641
20533W        W36427   0.330  10.397   2.990  0.5115  0.0767 -0.1700
20534W        W36428  16.297   0.077   1.441 -0.0236  0.1314  0.0270
20535W        W36429  12.448  11.211   1.586  0.2658 -0.2812 -0.3117
20536W        W36430  15.357   5.805  13.035  0.3764 -0.0041 -0.0811
20537W        W36431  10.525   9.803   3.009 -0.2115  0.1344  0.1239
20538W        W36432   2.453   2.954   1.561 -0.2120 -0.1284 -0.1496
20539W        W36433  16.075  15.183  12.169  0.0024  0.0042  0.0271
20540W        W36434   0.281   0.891  14.526  0.0310 -0.0878  0.0545
20541W        W36435  16.109  11.454   4.525  0.0866  0.1234 -0.1234
20542W        W36436  18.033  14.446   0.401  0.4052 -0.1042  0.2093
20543W        W36437   5.761  11.623  14.173  0.1121 -0.0922  0.0172
20544W        W36438   8.847   5.833   0.194  0.0475 -0.0698  0.4302
20545W        W36439   8.618   3.863  10.820  0.0390  0.2093 -0.0500
20546W        W36440  12.768   0.058   0.422 -0.1203 -0.1125 -0.1306
20547W        W36441  17.760  15.838  13.074  0.0456  0.4481  0.0853
20548W        W36442  16.021  15.891  15.484  0.2642 -0.0790  0.1705
20549W        W36443   3.351  13.588   2.290  0.0161  0.1353  0.3669
20550W        W36444  18.224   4.410   4.457  0.1048  0.4114 -0.0368
20551W        W36445   7.898   2.664   2.348 -0.1470  0.4038  0.0935
20552W        W36446  12.115  12.401  13.718  0.1862  0.2564  0.0024
20553W        W36447   3.877  11.910   3.278  0.2039  0.0048 -0.2604
20554W        W36448  10.871   3.572  13.395 -0.1463 -0.1834 -0.2437
20555W        W36449  14.213   4.236   3.758 -0.0573 -0.3134  0.0460
20556W        W36450   1.008   3.173  10.749 -0.1812  0.0651 -0.1894
20557W        W36451  12.966   3.376   2.683 -0.2287 -0.1971 -0.1811
20558W        W36452   8.794   8.923   4.106  0.0770  0.2451 -0.0455
20559W        W36453  12.983  14.617   4.346 -0.0153  0.0979  0.2080
20560W        W36454   1.912   8.774   3.018 -0.1258 -0.0102  0.0985
20561W        W36455   5.093  11.272  12.354  0.2943 -0.0767 -0.1269
20562W        W36456   2.096   4.461  15.385 -0.1729  0.1975  0.1236
20563W        W36457   1.632  10.710  15.261 -0.2378  0.0063  0.2383
20564W        W36458   8.083  10.986  13.723  0.2104  0.0838 -0.0815
20565W        W36459  15.975   5.543   4.560 -0.3689 -0.3316 -0.1071
20566W        W36460   5.081  16.428  10.982  0.2959 -0.0043  0.0916
20567W        W36461  12.710   7.579   4.447 -0.1431  0.2399  0.0327
20568W        W36462  13.220  16.700   1.845 -0.1065 -0.1160  0.0303
20569W        W36463  10.928   3.729  11.486 -0.0719  0.1194 -0.1866
20570W        W36464   5.022   6.288   4.683  0.2179 -0.0489  0.1325
20571W        W36465  12.542   7.387  15.357  0.1404  0.1332  0.3562
20572W        W36466  17.769   1.632   0.536 -0.3557 -0.1172 -0.3138
20573W        W36467   8.270  12.514   1.978  0.0696 -0.0407  0.1222
20574W        W36468   5.229   1.372  11.658 -0.0072  0.3027  0.2816
20575W        W36469   4.597   4.301   2.744 -0.0061  0.2056 -0.0567
20576W        W36470   4.064   5.196   5.013 -0.0315 -0.1203  0.1589
20577W        W36471   7.119   3.946  14.363 -0.0586 -0.1586 -0.1577
20578W        W36472  16.265  15.909  13.372  0.3696  0.1540 -0.0958
20579W        W36473  18.688   1.470  12.383 -0.0835 -0.0716 -0.3393
20580W        W36474  12.790   2.913   0.496 -0.1796  0.0157  0.0529
20581W        W36475   1.792  15.705   3.012 -0.2024  0.2317  0.0512
20582W        W36476  12.494  13.134   4.694 -0.0907  0.1465 -0.0805
20583W        W36477   4.520  15.304   0.307  0.4271 -0.0324  0.5214
20584W        W36478  10.463   3.430  14.824 -0.0587 -0.0792  0.2004
20585W        W36479  11.529   2.095   3.663 -0.1699  0.0095 -0.2302
20586W        W36480   1.840  16.416  14.142 -0.1501 -0.0332  0.3220
20587W        W36481   6.462   8.123   4.099 -0.1750  0.1947  0.3797
20588W        W36482  14.363  11.922  10.805 -0.5401 -0.1595 -0.0050
20589W        W36483  15.641   6.079   0.798 -0.2798 -0.0595 -0.2695
20590W        W36484   7.821   8.870   2.251 -0.3051 -0.0567 -0.2254
20591W        W36485   7.648  17.356   1.830  0.0873  0.2217  0.0589
20592W        W36486  10.488  16.893  12.787 -0.4270  0.1268  0.2778
20593W        W36487  10.055   4.498  10.572 -0.1954 -0.0917 -0.1604
20594W        W36488  16.247  13.547   2.747 -0.0277  0.0770 -0.3700
20595W        W36489  14.506  16.098  14.487  0.1185 -0.1184  0.0451
20596W        W36490  15.598  13.822  11.259  0.1996 -0.0924 -0.1586
20597W        W36491   9.589  14.105   0.313  0.0250 -0.1018  0.1203
20598W        W36492  17.902   1.329  10.739  0.0034  0.2292 -0.4077
20599W        W36493   9.552   1.172   1.840  0.2752  0.3893  0.1934
20600W        W36494   5.847   3.555  11.810 -0.4949 -0.1581  0.1400
20601W        W36495   0.279  14.672   4.200 -0.0356 -0.3145 -0.0083
20602W        W36496  10.680  15.589  12.380 -0.1961  0.0488  0.0204
20603W        W36497   6.628   8.909   5.264  0.2747 -0.0793  0.0079
20604W        W36498   9.186  16.548   4.177 -0.0019  0.0410 -0.0497
20605W        W36499   2.586   4.669   4.959 -0.1106  0.0945 -0.1100
20606W        W36500  18.504   0.992   2.970  0.2744 -0.0588  0.0199
20607W        W36501   5.472  13.606   0.651  0.3318 -0.0879 -0.3989
20608W        W36502   1.959   7.090   0.507  0.1696  0.0946 -0.1299
20609W        W36503   2.434   4.091  15.128 -0.1957  0.1534  0.2534
20610W        W36504  10.734   4.816  15.469  0.2138  0.2541 -0.1111
20611W        W36505  14.136  11.212  11.243  0.2984  0.2159  0.1315
20612W        W36506  15.850   8.063  14.911  0.2578 -0.3516  0.0929
20613W        W36507  10.509   1.744   4.608  0.0678  0.0553 -0.0621
20614W        W36508  16.880  17.179   2.591 -0.0083 -0.1930 -0.1085
20615W        W36509  10.699  10.345   1.644 -0.0679 -0.0726 -0.2366
20616W        W36510  17.208   6.437   0.120  0.1222 -0.2885 -0.1664
20617W        W36511   7.639  12.102  12.199 -0.0844  0.2177  0.2623
20618W        W36512  14.526   4.323  15.247  0.3798 -0.2220 -0.1527
20619W        W36513  14.570  18.860   1.885  0.3637 -0.0202 -0.0769
20620W        W36514  10.939  15.822   4.523  0.1767  0.1095 -0.1762
20621W        W36515  17.151   3.320  13.922 -0.1046  0.2713  0.1962
20622W        W36516  11.241  16.989   2.548  0.2279  0.0728  0.0640
20623W        W36517   9.922  11.688   1.317 -0.0832 -0.1864 -0.3016
20624W        W36518  18.350   9.597   5.101  0.0620  0.3827 -0.0191
20625W        W36519  18.258   8.358  13.607 -0.4156  0.3327 -0.1216
20626W        W36520   5.830  14.276   5.541 -0.0019  0.0252  0.2902
20627W        W36521  18.871  14.771  15.401 -0.0334  0.1849  0.0341
20628W        W36522   2.837   2.071   3.186  0.2591  0.1863  0.0319
20629W        W36523   9.705  11.672   1.752  0.1723  0.6443  0.0243
20630W        W36524  12.475   9.910  11.189 -0.1413  0.1395  0.0172
20631W        W36525   9.361  12.593  14.336 -0.0561 -0.0324 -0.0425
20632W        W36526   8.643   8.681   2.745 -0.1276  0.0910 -0.0634
20633W        W36527  17.964   1.745   1.288  0.2017 -0.2891 -0.1396
20634W        W36528  15.545  14.926   0.484  0.0650 -0.1115  0.0801
20635W        W36529   6.500  14.993  12.703  0.1192  0.1413 -0.0000
20636W        W36530  12.383  10.718  12.288 -0.1634 -0.0532 -0.0532
20637W        W36531   6.859   6.998   1.586  0.0286 -0.0476 -0.0425
20638W        W36532   9.085  15.862   0.695  0.0469  0.1317  0.2292
20639W        W36533  14.898  11.010  13.496  0.2947  0.2459 -0.1903
20640W        W36534   6.436   7.541   0.148  0.2140 -0.0010 -0.0138
20641W        W36535  17.347   1.928   0.342  0.4608 -0.0139  0.0446
20642W        W36536  14.797  16.626   5.393 -0.2629  0.3472 -0.0880
20643W        W36537  11.119   0.505  12.721  0.0178 -0.1687 -0.1562
20644W        W36538   8.300   7.949   3.258  0.1888 -0.0978  0.0232
20645W        W36539   3.023  17.552  14.507  0.3607 -0.2905  0.0186
20646W        W36540   9.646  13.040   1.521  0.1724 -0.2752  0.0606
20647W        W36541   1.057   6.151   5.309  0.2635  0.0872 -0.0924
20648W        W36542  15.913   4.872  10.973  0.0826 -0.2770  0.1090
20649W        W36543   3.492  17.553  10.595 -0.1294 -0.0536  0.1633
20650W        W36544   8.303  10.515   2.642 -0.0408  0.0790  0.3043
20651W        W36545   9.688  17.892   0.568  0.0320 -0.1378 -0.1141
20652W        W36546   6.143   1.583  15.207 -0.5664 -0.0941 -0.1535
20653W        W36547   5.134  12.625   2.233  0.1005  0.1430 -0.2306
20654W        W36548   6.281   4.690  13.029  0.1790 -0.1652  0.2384
20655W        W36549   0.431   2.251  12.607  0.1196  0.1304 -0.0734
20656W        W36550  16.834  11.895  11.688  0.0911 -0.0656 -0.0188
20657W        W36551   9.927   7.210   3.435 -0.0474  0.1746  0.0909
20658W        W36552   3.740  11.979  13.742 -0.3414  0.2154  0.0610
20659W        W36553  13.301   3.851   4.889  0.0040 -0.0499 -0.1997
20660W        W36554  15.680   5.802   2.085 -0.1871 -0.0049  0.0377
20661W        W36555   3.212  17.836   1.499 -0.0537 -0.2009 -0.1829
20662W        W36556  10.615   0.801  14.078 -0.0095 -0.1383  0.2602
20663W        W36557   0.232  15.176  14.927 -0.1246 -0.0251  0.1764
20664W        W36558   3.326   6.640   1.992 -0.1028 -0.0307 -0.0187
20665W        W36559   2.617   9.237  10.362  0.2259 -0.2824 -0.1933
20666W        W36560  18.337  13.838   3.487  0.0852 -0.0486  0.0433
20667W        W36561   6.500  16.032   1.308 -0.3197 -0.0420 -0.0336
20668W        W36562  17.002  17.505   5.982 -0.4948  0.1519  0.2988
20669W        W36563   0.058   3.483   3.982  0.1308  0.1194 -0.0054
20670W        W36564  11.266  17.940   2.216 -0.3406  0.0949 -0.2150
20671W        W36565  17.532   3.402   4.421  0.1695  0.2571 -0.1293
20672W        W36566   4.674   6.552   4.327 -0.4581  0.1007 -0.0500
20673W        W36567   9.767  17.750   1.570  0.1624 -0.0340  0.0058
20674W        W36568   2.068   3.022  14.924 -0.2188 -0.2699  0.0479
20675W        W36569   5.925  17.711  10.004 -0.0805 -0.2489 -0.0950
20676W        W36570  14.710   8.482  13.066  0.2649 -0.2041 -0.0041
20677W        W36571  14.574  11.692   3.797  0.1505  0.0364  0.1371
20678W        W36572   6.072  10.468  14.689  0.2294 -0.1976 -0.2057
20679W        W36573   5.452   8.037  15.421  0.1028  0.3461 -0.0138
20680W        W36574  11.147   7.978   1.857 -0.2366 -0.0010  0.0286
20681W        W36575  14.604   2.784  15.148  0.1596  0.0929  0.1404
20682W        W36576   6.638  12.803  13.892  0.1974  0.0047 -0.0574
20683W        W36577   2.109  17.496  15.476  0.0087  0.0593  0.1928
20684W        W36578   2.461  10.071   1.173  0.0820 -0.0678 -0.0234
20685W        W36579   9.671  13.993   1.573  0.1844  0.0199  0.0204
20686W        W36580  11.879   8.018   3.058 -0.1876 -0.1516  0.0091
20687W        W36581   9.772  14.794   9.984  0.0550  0.0769  0.0406
20688W        W36582   3.609   9.972   2.601  0.2152 -0.0721 -0.0355
20689W        W36583  10.347   4.749   0.760  0.0296  0.2665 -0.2782
20690W        W36584  12.987  11.649  14.583  0.1214  0.2442 -0.1182
20691W        W36585  16.115   5.163   4.835  0.0057 -0.2358 -0.3190
20692W        W36586   2.682  15.380  13.898 -0.4691 -0.1123  0.1721
20693W        W36587  15.020   5.389   0.290 -0.4703  0.2951  0.0922
20694W        W36588   4.400   9.532   2.182  0.2101 -0.0893 -0.2817
20695W        W36589   1.122  16.163   3.575 -0.2145 -0.0163  0.0664
20696W        W36590  13.796   1.116  12.385  0.1460 -0.3080 -0.1300
20697W        W36591  18.731   2.138   1.614 -0.0622 -0.0382 -0.1723
20698W        W36592   8.143   4.390   1.335 -0.3341 -0.0745 -0.0972
20699W        W36593   9.229  12.142  15.149  0.0153  0.0463  0.3274
20700W        W36594  10.033   1.666   4.698  0.0997 -0.2713  0.0508
20701W        W36595  16.461   5.488   4.589 -0.1369  0.0185  0.1649
20702W        W36596  16.180  13.597  13.759 -0.4893 -0.3423 -0.2570
20703W        W36597  14.713   4.918   5.106  0.0004  0.0469 -0.1167
20704W        W36598  16.260   9.372   2.035 -0.0281 -0.0796 -0.0162
20705W        W36599   1.345   8.840  14.699  0.0600  0.1307  0.2013
20706W        W36600  12.690   8.324   0.559 -0.0329 -0.1168  0.0807
20707W        W36601  10.973   6.622   3.707  0.0554 -0.1736  0.0717
20708W        W36602   5.158  17.287  11.677 -0.2175 -0.2604  0.0571
20709W        W36603   2.472   5.264  14.888  0.1689  0.0541 -0.1575
20710W        W36604   8.236   1.682   1.153 -0.1438  0.0892  0.1532
20711W        W36605   6.209  14.900  15.156 -0.0052 -0.2203 -0.1533
20712W        W36606  18.275  17.566   1.890  0.0242  0.0932  0.0739
20713W        W36607   9.651   3.092  11.818 -0.5269  0.1181 -0.1033
20714W        W36608   2.044   0.062  15.177  0.0768 -0.0830  0.0391
20715W        W36609  15.665  11.480  10.924 -0.0660  0.0196 -0.0145
20716W        W36610   8.913   5.419  14.286 -0.1308  0.0875  0.1324
20717W        W36611  10.778  18.124  14.482 -0.0163 -0.0172  0.0822
20718W        W36612  11.797  15.465   1.251  0.0265  0.0670  0.3788
20719W        W36613   5.225  16.011  14.946 -0.2475 -0.3715  0.2783
20720W        W36614   5.520  15.946   3.594  0.2376  0.0066 -0.0190
20721W        W36615   3.739  17.272  13.239 -0.1943  0.1063  0.1125
20722W        W36616   8.109  17.450   1.637  0.0552  0.3077 -0.1476
20723W        W36617   6.918  17.273  15.098 -0.2325 -0.2476  0.1296
20724W        W36618   8.373  17.457   4.792  0.2438  0.0438 -0.0568
20725W        W36619  11.223   5.566  14.925 -0.0884 -0.2153 -0.1861
20726W        W36620   7.226   7.498   0.515  0.0916 -0.1515  0.0287
20727W        W36621   8.826  14.759  14.430  0.1318 -0.2509 -0.0145
20728W        W36622   1.617  12.130  12.674  0.0342  0.1794  0.0194
20729W        W36623  13.934   5.965  10.227  0.0389 -0.0861  0.1624
20730W        W36624  10.237  10.007   1.113  0.1410 -0.2084  0.0187
20731W        W36625  13.828  14.008  11.645 -0.2659 -0.0861 -0.0971
20732W        W36626  15.940  18.186   5.337 -0.2292  0.0806 -0.0719
20733W        W36627   7.003   7.923   3.878  0.1614 -0.0119 -0.0282
20734W        W36628  17.366   9.594   1.056 -0.1297 -0.1334 -0.3331
20735W        W36629   3.656  13.720  11.468  0.1307 -0.0330  0.1051
20736W        W36630  13.077  11.729   2.302  0.0730 -0.1506  0.2125
20737W        W36631   4.769   7.200  14.741  0.3991  0.0499 -0.2437
20738W        W36632   9.549   8.759  11.407  0.1554  0.1427  0.1374
20739W        W36633  11.313  16.207   0.022  0.1302  0.0088 -0.1993
20740W        W36634   4.904  15.989  14.522 -0.1228 -0.1814  0.0859
20741W        W36635  17.743  13.102   0.511  0.2512 -0.1802  0.0599
20742W        W36636  17.068  10.961   0.606 -0.2262 -0.2943 -0.0010
20743W        W36637   1.488   9.969   4.839  0.0766  0.1443 -0.3528
20744W        W36638   9.342  17.567   0.756 -0.0243 -0.0219  0.0430
20745W        W36639   5.642   7.004   2.554 -0.1219 -0.2174  0.0826
20746W        W36640   0.643   8.694   1.948  0.1719 -0.0698  0.1074
20747W        W36641   1.928  17.491  14.918  0.1844  0.0170 -0.0855
20748W        W36642   5.596   5.724  10.561 -0.0102 -0.3914  0.0707
20749W        W36643  13.457   1.569  12.329  0.1489 -0.1618  0.0754
20750W        W36644   2.037  12.398  11.744 -0.2028  0.0718 -0.0117
20751W        W36645  16.521  16.934  13.308 -0.0138 -0.2624 -0.0504
20752W        W36646   9.224   2.602   3.920  0.0105  0.3362  0.1387
20753W        W36647   3.915   6.437   1.967 -0.1523 -0.1584  0.1378
20754W        W36648   2.835   6.973   0.614  0.2205  0.3305 -0.3837
20755W        W36649   6.297   5.613  14.462 -0.0556 -0.2460  0.0802
20756W        W36650  15.071   7.894  12.337 -0.4367  0.1639  0.0217
20757W        W36651   9.502  16.236   5.842 -0.0088  0.0243  0.4213
20758W        W36652  14.222  16.465  13.251 -0.4010  0.0229 -0.2762
20759W        W36653   9.114   1.142  14.779  0.0620 -0.1906 -0.2505
20760W        W36654   8.580  15.095   4.899 -0.0002  0.0934 -0.1649
20761W        W36655   9.078   2.078  12.232  0.1329 -0.0682 -0.0383
20762W        W36656  14.911   6.172  12.326  0.2273  0.1645  0.0162
20763W        W36657  17.673   7.254  14.994 -0.1516 -0.0801 -0.1387
20764W        W36658  10.394   0.987  14.552  0.1468  0.0805 -0.0040
20765W        W36659  11.602   5.955   4.633  0.1089 -0.0299 -0.2114
20766W        W36660  17.679   4.877   3.900 -0.1201  0.0402  0.0946
20767W        W36661  18.256  10.641  11.961 -0.2656  0.0356 -0.3168
20768W        W36662  13.251   6.409  13.211 -0.0818 -0.0028  0.1184
20769W        W36663  15.781  13.715   0.719  0.2621  0.1165  0.0433
20770W        W36664  16.797   5.555   3.278  0.0401  0.0013 -0.3689
20771W        W36665   0.572  16.964  14.549 -0.0158 -0.2003  0.0798
20772W        W36666  10.523  15.389   2.934 -0.3393  0.0672  0.1631
20773W        W36667  13.929   3.761   3.979 -0.1215  0.0716 -0.3953
20774W        W36668   4.063   8.481   1.686  0.2119  0.3526 -0.2973
20775W        W36669   6.141  11.140   9.766 -0.2002  0.0823  0.1596
20776W        W36670  18.112  12.589  12.495  0.0177 -0.1667  0.2554
20777W        W36671   1.697   2.655   4.822  0.2954 -0.0173 -0.0959
20778W        W36672   6.849   1.339   0.249 -0.1635 -0.4486 -0.3776
20779W        W36673  17.217  16.750  14.594  0.2370  0.1305 -0.1026
20780W        W36674  12.270  10.655  15.167 -0.1734 -0.1026 -0.2465
20781W        W36675   2.341  10.990   0.902 -0.0687  0.1243  0.0526
20782W        W36676   9.926  12.411   4.806 -0.0242 -0.0785  0.2787
20783W        W36677  11.520   8.014  12.884 -0.2553  0.2380  0.0519
20784W        W36678  17.670   2.703   3.289  0.0627  0.4770  0.2413
20785W        W36679  10.913  15.738  14.764 -0.1306  0.1179 -0.2243
20786W        W36680  15.114   0.009  14.446  0.1174 -0.0260  0.2706
20787W        W36681  10.081   1.052  13.111  0.3961 -0.0013 -0.2617
20788W        W36682   2.833   1.453  14.823 -0.0025 -0.0245 -0.1728
20789W        W36683   5.206  18.521   3.575 -0.0647  0.2548  0.0270
20790W        W36684  11.826   4.902   4.835 -0.0779  0.1954 -0.0044
20791W        W36685  11.211   0.197   1.380 -0.0994  0.0010  0.0782
20792W        W36686   2.682  18.872  12.987 -0.0130 -0.2579 -0.2234
20793W        W36687   4.359   0.512  12.574  0.2656 -0.0791 -0.0446
20794W        W36688  17.914  14.766   1.064 -0.1325  0.1183 -0.0970
20795W        W36689  16.005  18.674   5.129 -0.0787 -0.1245 -0.0908
20796W        W36690  12.207   3.766   4.089  0.0257 -0.0042 -0.0621
20797W        W36691   9.809   5.826  15.393 -0.1640  0.1712  0.0098
20798W        W36692   9.316  15.679  13.113  0.0154  0.0773  0.0700
20799W        W36693   8.680  10.472   3.004  0.4857 -0.0653  0.1329
20800W        W36694   6.331   6.500  14.787  0.2376  0.2947 -0.1578
20801W        W36695   2.313   5.068  14.000 -0.2292  0.0352  0.0816
20802W        W36696   2.959  13.376  14.860  0.0053 -0.0907  0.1274
20803W        W36697   8.033   5.859  14.448 -0.1927 -0.0689  0.0905
20804W        W36698   2.001   8.550  12.300 -0.2471 -0.0001  0.0984
20805W        W36699   5.027  10.162   3.304  0.0601  0.3624 -0.0811
20806W        W36700  14.335   2.337   0.722  0.2186  0.0319  0.1067
20807W        W36701   5.017   8.592  14.242  0.0316 -0.2081  0.2591
20808W        W36702   6.399   9.802   3.632 -0.0403  0.0869 -0.2109
20809W        W36703   4.954   6.265   1.284 -0.0899  0.0545  0.4280
20810W        W36704   0.636  10.285   4.882  0.1046 -0.2114  0.3221
20811W        W36705   7.065  12.805   2.115  0.0249 -0.3046  0.0323
20812W        W36706  11.030  17.813  11.399  0.0771 -0.2161 -0.2882
20813W        W36707   7.759  10.051  15.226 -0.4524  0.0741 -0.0376
20814W        W36708  11.653   4.502  13.675  0.1069  0.0117  0.0779
20815W        W36709  16.171  15.625   1.998 -0.2903 -0.0486  0.0330
20816W        W36710  15.435   7.266   3.901 -0.0721 -0.3491  0.3608
20817W        W36711   0.269   3.445  10.505  0.0876  0.0652 -0.1209
20818W        W36712  17.131   8.354  15.439  0.1930  0.0996  0.0254
20819W        W36713   8.086  14.298   4.779 -0.4132 -0.3122  0.1137
20820W        W36714   8.637   3.927  13.651  0.1143 -0.2394  0.1453
20821W        W36715   2.551  18.552  14.109 -0.4298 -0.2231  0.3069
20822W        W36716   1.391   4.068  10.738  0.0942  0.3965 -0.1089
20823W        W36717   5.281  10.094  12.558  0.2365 -0.2416 -0.1524
20824W        W36718  14.669  18.409   3.869  0.1476 -0.4647  0.3200
20825W        W36719  10.036  17.597  12.283  0.0910 -0.1137  0.0089
20826W        W36720  11.476  12.254  15.334 -0.2772 -0.2671  0.0488
20827W        W36721  10.815  18.115   1.304 -0.3061 -0.1698  0.2266
20828W        W36722   6.916   2.707   4.078  0.1634  0.2786  0.0749
20829W        W36723  16.459  11.768  14.112  0.0594  0.0994  0.1877
20830W        W36724   7.130   4.885   1.095 -0.1256  0.4451 -0.1379
20831W        W36725   7.134   6.312   2.212  0.0646  0.4083 -0.0344
20832W        W36726   8.608   4.725  11.755 -0.1371 -0.1089 -0.1480
20833W        W36727   4.954   5.660   5.674  0.1140  0.0025 -0.4205
20834W        W36728   3.121   4.082   1.372 -0.1451  0.1254  0.1462
20835W        W36729  13.493  18.238  11.680  0.3227  0.0202 -0.2162
20836W        W36730   2.655  14.138   2.761 -0.0716  0.0217 -0.0821
20837W        W36731  12.865  12.933   1.749  0.3846  0.0356 -0.1554
20838W        W36732  13.229  14.684   4.899 -0.3002 -0.0735 -0.0377
20839W        W36733  12.480  18.579   4.786 -0.4316 -0.0435  0.1892
20840W        W36734   7.386   6.694  10.332  0.0252  0.1083  0.1467
20841W        W36735   7.853   3.586   2.634 -0.4942 -0.1217 -0.1596
20842W        W36736  14.137  16.488   1.779  0.0836 -0.1411  0.1478
20843W        W36737   4.748   3.049  14.553 -0.0702  0.1285 -0.0994
20844W        W36738  18.105  16.974  11.933  0.2137  0.2818 -0.0778
20845W        W36739   5.069   1.859   0.164 -0.1256  0.1438  0.1432
20846W        W36740  10.306   7.050   4.266  0.3465  0.0449 -0.0335
20847W        W36741   2.705   5.363   3.221 -0.2470  0.0772 -0.0474
20848W        W36742  16.539   7.091   2.205 -0.1000 -0.1838  0.1776
20849W        W36743  18.576  16.705  14.082  0.1960  0.2710 -0.1239
20850W        W36744  13.017   1.198   2.465 -0.0614 -0.0599 -0.1225
20851W        W36745   7.165  13.919   1.434  0.1297  0.0462  0.0351
20852W        W36746   4.411  13.053  12.573 -0.0802 -0.0131  0.0571
20853W        W36747  13.631   5.033  11.741 -0.0472  0.0873 -0.0454
20854W        W36748   3.343  10.156   4.537 -0.0907  0.0538 -0.0517
20855W        W36749   2.970  15.257   6.152  0.2518  0.2493  0.1619
20856W        W36750   7.880  17.594   0.581  0.1860  0.0864  0.0442
20857W        W36751   4.282   5.740  15.256 -0.0134  0.1808  0.0405
20858W        W36752  15.303  12.380  13.724 -0.2897  0.2507 -0.1566
20859W        W36753   2.692   1.084   4.528 -0.2208 -0.2603 -0.1808
20860W        W36754  16.202  10.569  12.677  0.2435  0.0808  0.1144
20861W        W36755   9.112  17.335   5.373 -0.0821  0.3035 -0.1162
20862W        W36756   7.857  12.117  15.477 -0.2804  0.0356  0.1103
20863W        W36757  15.545   7.714  14.658  0.4953 -0.0075  0.0731
20864W        W36758  18.490   3.150   2.038 -0.1856 -0.0625  0.3029
20865W        W36759   1.286  12.133  14.775 -0.2116  0.0726 -0.1856
20866W        W36760  11.123  11.257   1.782 -0.0747  0.1958 -0.2030
20867W        W36761  18.052   8.436   6.033  0.0653 -0.3532  0.1617
20868W        W36762  13.210   7.825   1.409  0.0263 -0.1192 -0.0864
20869W        W36763   3.123  16.459  11.299 -0.0687  0.2358  0.2043
20870W        W36764   7.803   6.179   1.941  0.0599  0.0531 -0.2585
20871W        W36765   5.949   5.148  14.357 -0.0712 -0.1105  0.0914
20872W        W36766   7.163   5.648  12.923  0.1218  0.2583 -0.0024
20873W        W36767  10.219   3.730   2.395 -0.3210 -0.1299  0.2163
20874W        W36768  17.336  12.968  10.135  0.1039  0.1235 -0.0828
20875W        W36769  14.263   7.663  14.474 -0.0788  0.1507  0.0043
20876W        W36770   5.313   3.044   4.256  0.3161  0.3098 -0.2816
20877W        W36771   3.141   9.749   1.701 -0.2644  0.1362  0.0578
20878W        W36772  18.282  10.058   0.091  0.2202 -0.2095  0.0341
20879W        W36773   0.395   5.162  11.318  0.1135  0.0457 -0.0266
20880W        W36774  18.767  14.249   0.668 -0.2266 -0.1204  0.0925
20881W        W36775   9.763   0.975   3.408  0.1659  0.1810 -0.2188
20882W        W36776   7.571   1.554   3.564 -0.2599  0.1147 -0.1329
20883W        W36777  11.463   2.820   2.976 -0.0366  0.1545 -0.2451
20884W        W36778   2.030   2.672   4.393 -0.1866 -0.1375 -0.3082
20885W        W36779   1.086   3.361  14.948  0.1752  0.0222  0.0180
20886W        W36780  13.598   8.028   2.090 -0.2477  0.1540 -0.0040
20887W        W36781  17.755   3.649   4.797 -0.2860 -0.1860 -0.1399
20888W        W36782   2.557   1.586  12.900  0.1589 -0.1672 -0.1245
20889W        W36783  16.110   3.788  10.429 -0.2486 -0.0946 -0.0874
20890W        W36784  11.843  12.008   4.893 -0.0346 -0.1524  0.4193
20891W        W36785   4.823  12.874   3.572  0.0719  0.1241  0.2158
20892W        W36786  15.730  12.783   1.552  0.1286 -0.0768 -0.1204
20893W        W36787   5.128   8.048   3.939 -0.0852  0.0535 -0.1856
20894W        W36788   3.505  17.251   3.835 -0.1525 -0.0570  0.1476
20895W        W36789   2.337  18.627   4.932  0.0856 -0.0565  0.0831
20896W        W36790   0.499   7.799  12.900  0.2323  0.1264  0.1165
20897W        W36791  11.926   8.357  11.289  0.2442  0.0503 -0.2752
20898W        W36792  15.521  16.146   5.310 -0.3911 -0.2415  0.2034
20899W        W36793   3.765  18.529   1.929 -0.2190  0.1430 -0.0350
20900W        W36794   2.716  13.858   0.027  0.0296 -0.0919 -0.0399
20901W        W36795  11.582   1.530  10.851  0.0371 -0.2470 -0.1457
20902W        W36796  12.795  18.840   5.215  0.0348 -0.1687 -0.1755
20903W        W36797   1.930  17.272  12.609  0.2592  0.0940 -0.1222
20904W        W36798   9.224  15.991  15.152 -0.2059 -0.0661 -0.2143
20905W        W36799   8.505  15.387   5.643  0.1930  0.0530  0.0961
20906W        W36800   5.159  12.885  14.333  0.0116 -0.3173 -0.1154
20907W        W36801  17.913  17.438   0.645 -0.0237  0.0008 -0.0535
20908W        W36802  14.588  17.093  14.489 -0.0048  0.0219  0.3149
20909W        W36803   3.736   7.065  14.780  0.1369  0.1032  0.1811
20910W        W36804   2.554   3.118   5.799 -0.0658  0.1384 -0.1206
20911W        W36805   3.043   0.160   4.677  0.1367  0.2568 -0.0916
20912W        W36806   2.577   2.433  12.445 -0.0110  0.2428  0.0569
20913W        W36807   5.960   4.452   3.172 -0.1263 -0.2782 -0.1491
20914W        W36808  15.524   4.466   5.444 -0.0872 -0.1743 -0.2952
20915W        W36809   2.460   2.012   2.083  0.2809  0.0228  0.2269
20916W        W36810  11.309  14.286  12.629  0.0640 -0.1318 -0.0306
20917W        W36811  15.225   5.000  11.738  0.2126 -0.1432  0.1339
20918W        W36812  18.704  12.294   2.036  0.4850 -0.1879 -0.1245
20919W        W36813  14.690   7.287  14.146 -0.1302  0.1323 -0.3523
20920W        W36814  18.597   6.601  12.481 -0.1197  0.0945 -0.3419
20921W        W36815   5.779   0.446   3.103 -0.0132  0.1753  0.3556
20922W        W36816  15.421   7.831  10.727  0.3490 -0.4195 -0.3169
20923W        W36817   8.462   2.367   3.689 -0.0459  0.0681 -0.0356
20924W        W36818   8.892   9.987   3.442 -0.0997  0.0064 -0.1870
20925W        W36819   4.026  17.337   0.819  0.1802 -0.1264  0.2087
20926W        W36820  13.070   6.483   2.767 -0.1155 -0.1298  0.1506
20927W        W36821   9.193   3.168  10.925  0.0881 -0.0029  0.1339
20928W        W36822  12.429   2.360   0.345  0.2621  0.1067 -0.0130
20929W        W36823   6.506  18.286  10.840  0.0094  0.4688 -0.0054
20930W        W36824   0.369   8.234   1.228  0.3130 -0.1403  0.0534
20931W        W36825  13.693  18.240  13.385  0.1088 -0.1928  0.1160
20932W        W36826   5.172  16.486   4.539  0.2862  0.0406 -0.0210
20933W        W36827   0.268   0.196   0.272  0.4035 -0.1098  0.2727
20934W        W36828  12.808   9.169   1.495 -0.1358  0.2337  0.0505
20935W        W36829  12.396  10.154  12.950 -0.2661 -0.1713  0.2334
20936W        W36830  10.367  10.942  12.856  0.0783  0.0045  0.0237
20937W        W36831  15.124   9.915   0.004  0.1337  0.0532  0.2830
20938W        W36832  17.089  11.868  10.758  0.1631 -0.1511 -0.0428
20939W        W36833   4.857  15.679  14.028  0.0762 -0.2930 -0.2477
20940W        W36834   8.867   1.861  11.814  0.2515 -0.1888 -0.0830
20941W        W36835  17.552  18.121   3.620 -0.0977  0.0825  0.1799
20942W        W36836  12.708   4.905   1.128 -0.0925  0.3273  0.1626
20943W        W36837   9.203  13.528  15.195 -0.2593 -0.0012 -0.0457
20944W        W36838  16.551   2.131  10.449 -0.4355 -0.1334 -0.0792
20945W        W36839   7.164  10.712   1.760 -0.1327  0.0870 -0.0468
20946W        W36840  17.669   9.264  13.543  0.0165  0.1444 -0.0313
20947W        W36841  13.297  18.653   3.598 -0.0617 -0.0034  0.1507
20948W        W36842  11.639  13.970  13.611  0.1623  0.2154 -0.1757
20949W        W36843   4.108   4.693   2.176  0.0104  0.0784 -0.4662
20950W        W36844  11.743   5.030  15.224 -0.0544 -0.0786  0.1258
20951W        W36845  14.894  17.234  15.357 -0.1349 -0.1748 -0.2886
20952W        W36846   6.247  16.842  13.435  0.1161 -0.2261  0.1980
20953W        W36847  15.858  10.178   2.723 -0.1483 -0.1765 -0.1164
20954W        W36848   3.528   6.205   2.184  0.2559 -0.1108 -0.0976
20955W        W36849   4.906   4.482  13.313 -0.0248  0.2047  0.0563
20956W        W36850   7.218   9.309   4.578 -0.0427 -0.1491  0.3134
20957W        W36851  13.399  12.343  15.469  0.2175  0.1545 -0.1147
20958W        W36852  16.678   8.143  15.043  0.3993 -0.1579 -0.1026
20959W        W36853  10.067   3.318  11.376 -0.0338  0.0567 -0.2547
20960W        W36854   0.812   8.274  14.260 -0.0978  0.0706 -0.3013
20961W        W36855   9.224  12.341  12.287  0.1838 -0.1560  0.0029
20962W        W36856   6.064   6.226   1.455  0.1129 -0.0594  0.2421
20963W        W36857   5.199  15.982  13.194  0.0335  0.5086  0.0345
20964W        W36858   2.123  10.688   2.430  0.1954 -0.3037 -0.1956
20965W        W36859  12.044  15.135   0.025  0.2407  0.2110  0.2029
20966W        W36860   1.004  12.002  12.862 -0.0451 -0.2449 -0.4158
20967W        W36861  15.870  17.707  12.022  0.2029  0.0922  0.1890
20968W        W36862   0.072  16.031   2.428  0.1445 -0.3775 -0.1957
20969W        W36863  10.266   5.937  12.427 -0.1110  0.2051 -0.3621
20970W        W36864  11.617   7.920  15.315 -0.5125 -0.0196 -0.2450
20971W        W36865   6.824  17.917   5.210 -0.2640 -0.1118 -0.0071
20972W        W36866   3.965   7.807  11.542 -0.0952 -0.2795 -0.2036
20973W        W36867  14.738   4.686   1.943 -0.1033  0.1056  0.2367
20974W        W36868   9.637  15.271   6.106  0.2048  0.2688  0.0009
20975W        W36869  15.467  13.971   0.363 -0.3649  0.1041 -0.1063
20976W        W36870   1.483   5.822  14.183  0.0869 -0.0520 -0.3054
20977W        W36871   2.370   9.849  15.206  0.0533  0.2608  0.0093
20978W        W36872   9.670   3.767  12.571 -0.2310  0.0471 -0.3635
20979W        W36873  11.161   2.675  14.817  0.1266 -0.0826 -0.1485
20980W        W36874  16.209  14.524   3.006 -0.4173 -0.1223 -0.0235
20981W        W36875  15.568  15.819   0.117  0.0763  0.0568 -0.3972
20982W        W36876  11.554  13.485  13.684  0.3702  0.0731  0.0733
20983W        W36877  18.195  13.526  14.945 -0.1368 -0.0860  0.3183
20984W        W36878   6.378   1.271   1.145  0.0222  0.1137 -0.0280
20985W        W36879   6.210   4.021  12.049 -0.3061 -0.0881 -0.2997
20986W        W36880   2.641  14.812  14.517 -0.0551 -0.2013 -0.0181
20987W        W36881  11.083  16.737   1.049 -0.0348  0.1061  0.1161
20988W        W36882  18.657   6.133   9.984 -0.1814  0.1496 -0.0411
20989W        W36883  17.566   6.903  13.507  0.2101 -0.1366 -0.1606
20990W        W36884  12.541   1.693   5.234 -0.1019  0.2278 -0.4616
20991W        W36885   9.168   9.378  12.561  0.2024  0.1231 -0.2634
20992W        W36886   4.830   6.960  13.949 -0.0367  0.0300 -0.0478
20993W        W36887   9.127  17.814  10.079  0.0682 -0.0528  0.0851
20994W        W36888  13.096   8.458   0.870 -0.3689  0.3897 -0.0132
20995W        W36889  13.074   7.279  13.604  0.3250 -0.1551 -0.1298
20996W        W36890  10.418   8.543  15.307 -0.2463 -0.0282 -0.0144
20997W        W36891   0.640   5.775   2.026 -0.1978  0.4061 -0.0312
20998W        W36892  12.953  16.573   2.816 -0.0017  0.2306  0.1455
20999W        W36893   9.292  14.771   4.178 -0.0006  0.2055  0.0782
21000W        W36894  10.540  15.136   1.333 -0.0162  0.3002 -0.0494
21001W        W36895   2.619  17.974  13.155  0.0496 -0.0440 -0.0921
21002W        W36896  14.498   6.863  14.478  0.1024  0.0821  0.1602
21003W        W36897  11.625   0.052   3.080 -0.1086 -0.1413  0.0344
21004W        W36898  15.201  18.570  14.799  0.0951 -0.2478 -0.1365
21005W        W36899   5.425  10.947  12.868  0.1019 -0.2244 -0.1173
21006W        W36900   6.816  11.451   3.491  0.1837  0.1451 -0.1184
21007W        W36901   8.189  13.339   5.161 -0.2053  0.0907 -0.1232
21008W        W36902  17.379   9.061   0.127  0.6465  0.1555  0.1018
21009W        W36903  17.374   4.829  10.196 -0.2682  0.4216 -0.2494
21010W        W36904  11.038  15.044   2.364  0.0496  0.1609  0.2033
21011W        W36905   6.709   4.682  10.722 -0.3854  0.1091  0.1117
21012W        W36906   3.962   8.492  10.752  0.0021 -0.0837 -0.1572
21013W        W36907   9.273   7.830   1.888  0.2158 -0.2023 -0.1913
21014W        W36908   0.112  11.748  15.437  0.0117  0.0520 -0.0508
21015W        W36909   3.143   5.310   1.542 -0.1246 -0.0113  0.2452
21016W        W36910   7.502   2.895  12.345 -0.1847 -0.0252 -0.0439
21017W        W36911   5.713  16.428   4.454 -0.0558  0.2635 -0.2432
21018W        W36912  15.987  14.429  12.599 -0.3475 -0.2597  0.0638
21019W        W36913   9.570   2.840   2.604 -0.2324 -0.1150 -0.0090
21020W        W36914   7.829   8.781   5.284 -0.3349  0.0801 -0.0095
21021W        W36915  18.697  10.571  14.795 -0.0055 -0.0093 -0.0958
21022W        W36916   5.615   6.290   1.227  0.0927 -0.4746 -0.3346
21023W        W36917  12.429  11.877   2.066  0.0885  0.1675  0.2960
21024W        W36918  15.775   4.014   0.593  0.0621  0.1772  0.0098
21025W        W36919   2.614   5.810  12.283 -0.2971 -0.1754  0.2306
21026W        W36920  16.297  15.040  11.075  0.0018  0.0973  0.0878
21027W        W36921   9.631  14.325   1.147 -0.1117 -0.2173  0.0306
21028W        W36922   6.544   2.446   3.263 -0.0469  0.6502  0.3240
21029W        W36923  14.870   0.277   5.420 -0.1045  0.2145  0.2130
21030W        W36924   3.906   6.551  12.195 -0.3223  0.0580 -0.1700
21031W        W36925   4.844   1.833  14.383 -0.1613  0.0141 -0.1720
21032W        W36926   7.145  14.714  11.101 -0.3525 -0.1789 -0.2398
21033W        W36927  10.347   3.398  10.274 -0.3203 -0.0770 -0.1979
21034W        W36928   3.814   4.769  10.065  0.4227  0.0552  0.0369
21035W        W36929   0.545  17.541  14.502 -0.2003 -0.1601  0.1452
21036W        W36930  13.760   9.144  14.607  0.0526  0.4383  0.1209
21037W        W36931  18.084   3.277  13.613 -0.0691 -0.3650 -0.0417
21038W        W36932  10.288   0.762   5.565 -0.1339 -0.2556  0.2358
21039W        W36933   1.981   4.872   2.097  0.1405  0.0225  0.2138
21040W        W36934   4.085   9.919   1.402  0.0671  0.2885  0.0893
21041W        W36935  15.771  16.464   0.058 -0.0398  0.4462  0.0651
21042W        W36936  15.910  11.399  11.428  0.0569  0.0382 -0.1160
21043W        W36937  18.023  14.963   3.315 -0.0490  0.2310 -0.2588
21044W        W36938  12.641   7.689  13.702  0.2147  0.0867 -0.2442
21045W        W36939   6.162   8.211  10.992  0.2330 -0.0183 -0.0831
21046W        W36940  10.968   7.150  13.840 -0.2346  0.0012 -0.0386
21047W        W36941   5.563   8.498  15.483  0.2064  0.0466  0.1976
21048W        W36942   1.855  16.262   2.773 -0.0244 -0.2862 -0.3478
21049W        W36943  12.684  11.309   0.235 -0.0376 -0.0188  0.2487
21050W        W36944   8.832  10.690   1.082  0.0853  0.0397  0.0219
21051W        W36945  17.294  14.015  11.913 -0.1123 -0.0925  0.1006
21052W        W36946   6.138  18.094  14.199 -0.2542 -0.2063 -0.1812
21053W        W36947   9.605   9.944  14.173 -0.0452  0.0269 -0.0786
21054W        W36948  15.395  17.667   2.005  0.3144 -0.2142  0.3167
21055W        W36949   3.477  13.684   4.613  0.1343 -0.0897  0.0440
21056W        W36950  16.349  10.090  10.727  0.4716  0.1753 -0.0904
21057W        W36951   1.001   0.554  13.208 -0.0108 -0.0943  0.1568
21058W        W36952  13.560  11.295   5.492 -0.1023 -0.0208 -0.2460
21059W        W36953  18.010   5.318   3.220  0.0068 -0.2035  0.1308
21060W        W36954  17.259  12.264  11.670 -0.1043 -0.1646 -0.4493
21061W        W36955  12.343  12.887   1.788  0.1264 -0.2426  0.0056
21062W        W36956  15.257  18.441  12.526  0.4573 -0.1183  0.4617
21063W        W36957   6.956  17.906  12.193 -0.1697  0.1707 -0.0061
21064W        W36958  13.080   7.654  11.440  0.0253 -0.0936  0.1585
21065W        W36959  17.153   0.977  13.037 -0.1169  0.2808 -0.1564
21066W        W36960   9.076  10.280  13.097 -0.0094  0.2389  0.0696
21067W        W36961   5.630   2.478   2.217  0.0015  0.0682  0.1214
21068W        W36962   5.182   6.000   4.284 -0.1550  0.1857  0.0065
21069W        W36963   5.314   4.758  11.234  0.2482 -0.2842 -0.0896
21070W        W36964  10.014   2.337   5.560  0.0153 -0.2338 -0.0240
21071W        W36965  18.367  18.081  11.424  0.3256 -0.2062  0.0362
21072W        W36966   4.007   7.405   3.901  0.2617  0.1659 -0.0318
21073W        W36967  15.089   9.266  15.210  0.0606  0.2707  0.0990
21074W        W36968   3.329   4.551   1.368  0.0148  0.0704  0.1080
21075W        W36969   3.164  11.851  12.464 -0.2396  0.3074  0.0601
21076W        W36970  14.606   8.164  11.064  0.1087 -0.2954 -0.0166
21077W        W36971   2.799   6.616   1.076  0.1001  0.0117 -0.1751
21078W        W36972   6.571   0.197  11.974 -0.1030 -0.1277  0.0675
21079W        W36973   9.742   8.778   2.792 -0.1195  0.2691  0.4547
21080W        W36974  16.815  12.904  13.761  0.2679 -0.0448 -0.0888
21081W        W36975  15.702   4.062  14.628  0.5282  0.2968  0.0551
21082W        W36976  14.951  14.446  13.941 -0.1915  0.2380  0.0902
21083W        W36977   1.683   7.604  11.083 -0.3755 -0.1293 -0.1295
21084W        W36978   2.567  10.957  11.635  0.2439 -0.3584  0.0342
21085W        W36979   4.295  11.813   1.771  0.1626  0.1731 -0.1048
21086W        W36980   8.933   6.207  12.230 -0.0878  0.1319 -0.2341
21087W        W36981  12.871   9.765  12.151  0.1019  0.3577  0.2074
21088W        W36982   8.461  17.712   2.223  0.0753 -0.1093  0.1179
21089W        W36983   8.584  10.760  13.546  0.0697 -0.0904 -0.0176
21090W        W36984  12.202   3.550  11.366  0.0190  0.0274  0.4032
21091W        W36985   0.926  13.585  13.704  0.0646 -0.1198  0.2182
21092W        W36986  13.857   0.418   5.047  0.0387 -0.0401 -0.2134
21093W        W36987   0.705  18.879   2.254  0.2314 -0.0411  0.0753
21094W        W36988   6.420   3.674   5.926 -0.0164  0.0597 -0.2653
21095W        W36989   2.749  16.360  11.691 -0.0449  0.0264 -0.0768
21096W        W36990   7.076   4.033  15.180  0.1548 -0.0631 -0.2144
21097W        W36991   9.059  15.973   4.985 -0.1811  0.0219  0.0138
21098W        W36992  14.936   2.312   5.539  0.2691  0.3355  0.2985
21099W        W36993  14.994  11.878   5.327  0.4056 -0.1558  0.2153
21100W        W36994   9.544   4.675   3.871  0.1645 -0.0186 -0.0965
21101W        W36995  14.296   8.986   2.917  0.1045 -0.1846  0.1573
21102W        W36996  16.307   9.299   2.535 -0.3347 -0.3426  0.1948
21103W        W36997  14.962  10.127   0.512  0.2685 -0.1516 -0.2060
21104W        W36998  16.946   5.919  15.240 -0.0121  0.0965  0.6315
21105W        W36999   1.080  10.304   3.469 -0.0903 -0.2189  0.1269
21106W        W37000   9.526  16.875   5.244  0.1795  0.0850  0.2644
21107W        W37001  10.950   3.303  12.332  0.1582 -0.1622  0.1136
21108W        W37002   8.875   6.563   1.352 -0.3936  0.2177 -0.1346
21109W        W37003   5.065   5.487  14.707 -0.1268 -0.1425  0.0983
21110W        W37004   6.016   6.000  14.781 -0.2041 -0.1701 -0.2178
21111W        W37005   1.467  18.686  11.889  0.1420 -0.1596  0.0328
21112W        W37006   2.256  13.317   0.970 -0.0085 -0.0388 -0.4887
21113W        W37007  14.641  17.977   4.778 -0.2481  0.2813 -0.3321
21114W        W37008  15.992  18.300   3.159 -0.1226 -0.0840  0.0985
21115W        W37009   7.814   5.257   2.498 -0.0680  0.2204  0.0171
21116W        W37010  11.833  17.000  15.055 -0.4624  0.2419  0.3283
21117W        W37011   1.606   8.281   0.115  0.1800  0.2179  0.1277
21118W        W37012   1.484  13.375  13.150 -0.1437  0.1920  0.0046
21119W        W37013  10.553   3.717   0.499 -0.2844  0.1378 -0.1650
21120W        W37014  11.862  12.287   0.590 -0.2432  0.0892 -0.3256
21121W        W37015  14.308  15.280   2.019 -0.0758 -0.0723 -0.0565
21122W        W37016   8.416   9.168   4.394 -0.0435 -0.0428  0.1374
21123W        W37017   7.736   4.928  12.457 -0.2030  0.0885 -0.1383
21124W        W37018   2.139   7.845  14.432  0.0817 -0.3136  0.0143
21125W        W37019   4.759  14.875   0.959 -0.0334  0.3009 -0.0785
21126W        W37020  12.909  14.944   5.237 -0.1710 -0.1736  0.1585
21127W        W37021   7.165  17.392  12.355 -0.2359  0.0381  0.0286
21128W        W37022   2.531  11.518   5.031  0.1741  0.0751 -0.0193
21129W        W37023  15.083  17.487  14.947  0.2061 -0.3282  0.0375
21130W        W37024   8.194  17.955   1.826 -0.0966 -0.1857  0.1173
21131W        W37025   4.975   2.802  14.202 -0.2692 -0.0491  0.2182
21132W        W37026   8.310  15.047   4.466 -0.0052  0.1664  0.0998
21133W        W37027  16.207   9.125  10.823 -0.0718  0.0054  0.1472
21134W        W37028   9.694  14.094   3.095  0.2491  0.4663 -0.0720
21135W        W37029   8.950   3.911  14.903 -0.0163 -0.2275 -0.2687
21136W        W37030   0.174   6.865  13.785  0.2128  0.0335 -0.3760
21137W        W37031  11.658   1.924   1.459 -0.1577  0.2335  0.0802
21138W        W37032  14.253   4.369   3.273  0.1414 -0.4331 -0.1459
21139W        W37033  11.546   4.207   4.615  0.1591 -0.1638 -0.2158
21140W        W37034   4.197   9.177  11.741  0.0962 -0.3450  0.0419
21141W        W37035   3.737  14.752  10.607 -0.1201  0.2493  0.3305
21142W        W37036  16.236   6.498   0.679 -0.0966  0.0629 -0.0299
21143W        W37037  17.889   8.569   1.750  0.0029 -0.0076 -0.2395
21144W        W37038  18.714   3.053   3.922 -0.0042 -0.2169  0.1437
21145W        W37039   0.720  18.417   0.903  0.1682  0.0615 -0.0052
21146W        W37040  13.926   0.137   2.865 -0.1404  0.2410  0.1669
21147W        W37041  11.132  10.032  10.084 -0.3558  0.5390  0.1889
21148W        W37042   8.306   7.675   1.744 -0.0762 -0.1803  0.2063
21149W        W37043  10.334   7.106   1.021  0.1117 -0.0464  0.1359
21150W        W37044  10.601  14.339   2.060 -0.0711  0.0343  0.0644
21151W        W37045  17.154  12.830   5.221  0.1353 -0.0340 -0.0713
21152W        W37046  15.728   9.855  15.331  0.1397 -0.0267  0.3455
21153W        W37047  10.527   2.256   5.630  0.1332  0.2013  0.2023
21154W        W37048   7.846  10.923   3.085  0.0074  0.3229 -0.0544
21155W        W37049   2.469  11.485   3.624  0.1292 -0.1989  0.0597
21156W        W37050   9.259   0.300  14.848  0.4331  0.0275 -0.1217
21157W        W37051   7.116   8.151   1.916  0.1216 -0.1587  0.1204
21158W        W37052   3.270   9.079  10.633 -0.2483 -0.1813  0.0041
21159W        W37053  11.654  11.714   1.756  0.2399 -0.2367 -0.0290
21160W        W37054   0.698   7.724   0.875  0.0136  0.1316  0.1441
21161W        W37055  10.924   5.076   3.104  0.0641 -0.2242 -0.1484
21162W        W37056  15.052   2.975   2.687 -0.1841 -0.0314 -0.0693
21163W        W37057   3.212   4.956  13.876 -0.1992 -0.0104 -0.0222
21164W        W37058  10.631   5.054   5.291  0.0938  0.2652 -0.0569
21165W        W37059  16.478   6.173   2.512  0.3025 -0.0185 -0.4291
21166W        W37060  12.471  12.280  12.334 -0.0915  0.0796 -0.0794
21167W        W37061   9.423  17.851   1.185  0.3094 -0.3258  0.0154
21168W        W37062  12.146   3.111  13.543  0.2618 -0.0482  0.1297
21169W        W37063   6.037  10.901   1.385  0.1188 -0.2523 -0.0827
21170W        W37064   4.259  16.536  14.027  0.1699 -0.2320  0.2157
21171W        W37065   2.855  14.806  10.734  0.2187  0.4365 -0.0296
21172W        W37066   0.055   3.647  14.758  0.1199  0.1670  0.0860
21173W        W37067  18.469   4.706  13.362 -0.0343 -0.2684 -0.1885
21174W        W37068   8.738  15.021   2.525 -0.1737 -0.1503  0.0134
21175W        W37069   1.507   3.525  10.948 -0.1212 -0.0830  0.1544
21176W        W37070   8.169   2.954   0.666  0.0308 -0.2702 -0.1449
21177W        W37071   7.656  14.431   2.785 -0.1551 -0.0999  0.0576
21178W        W37072   4.252   2.183   2.058  0.0863  0.1209  0.0398
21179W        W37073  17.543  16.810  15.372 -0.0921  0.1729  0.2228
21180W        W37074  12.612  11.222   4.555 -0.1960 -0.2671  0.1492
21181W        W37075   7.399  12.270   0.155  0.0281 -0.1847 -0.2012
21182W        W37076  11.233  11.802   4.461  0.3175 -0.0799  0.0917
21183W        W37077  17.111  11.811   0.793  0.4427 -0.2423  0.3230
21184W        W37078   0.098  11.604   2.733  0.0323 -0.1983 -0.1033
21185W        W37079  11.001   2.775  12.463 -0.2519 -0.1885 -0.1509
21186W        W37080  13.403  17.839  13.793 -0.2803  0.3392  0.1594
21187W        W37081  15.477   8.066   1.127  0.1512 -0.0876  0.0051
21188W        W37082   1.334   7.924  12.447 -0.2325 -0.1971 -0.2318
21189W        W37083   6.592  18.405   4.905 -0.1169 -0.1259 -0.3652
21190W        W37084   1.400  13.026   0.931  0.1833 -0.0261  0.0238
21191W        W37085   5.583  13.126  12.945  0.2564  0.0894 -0.0108
21192W        W37086  13.387   6.064   0.635  0.0511  0.0121  0.0633
21193W        W37087  12.388  11.661  13.070  0.0628 -0.0707 -0.1347
21194W        W37088  16.541   6.468  14.952  0.0325  0.3057  0.1057
21195W        W37089   4.503  15.982  13.710 -0.0110 -0.1229 -0.2335
21196W        W37090  10.569  17.301   3.352 -0.1835 -0.2059  0.0626
21197W        W37091  15.290  17.867  12.591  0.3275 -0.0154 -0.1378
21198W        W37092  14.750  13.428  14.682 -0.0287 -0.0045  0.1530
21199W        W37093   6.556   5.968  14.040 -0.1122  0.1197  0.1011
21200W        W37094  10.847   3.151  13.044 -0.1913 -0.1986 -0.1535
21201W        W37095  10.308   4.360  11.441  0.0414 -0.1890  0.0064
21202W        W37096  15.502  13.438   3.675 -0.0679  0.2770  0.1095
21203W        W37097   8.923   8.155   4.119  0.2400 -0.0132 -0.0303
21204W        W37098  17.248   1.062   4.099  0.4432 -0.1190  0.0300
21205W        W37099   1.540  14.694  14.912  0.2727  0.0467 -0.1043
21206W        W37100   9.418   7.111   0.706 -0.2676 -0.0120  0.0567
21207W        W37101   5.615   4.689  10.702 -0.0220  0.1301  0.1927
21208W        W37102   0.182   8.584  15.475  0.0226  0.1408  0.1405
21209W        W37103   4.093  13.668  13.155  0.0986  0.0772  0.0729
21210W        W37104  10.173  12.788   4.580  0.0094  0.2240 -0.0362
21211W        W37105  17.524  18.698  13.753  0.2082  0.3246 -0.0223
21212W        W37106  18.506  12.704  12.863 -0.0065 -0.0805  0.0767
21213W        W37107   6.414   8.448  11.999  0.2019  0.2653  0.0623
21214W        W37108   4.345   0.807  11.708  0.4605 -0.2586  0.2519
21215W        W37109  10.937  13.665   2.962  0.1796  0.1392 -0.0234
21216W        W37110  17.419  15.727   2.855  0.1179 -0.1115 -0.5339
21217W        W37111  15.511   1.718  12.163  0.2324  0.0859  0.0928
21218W        W37112  11.717  12.971  14.421  0.3591  0.0052 -0.0106
21219W        W37113  11.145  15.716  15.177 -0.3815  0.1952  0.0565
21220W        W37114   6.535   0.415   0.183 -0.2822 -0.0033 -0.0479
21221W        W37115   4.836   8.103   0.512  0.0621  0.2228 -0.4237
21222W        W37116   4.490  10.171  12.188  0.0718  0.0561  0.1026
21223W        W37117  11.457   6.423   5.484  0.2950  0.0925  0.1658
21224W        W37118   9.672  15.780  13.406 -0.0029  0.2040 -0.3820
21225W        W37119  16.341  18.599   4.294 -0.0387  0.3302 -0.0248
21226W        W37120  12.881  17.543  14.090  0.1611 -0.1558 -0.3254
21227W        W37121  14.282   3.797   1.511  0.0321 -0.0391  0.0795
21228W        W37122   2.582  12.138  14.666 -0.0572 -0.4277  0.1409
21229W        W37123   5.153   5.746   2.607  0.2072 -0.0850  0.2347
21230W        W37124   2.914  17.707   3.299 -0.0024 -0.1054  0.1308
21231W        W37125   1.812  13.720  13.001  0.0157 -0.1471 -0.0968
21232W        W37126   9.297  16.168   2.613  0.1938  0.0788 -0.5500
21233W        W37127  12.043   0.855  12.050  0.0156  0.2429  0.2432
21234W        W37128  13.802  17.604   2.980  0.2737 -0.0281  0.0170
21235W        W37129  10.789   2.341   2.176  0.4838 -0.0221 -0.0615
21236W        W37130   0.853   3.401  14.443  0.1891  0.0164  0.0533
21237W        W37131   2.635  18.684   3.310  0.2903 -0.1962 -0.1811
21238W        W37132  10.972   6.350  11.189 -0.0198  0.2449  0.2439
21239W        W37133   6.751   4.556   0.956 -0.0637  0.1643  0.3252
21240W        W37134   7.764   6.002  11.560 -0.0834 -0.2704 -0.1108
21241W        W37135   0.877  16.190  13.803 -0.0811  0.0641 -0.0336
21242W        W37136  12.094   4.041   2.116 -0.1014 -0.0085 -0.0576
21243W        W37137   5.607   8.451  14.520 -0.2391 -0.1692 -0.3041
21244W        W37138  12.031   1.117  13.554 -0.2778 -0.2562 -0.0908
21245W        W37139   0.328  12.166  13.249  0.4195 -0.0068 -0.2309
21246W        W37140  11.609  10.975   2.488  0.0306  0.1694  0.2577
21247W        W37141  11.551   5.231   5.150 -0.1168  0.0881 -0.2748
21248W        W37142   4.331  16.463  10.759 -0.1615 -0.2102  0.0139
21249W        W37143   2.197  17.191   3.148  0.1563  0.0285  0.2163
21250W        W37144  10.051   0.931   5.135 -0.0151 -0.0267 -0.1905
21251W        W37145   2.600  11.656  12.840  0.1648  0.0675  0.0794
21252W        W37146   4.463  10.817   3.398 -0.5279 -0.2619 -0.2275
21253W        W37147   9.345  12.386   5.010 -0.3699 -0.4071  0.1150
21254W        W37148   7.960  17.170  11.311 -0.1748 -0.0598  0.0608
21255W        W37149   6.890  11.007  13.046 -0.0204  0.3679 -0.2555
21256W        W37150   4.266  17.915  11.992  0.0903 -0.2260  0.2466
21257W        W37151   5.218   6.881   3.921  0.2240 -0.0011 -0.2470
21258W        W37152   4.722  12.249  10.136 -0.1653 -0.1426  0.1948
21259W        W37153   5.830  12.261   2.948  0.1390 -0.4475 -0.4402
21260W        W37154   5.802   2.696   2.991  0.1002  0.0797 -0.0030
21261W        W37155   1.004  14.321   3.299  0.1258  0.1774  0.1497
21262W        W37156   9.313  13.134  13.899 -0.1623  0.0687 -0.0626
21263W        W37157   4.080  12.383   2.534  0.0375 -0.1679  0.0402
21264W        W37158   1.360   7.249   3.885 -0.0003 -0.1284  0.4212
21265W        W37159  13.325  11.654  12.349 -0.3284 -0.0576 -0.3540
21266W        W37160   6.784   1.134   1.664 -0.1660  0.0521  0.0646
21267W        W37161   7.207  16.934  11.408  0.0644  0.2728 -0.0183
21268W        W37162  11.829   2.764  15.461  0.0421 -0.1101 -0.1278
21269W        W37163  18.744   8.003  12.133 -0.0776  0.3292  0.0436
21270W        W37164   6.510  16.859  14.078  0.1808 -0.3172  0.0691
21271W        W37165   9.035  13.033  15.050  0.0948 -0.2076 -0.0088
21272W        W37166  18.836  12.423  14.954  0.1263 -0.0705  0.1079
21273W        W37167  11.679  13.652   4.455 -0.2202  0.2014  0.0348
21274W        W37168   7.797   4.852   2.836 -0.1015 -0.0962 -0.2351
21275W        W37169   0.814   8.269   1.094 -0.0972 -0.2404  0.0799
21276W        W37170   1.267  12.719  12.372  0.0956 -0.1589  0.1291
21277W        W37171   7.445  17.773  14.058 -0.0659 -0.0657  0.1588
21278W        W37172   4.588  11.488  13.746  0.1166  0.0264  0.3407
21279W        W37173   4.489   1.115   1.628  0.0806  0.1671 -0.0522
21280W        W37174   6.845  11.522   4.073 -0.4525 -0.3929 -0.1879
21281W        W37175  13.759  14.551  15.323  0.2730 -0.0577 -0.0560
21282W        W37176   2.222  14.769  11.350  0.0431  0.1872 -0.1725
21283W        W37177   6.805   0.131  15.317  0.1271  0.2562  0.0211
21284W        W37178  10.126  10.079  10.006 -0.3541  0.0385 -0.2260
21285W        W37179   8.364  11.768   0.449 -0.3909 -0.1380 -0.3494
21286W        W37180  12.656  11.940   4.399  0.1066 -0.3827 -0.0593
21287W        W37181  16.783  14.836   4.661 -0.0627  0.3741 -0.3391
21288W        W37182   5.974   9.377  13.403 -0.1113  0.0258 -0.2685
21289W        W37183   0.129  12.001   4.574 -0.1857  0.0938  0.1273
21290W        W37184   8.066   2.538  12.868 -0.0262  0.0902  0.2005
21291W        W37185   7.467   8.112   3.696 -0.1732  0.1890  0.1938
21292W        W37186   2.707   1.835   1.667  0.0823  0.1011  0.1098
21293W        W37187  17.612   8.630   0.097 -0.0536  0.1573  0.2202
21294W        W37188   0.816  18.068   0.107 -0.1055 -0.0597  0.3985
21295W        W37189  14.227   7.041   2.034  0.1496  0.0284 -0.3877
21296W        W37190   4.132  11.432  12.382  0.1333 -0.0373 -0.2871
21297W        W37191   5.394   0.975   2.422  0.2920  0.3239 -0.0247
21298W        W37192   6.719   9.763   4.537 -0.0278 -0.0443  0.5836
21299W        W37193  13.352  18.578   0.732  0.2242  0.2545  0.2165
21300W        W37194  15.266   2.245   5.942 -0.0477  0.1117  0.1870
21301W        W37195  18.728   8.633   2.538 -0.0507  0.0149 -0.1606
21302W        W37196  10.795   4.065   4.084 -0.2501  0.0948 -0.0694
21303W        W37197  10.581   0.885   0.285  0.0320 -0.4451 -0.0095
21304W        W37198  15.424   8.237  12.083  0.1463  0.0499  0.0837
21305W        W37199  16.253   7.613   9.663  0.2778 -0.1955  0.1911
21306W        W37200   5.887   0.267   2.256 -0.0108  0.4734 -0.0460
21307W        W37201  16.868   5.963   0.636  0.0016  0.0715  0.1024
21308W        W37202   4.460   1.902  13.576  0.2811  0.0857  0.2587
21309W        W37203  15.876  16.088   4.976  0.0198  0.1645  0.2718
21310W        W37204   6.665   0.838   2.086 -0.1025  0.1339  0.0924
21311W        W37205  11.932   7.137   3.642  0.2158 -0.1521 -0.0774
21312W        W37206  16.220  17.665  12.388  0.1862  0.0059  0.0426
21313W        W37207  12.375  11.077  13.362  0.3155 -0.1430  0.0489
21314W        W37208  16.741  11.463  11.911  0.0697  0.0017  0.2323
21315W        W37209   2.999  18.168  10.465  0.0001 -0.0474 -0.1776
21316W        W37210  12.186   1.032   0.033  0.0030 -0.1137 -0.2887
21317W        W37211  11.884  11.729  13.234 -0.1758  0.2990 -0.2152
21318W        W37212  11.207  18.002  11.836 -0.3085 -0.1912  0.1000
21319W        W37213  16.974   9.319   0.941  0.3110 -0.0939  0.3288
21320W        W37214   5.360   3.127   5.286  0.0130 -0.1796 -0.2027
21321W        W37215  18.095  14.954  15.143 -0.0113 -0.0145  0.0581
21322W        W37216   7.500   2.606   3.347 -0.1388  0.1697 -0.1000
21323W        W37217   7.313   7.333   2.467  0.2739  0.4903 -0.0154
21324W        W37218  18.073  14.440  12.659  0.2157 -0.0123 -0.0132
21325W        W37219  14.525   0.943  13.787 -0.0682  0.0145  0.1750
21326W        W37220  12.291   5.552   1.781 -0.0369 -0.4123  0.2709
21327W        W37221   6.137   5.223  13.261 -0.1502  0.1868  0.0722
21328W        W37222   3.463   3.636  11.710  0.0587  0.1395  0.1365
21329W        W37223  12.376   8.422  12.454  0.0229 -0.0816  0.2004
21330W        W37224   1.640   0.148   4.996 -0.3244 -0.1941 -0.2223
21331W        W37225   3.423   6.602  13.170 -0.1205 -0.3097  0.1607
21332W        W37226   0.007  11.560   3.830 -0.0256 -0.0658  0.0820
21333W        W37227  14.006  18.788   5.528  0.2597 -0.1757  0.2136
21334W        W37228  11.897  14.916   2.192  0.0818 -0.0207  0.1718
21335W        W37229   4.876   5.478   2.984 -0.0600 -0.0335  0.1276
21336W        W37230  10.732   1.050  12.895 -0.0324 -0.0114  0.0300
21337W        W37231   9.649  13.257   3.288  0.1407  0.0582 -0.3112
21338W        W37232  14.005   5.854  10.782  0.0437  0.1519  0.1056
21339W        W37233   0.533   8.198  11.436  0.1777  0.0309  0.1271
21340W        W37234   2.467  13.422  11.602  0.0295 -0.1946  0.6116
21341W        W37235   4.768  18.821  10.887 -0.0466 -0.0301 -0.2675
21342W        W37236  14.155  16.132   4.326 -0.0660  0.0502 -0.0537
21343W        W37237   6.633  15.870   2.209 -0.3103  0.1737 -0.0597
21344W        W37238  17.365  10.650   1.335 -0.0304  0.1889  0.1270
21345W        W37239  11.098  12.777   5.424  0.1243 -0.2239 -0.2975
21346W        W37240   0.338   5.605   1.680  0.1334 -0.3155  0.3138
21347W        W37241   9.132   9.138   0.896  0.2503  0.0186 -0.1023
21348W        W37242  17.432   5.896  13.224  0.2932  0.3042 -0.3523
21349W        W37243   2.566  12.921  12.875  0.0819 -0.0506  0.1736
21350W        W37244   3.314   9.115  13.798  0.1272  0.0348 -0.2557
21351W        W37245  18.717   9.625   0.325  0.3433  0.1422 -0.0137
21352W        W37246   0.682  14.750  14.859  0.2243 -0.2066  0.1716
21353W        W37247  14.531   1.158   3.338 -0.4732 -0.1702  0.0790
21354W        W37248  10.901  12.695   2.463 -0.1535 -0.0247 -0.6083
21355W        W37249   9.164   2.965   3.517  0.1408 -0.3275  0.1196
21356W        W37250   0.435  14.476   5.786 -0.3295 -0.0381 -0.0845
21357W        W37251  14.563  16.228   1.631 -0.2134 -0.3021  0.0464
21358W        W37252   4.784  13.603   2.428  0.0765  0.1086 -0.1214
21359W        W37253  10.444   0.638   1.837  0.0529  0.2171 -0.1518
21360W        W37254   9.860  17.532   3.677  0.5601 -0.1669  0.0333
21361W        W37255   4.114  11.779  11.871  0.1258  0.2190  0.2583
21362W        W37256   2.360   2.637  13.477 -0.1893 -0.1146 -0.0385
21363W        W37257   3.110   7.197   1.762 -0.2913 -0.0737  0.0084
21364W        W37258  12.587   1.697  11.931 -0.2946  0.0897 -0.2461
21365W        W37259   9.365  17.605  12.833 -0.0992 -0.3422  0.0953
21366W        W37260  10.296  10.087  12.646 -0.1300 -0.4458  0.2112
21367W        W37261  11.703   8.419   2.082  0.0075 -0.3597  0.0230
21368W        W37262   5.633  16.111   0.375 -0.0475  0.1221  0.0238
21369W        W37263   7.133   6.633  11.929  0.2123 -0.1282  0.1880
21370W        W37264   2.245  16.570   2.623  0.1710 -0.1076  0.1757
21371W        W37265   0.050   2.360  12.920 -0.4625  0.0297 -0.2661
21372W        W37266   4.070   8.153   0.816 -0.1594 -0.0982 -0.2050
21373W        W37267  12.861   4.778  14.657  0.0125 -0.0286  0.0277
21374W        W37268   4.152   8.869   2.038  0.2731 -0.1846 -0.3412
21375W        W37269   9.725  12.074   5.162  0.0602 -0.1898  0.1192
21376W        W37270   8.343  14.527   0.661 -0.0322  0.2609 -0.0596
21377W        W37271   6.381  12.967  11.853  0.0212 -0.1126 -0.0873
21378W        W37272   0.292   5.473   2.980  0.2129 -0.1836  0.0073
21379W        W37273  13.002  15.483  11.450 -0.2727 -0.2748  0.1680
21380W        W37274   7.192   8.599   4.562  0.2208 -0.0974 -0.3404
21381W        W37275  16.905   0.120  11.343  0.0306 -0.2930  0.0938
21382W        W37276   9.918  12.995  11.397 -0.1924 -0.0476 -0.2256
21383W        W37277   1.106   2.821  14.886  0.3729 -0.0224 -0.3191
21384W        W37278   0.557   4.482  11.945  0.0311 -0.0695 -0.3600
21385W        W37279  14.843  17.877  13.734 -0.1444  0.2518  0.2518
21386W        W37280  14.344   7.710  13.999  0.1546 -0.1709 -0.1599
21387W        W37281   6.377   8.371   1.742 -0.0440 -0.2343  0.2383
21388W        W37282   2.095   2.905   5.674  0.0963 -0.1985 -0.6046
21389W        W37283  11.628  11.294  13.344  0.0241  0.1770  0.2638
21390W        W37284  16.942  17.534  15.311 -0.1439  0.3263  0.0466
21391W        W37285   5.343   4.029   0.365  0.1941 -0.0635  0.2081
21392W        W37286   5.860  14.698  10.564 -0.0751  0.1913  0.1290
21393W        W37287  14.495  15.490  11.333  0.0135 -0.1092 -0.2338
21394W        W37288   4.418  14.106   4.793 -0.0164  0.3875  0.4918
21395W        W37289   7.952   8.791   3.419 -0.1274 -0.4434  0.1809
21396W        W37290   5.153  12.323   5.111 -0.0915  0.0033  0.2256
21397W        W37291   4.037   2.519   0.677  0.2720  0.2490 -0.1617
21398W        W37292  17.032   3.215   5.586 -0.1460  0.1920  0.3207
21399W        W37293  14.042   4.869   2.459  0.0641  0.0915  0.2529
21400W        W37294  11.951  16.780  13.777  0.2383  0.0251 -0.1657
21401W        W37295   6.243   0.939   4.479  0.0528 -0.1512 -0.0756
21402W        W37296   8.138   1.181   3.029  0.3453  0.1456  0.2649
21403W        W37297  14.589  18.267   3.089 -0.2079  0.0280  0.0431
21404W        W37298   7.494   9.036   4.123 -0.0464  0.2937 -0.0096
21405W        W37299  16.162  16.683  14.848 -0.0366 -0.2350 -0.0392
21406W        W37300  12.878  13.595  15.007  0.1220 -0.2110 -0.3094
21407W        W37301  11.707  13.924   0.683  0.1346 -0.1647  0.0438
21408W        W37302  12.333  13.193   0.583  0.0547  0.1059 -0.3262
21409W        W37303   4.312   4.702   3.139 -0.3077 -0.2789 -0.0427
21410W        W37304  14.961  16.620   3.662 -0.2205 -0.1903  0.1089
21411W        W37305   8.894   9.717  12.314 -0.0229 -0.2828 -0.0559
21412W        W37306  14.474   3.996  12.402 -0.0595  0.1444 -0.3178
21413W        W37307   3.353  13.725  10.679  0.0683  0.1634 -0.2123
21414W        W37308  12.657   0.528   2.666 -0.1184  0.1180 -0.1774
21415W        W37309  10.824  18.658  14.340  0.0114  0.1038  0.0096
21416W        W37310   9.784  13.788   4.938 -0.1623 -0.1895 -0.0659
21417W        W37311  16.631  13.298  14.049 -0.2550 -0.0637  0.1284
21418W        W37312   4.451   6.498  12.951  0.2436  0.0820  0.1894
21419W        W37313   1.800   7.298   4.204  0.1539  0.0682 -0.1678
21420W        W37314  15.205  13.315  14.657  0.1099  0.0731 -0.1236
21421W        W37315   3.493   1.928   3.130 -0.2058  0.1571  0.0913
21422W        W37316  17.255   9.567   3.897 -0.1505  0.4074 -0.0876
21423W        W37317   8.261   8.220   0.276 -0.1547 -0.1507 -0.1779
21424W        W37318  17.156   6.296  13.135  0.0796  0.1931 -0.3048
21425W        W37319  14.149   4.645   4.096  0.0748  0.0655 -0.0910
21426W        W37320  16.479   2.281   4.871  0.3527 -0.0428  0.0056
21427W        W37321   3.886  14.634   2.704 -0.0039 -0.0394 -0.1100
21428W        W37322   3.419   1.744  12.894 -0.0106 -0.2443 -0.2602
21429W        W37323   7.250   1.827  14.522  0.3155 -0.0815  0.0932
21430W        W37324  10.830  14.379   1.529 -0.2141  0.2643  0.0256
21431W        W37325   7.316  17.531  14.932  0.0899 -0.2679  0.1394
21432W        W37326  16.778  18.678   2.139  0.1776 -0.1092  0.1807
21433W        W37327   1.139  13.475   1.932 -0.0332 -0.1486  0.0422
21434W        W37328   6.385   8.016   2.640  0.0403  0.0306  0.0094
21435W        W37329  15.720   2.574  14.646  0.0271 -0.0442  0.2073
21436W        W37330  11.679  17.104   5.590  0.3191 -0.2490  0.0969
21437W        W37331   6.414  16.258  12.668  0.0483  0.2195  0.1956
21438W        W37332   7.201   9.506   1.844 -0.3825  0.2132 -0.0522
21439W        W37333   7.301   6.902  12.393 -0.0616 -0.2419 -0.0698
21440W        W37334  13.137  10.692  14.705  0.0492 -0.1798  0.0457
21441W        W37335  12.876   1.819   5.731  0.0916 -0.0407 -0.1813
21442W        W37336  17.838   5.058   2.814  0.0370 -0.0124  0.0514
21443W        W37337  10.582   4.026   2.206 -0.2064  0.2632 -0.0728
21444W        W37338   6.879   2.142  13.267  0.0704  0.0614 -0.0827
21445W        W37339  16.280  15.899  12.857  0.3098 -0.2035  0.1205
21446W        W37340  13.001   1.355  14.008  0.2963 -0.2353 -0.2019
21447W        W37341  10.080  14.511   0.957  0.2659  0.0363  0.0959
21448W        W37342   2.953   3.471  11.705 -0.1213  0.2222  0.0506
21449W        W37343   7.329  11.444   3.296 -0.0546  0.1333  0.0731
21450W        W37344   1.546   3.822   3.091  0.1326  0.1819  0.0885
21451W        W37345   8.374  13.224  15.022  0.2381 -0.0342 -0.0549
21452W        W37346   4.940  10.326   0.125  0.1381  0.1896  0.0199
21453W        W37347  14.267   3.506  10.895 -0.0919  0.1380 -0.0698
21454W        W37348  17.044  11.990  13.444 -0.1540  0.2268  0.0953
21455W        W37349  13.881  14.178   0.128  0.1865  0.0380  0.2573
21456W        W37350  13.526  12.557   0.487 -0.0105  0.0548  0.0063
21457W        W37351   2.169  16.644   2.110  0.0617  0.1534 -0.0153
21458W        W37352   5.924  16.216  14.400 -0.0801  0.1494  0.0802
21459W        W37353   1.947   8.926   1.026 -0.2509  0.2862 -0.2092
21460W        W37354   6.884   9.501  14.162 -0.3794  0.1377  0.0695
21461W        W37355   9.727  15.395   0.629  0.1522 -0.0311 -0.1359
21462W        W37356  18.844   1.160   2.656  0.0376  0.0338  0.0039
21463W        W37357   7.611  18.472   0.165  0.0142  0.0426 -0.0694
21464W        W37358   9.999   8.499  15.071  0.0216  0.3139  0.0821
21465W        W37359   5.309   0.613   5.462 -0.1370  0.2736  0.0184
21466W        W37360  13.720  16.376  13.372 -0.2780  0.0459  0.0716
21467W        W37361   4.767   6.097   3.973  0.2528 -0.1061  0.1621
21468W        W37362  12.578   8.790   5.211 -0.0086  0.0363 -0.1226
21469W        W37363  10.287   1.628   6.047  0.0062 -0.5601 -0.0720
21470W        W37364   4.250   6.255  14.537 -0.2331  0.0218 -0.2740
21471W        W37365   8.538  14.901   0.184  0.0475 -0.3334 -0.2637
21472W        W37366  14.414  13.941   5.032  0.0306 -0.3052  0.2168
21473W        W37367   6.896  12.415   0.903  0.1587  0.2297 -0.0049
21474W        W37368   8.750  11.828   2.274 -0.0486 -0.2067  0.1741
21475W        W37369   4.240   7.376   1.018  0.0733  0.1731  0.0086
21476W        W37370  18.770   3.959  13.302  0.0253 -0.0702  0.0846
21477W        W37371  17.945  13.377   3.821 -0.2002  0.0172  0.2078
21478W        W37372  13.921  10.023   0.422 -0.1332  0.0729 -0.1257
21479W        W37373   1.633  18.581   5.429 -0.2208  0.3070 -0.1946
21480W        W37374   6.426   3.698   2.415 -0.0203  0.1004 -0.2213
21481W        W37375   0.333  14.227  11.244 -0.3604 -0.2032  0.2152
21482W        W37376  14.969   8.323   4.279 -0.1319 -0.0408  0.1483
21483W        W37377  15.694   2.865  15.074  0.1226 -0.0946  0.0796
21484W        W37378  11.409  15.873  14.764  0.0424 -0.3351  0.1630
21485W        W37379  11.115  12.082  10.588  0.2837 -0.0851 -0.0499
21486W        W37380   9.436   5.202   4.016  0.0309 -0.1087  0.1841
21487W        W37381  14.287   1.397  12.961  0.0545 -0.0819 -0.3363
21488W        W37382   8.969   1.765   2.365 -0.0664 -0.2458  0.1479
21489W        W37383  14.180   5.186  15.064  0.0988 -0.1151  0.2163
21490W        W37384   8.629  18.528  12.098 -0.4262 -0.1075  0.2106
21491W        W37385   5.105  15.459  13.123 -0.1845  0.1525 -0.0757
21492W        W37386  11.370   7.959   1.062 -0.1105 -0.0048  0.0497
21493W        W37387  13.205   6.961   2.824  0.1171 -0.1939 -0.0770
21494W        W37388  15.034  14.819   5.142  0.2785  0.1087 -0.0256
21495W        W37389   6.212  15.812   0.550 -0.0163 -0.3116  0.0706
21496W        W37390  15.362  15.314  11.200 -0.0169 -0.1936 -0.1144
21497W        W37391  17.018   4.995   0.267 -0.0318 -0.2849  0.0628
21498W        W37392   6.843   0.993   1.157 -0.0095 -0.0319  0.0988
21499W        W37393  17.690  15.783  11.531  0.1520 -0.0200 -0.1269
21500W        W37394   9.456  16.693   0.695 -0.1266 -0.0788 -0.1706
21501W        W37395  12.628  16.949   1.213  0.2176  0.0972 -0.1030
21502W        W37396   2.436   9.717  12.891  0.1304  0.0539  0.1848
21503W        W37397  13.276   3.894   9.826 -0.4348  0.1994 -0.1311
21504W        W37398   3.049   7.042  10.391  0.0187  0.3577  0.0670
21505W        W37399  15.172  15.424  15.030  0.0767  0.1278 -0.1497
21506W        W37400  15.295  13.454  13.813  0.3728 -0.1931  0.1733
21507W        W37401  12.887   4.457   1.260 -0.1911 -0.0565  0.3810
21508W        W37402   6.129   3.060   0.095 -0.1616  0.4110  0.0353
21509W        W37403   3.037   7.280  12.662 -0.0938  0.0036  0.0092
21510W        W37404  13.710   8.104   3.848 -0.3591  0.0522  0.3900
21511W        W37405   7.541  17.290   2.362  0.2536 -0.0911  0.0352
21512W        W37406   6.335   7.315  12.506  0.0937 -0.0043  0.0814
21513W        W37407   2.207   1.973   4.373 -0.2967 -0.3003 -0.1324
21514W        W37408  15.741   3.485  12.728 -0.2469  0.4270 -0.1442
21515W        W37409  13.217  16.455   6.445 -0.1792  0.3394  0.0739
21516W        W37410   3.217   2.340  12.612 -0.2868  0.0794 -0.1963
21517W        W37411   0.998   7.514  13.765  0.2426 -0.0945  0.1725
21518W        W37412   1.814  13.227   1.355  0.2048 -0.0652  0.0896
21519W        W37413   3.758   7.643   3.031  0.1486  0.0263 -0.0813
21520W        W37414   9.421  10.061  14.677  0.0963  0.1917  0.1963
21521W        W37415   9.751   4.970  14.593 -0.3286  0.0173  0.1229
21522W        W37416   5.244  16.967  14.511 -0.0646 -0.0971 -0.2217
21523W        W37417  15.831   1.202  12.665 -0.0048 -0.0617  0.1170
21524W        W37418  17.788  18.512   3.314 -0.0557  0.0105  0.1884
21525W        W37419  12.362  10.342   2.269  0.1874 -0.1620 -0.2155
21526W        W37420   7.997   0.856   0.065 -0.2335 -0.0273  0.2933
21527W        W37421   6.536  16.327   5.152  0.0728  0.1239  0.1961
21528W        W37422   0.677  15.234  14.176 -0.1100 -0.1679 -0.2317
21529W        W37423   4.884  17.594   5.534  0.3594 -0.0117 -0.1232
21530W        W37424  13.934   7.714   4.107  0.1213 -0.0830  0.1530
21531W        W37425   9.675   0.424  14.461  0.0419 -0.1468 -0.1636
21532W        W37426  13.839   9.377  15.237  0.2096 -0.2476  0.2037
21533W        W37427   7.728  15.998   4.527  0.4281  0.0264 -0.2247
21534W        W37428  10.185  16.070   9.729 -0.0345 -0.0715 -0.1353
21535W        W37429   8.103  16.933   0.874 -0.3115 -0.1401  0.3733
21536W        W37430   3.755   8.055  14.027  0.0387 -0.3378  0.0930
21537W        W37431   2.761   8.977  14.810 -0.0027  0.0674 -0.0028
21538W        W37432  11.033  14.108   2.178 -0.1689  0.1274 -0.0299
21539W        W37433  11.974   4.292  11.600  0.1495  0.3168  0.0647
21540W        W37434  12.728  10.297  12.147 -0.6709  0.2645  0.0078
21541W        W37435  10.119  15.996   3.927  0.0122 -0.2087 -0.0884
21542W        W37436  13.452   6.305  14.478 -0.3106  0.4876  0.0196
21543W        W37437   5.230  15.594   3.257  0.0394 -0.0870  0.0025
21544W        W37438   2.847   6.086  12.662  0.2160 -0.0771  0.1342
21545W        W37439  15.986  16.219  13.119  0.0597 -0.1528  0.2983
21546W        W37440  17.468   1.900   3.619  0.2186  0.2286  0.1293
21547W        W37441  12.991  13.135   4.499 -0.0070  0.2124  0.1858
21548W        W37442   8.293   1.689  11.676  0.1114 -0.2828  0.1273
21549W        W37443  15.228  17.456  14.433  0.0417 -0.1869 -0.1826
21550W        W37444   3.976  16.412   3.787  0.1678  0.2289 -0.3827
21551W        W37445   9.807   6.286  13.502 -0.3423  0.1836  0.2133
21552W        W37446  10.156  15.043  11.131 -0.3125  0.0681 -0.0112
21553W        W37447  18.305   3.888  13.652  0.0724 -0.0319 -0.0520
21554W        W37448  14.720   5.185  13.742 -0.2056  0.2429 -0.2549
21555W        W37449  18.262   0.381   0.401 -0.0486 -0.1874  0.3127
21556W        W37450   0.977   3.016  13.558  0.1858 -0.3214  0.0636
21557W        W37451  13.780  14.196  12.381  0.3140  0.1034 -0.0906
21558W        W37452  12.993   7.212   5.132  0.0572 -0.1608 -0.1850
21559W        W37453  14.777  15.073   1.923  0.1072  0.2956 -0.1946
21560W        W37454   9.299   2.817   1.712  0.1808  0.2542 -0.0508
21561W        W37455  10.928   3.492  13.900 -0.2648 -0.3055 -0.3847
21562W        W37456  14.337   2.184  13.431  0.1224  0.1589  0.0414
21563W        W37457   7.104   7.950   3.389  0.1828  0.0582  0.0844
21564W        W37458   1.459   1.773  15.211  0.0748 -0.1854 -0.2099
21565W        W37459  12.909  12.145   1.884 -0.0705 -0.0951 -0.3100
21566W        W37460   7.372   1.485   4.522 -0.2264  0.1992 -0.1680
21567W        W37461   7.287   1.409  13.647 -0.3131  0.2993  0.4003
21568W        W37462   7.723  16.208  12.602 -0.0588  0.2549 -0.0374
21569W        W37463   9.176  15.360  11.616 -0.0845 -0.1389  0.0806
21570W        W37464   4.990   3.216   5.601 -0.1018  0.2219 -0.0415
21571W        W37465   7.148  10.351  14.126  0.1500  0.0034  0.2177
21572W        W37466  15.559   4.976   0.951 -0.1551 -0.0369  0.0185
21573W        W37467   5.925  15.941   1.176  0.2240 -0.0185 -0.2839
21574W        W37468   9.532  17.158  13.117 -0.1590  0.2003  0.0424
21575W        W37469  11.935   5.241   1.981 -0.0811 -0.1515 -0.3145
21576W        W37470  15.733  10.000  11.507 -0.1425  0.0064 -0.2948
21577W        W37471  16.010  11.855   5.374  0.0829 -0.1027  0.0290
21578W        W37472   0.976   0.442   6.163  0.3068  0.0956 -0.0641
21579W        W37473   9.271  15.866   1.621 -0.2013 -0.1299 -0.3032
21580W        W37474  11.200  10.443  10.929  0.1822 -0.2577  0.1097
21581W        W37475  13.546   8.121  13.938  0.1043  0.3581  0.3863
21582W        W37476   6.568   5.711  12.107 -0.2115  0.0493 -0.1695
21583W        W37477   2.452   1.218  10.274  0.1573 -0.2604  0.0700
21584W        W37478  10.127  14.308   3.773  0.0332 -0.1618 -0.1701
21585W        W37479  10.849   4.599  14.897 -0.1774 -0.0496  0.1331
21586W        W37480  15.211  10.876   4.195 -0.2288 -0.1647  0.2587
21587W        W37481   8.384   8.289  14.851 -0.3575 -0.0141  0.3046
21588W        W37482  13.690  14.086  13.910 -0.2284 -0.0583  0.2609
21589W        W37483   8.396  10.647   5.343 -0.0629 -0.1541 -0.0494
21590W        W37484  15.071  15.949  15.385 -0.2485 -0.0725  0.1127
21591W        W37485   9.992   5.984   2.037  0.0110 -0.0887 -0.2536
21592W        W37486   7.311  12.304  14.725  0.0300  0.0733  0.0639
21593W        W37487  18.191  12.903  13.614 -0.1182  0.1088  0.5868
21594W        W37488   2.208   0.185  13.115  0.0906  0.1085  0.2256
21595W        W37489  18.354  10.193  12.784  0.1560 -0.3129 -0.0848
21596W        W37490   4.557   5.703  11.304 -0.1951 -0.0139 -0.3208
21597W        W37491  11.712  13.677   5.753  0.3332 -0.2806  0.0416
21598W        W37492  13.786  18.028   3.334 -0.2842  0.1189  0.1411
21599W        W37493   1.889   4.377   9.560 -0.2671  0.1300 -0.3894
21600W        W37494  18.122  13.648   2.760 -0.0516  0.1751 -0.0792
21601W        W37495  15.335   3.853   2.252 -0.2033  0.1888  0.4279
21602W        W37496  11.498   2.701   5.284 -0.3001 -0.0793  0.0669
21603W        W37497   9.013  11.383   1.851 -0.0143 -0.0043  0.0213
21604W        W37498  16.871  10.172  14.277 -0.2093 -0.2050  0.0088
21605W        W37499  16.822  12.680   4.834  0.2018  0.1404  0.2125
21606W        W37500  13.727   8.801  13.375 -0.0996  0.0791 -0.0414
21607W        W37501  14.482  10.625   0.201  0.1477 -0.0459  0.1850
21608W        W37502  12.438  10.065  13.687 -0.0235  0.0598  0.3106
21609W        W37503  10.644   8.019  11.041 -0.1063 -0.1457  0.4032
21610W        W37504   2.281   5.647   4.000 -0.0754  0.2210  0.1414
21611W        W37505  10.491   9.806   3.793 -0.2121  0.0399  0.1175
21612W        W37506   7.132   3.901  10.666  0.0768  0.0031  0.2872
21613W        W37507  10.250   0.179  13.036  0.0546 -0.2488  0.0168
21614W        W37508   6.255   1.993   2.509  0.1026 -0.0381 -0.1747
21615W        W37509   9.036   8.460  15.126 -0.1531 -0.0405  0.0509
21616W        W37510   0.927   5.156  10.967 -0.2833 -0.3698 -0.0568
21617W        W37511  15.055   5.364  13.377  0.2066  0.0077 -0.0733
21618W        W37512  17.593   3.339  13.636  0.0072 -0.2104  0.1225
21619W        W37513   2.931  11.490   3.071 -0.0756  0.0745 -0.1013
21620W        W37514  15.701   5.723   3.237  0.1736  0.0934 -0.3044
21621W        W37515  12.691   8.956  14.807  0.1692  0.0008  0.0232
21622W        W37516   9.773   8.094  13.533 -0.1747 -0.0398 -0.3211
21623W        W37517  16.094   7.319  14.314 -0.0220  0.1021  0.1864
21624W        W37518  15.230   6.682   1.561  0.0441 -0.2854 -0.1597
21625W        W37519  10.407   4.383   3.231 -0.1334  0.4191  0.2811
21626W        W37520  14.700  17.598  14.699  0.2492  0.0544  0.0665
21627W        W37521  12.692  12.585   2.517 -0.2428 -0.2336  0.0377
21628W        W37522   3.807  14.712  13.700  0.1008 -0.3968  0.1346
21629W        W37523   4.773  14.739   2.393 -0.0951  0.0397 -0.0270
21630W        W37524   9.284   9.376  14.051 -0.0793 -0.1397 -0.1954
21631W        W37525   4.355   5.969   3.088  0.0421 -0.3055 -0.1450
21632W        W37526   6.178  16.101   3.060 -0.2455 -0.0564 -0.0503
21633W        W37527  11.215   6.873   1.255 -0.1979 -0.3811 -0.0816
21634W        W37528   0.280   7.157   3.278  0.3644  0.1165 -0.2863
21635W        W37529  13.175   7.992   4.549 -0.1285  0.2377 -0.0571
21636W        W37530   6.615   5.459   2.534 -0.1525  0.3102 -0.0742
21637W        W37531   0.245  15.143   1.028  0.0182 -0.2695 -0.1639
21638W        W37532   6.172  17.863   0.886  0.0114  0.2762 -0.1733
21639W        W37533   5.601   5.153  12.062  0.0496  0.0710  0.2742
21640W        W37534  14.293   4.547   1.691 -0.1481  0.0898 -0.0701
21641W        W37535  16.772   2.782   3.297 -0.1297 -0.0302  0.0130
21642W        W37536  10.098  10.401   2.755 -0.0818  0.0603 -0.3916
21643W        W37537  18.792   9.387  10.860  0.0721 -0.2346  0.2342
21644W        W37538  13.780  11.134   1.769 -0.6107  0.2103  0.1610
21645W        W37539  10.455   3.535   1.039 -0.2556 -0.1571  0.1758
21646W        W37540   6.492  14.263  12.948  0.0827  0.0467  0.3761
21647W        W37541   1.951   1.978  14.279 -0.2600  0.1150 -0.0534
21648W        W37542   9.690  11.055  11.722  0.0570 -0.0484 -0.0065
21649W        W37543  18.844   4.877  11.899  0.0617 -0.0685 -0.2034
21650W        W37544   1.887  10.091   2.939 -0.0730  0.2782  0.2937
21651W        W37545   3.698  16.863  14.065  0.0802  0.1032  0.1109
21652W        W37546   7.010   4.629   4.175  0.0770 -0.3603 -0.1455
21653W        W37547   0.040   9.674   0.807  0.0448 -0.0713 -0.1491
21654W        W37548   8.950  11.365   0.903  0.2083 -0.2885  0.0304
21655W        W37549   6.747  15.778  12.572 -0.1068  0.0642  0.1183
21656W        W37550   3.845   9.055  14.124  0.2023 -0.2148  0.1788
21657W        W37551   5.663   8.282  14.998  0.1905 -0.1314 -0.0566
21658W        W37552  13.793   9.118   3.126 -0.1292  0.0608 -0.0970
21659W        W37553   2.802   8.643  12.635  0.0011  0.0888 -0.0547
21660W        W37554   8.648  13.966   1.266  0.0484  0.0817 -0.3024
21661W        W37555  13.662   3.080   3.584 -0.0864 -0.2256 -0.0366
21662W        W37556   9.694  18.231   5.476  0.1328 -0.1008  0.1975
21663W        W37557   2.872  10.721   4.746  0.1831  0.2399 -0.0617
21664W        W37558   5.877  10.402  13.548  0.0657 -0.0840  0.0972
21665W        W37559  11.231   4.703  14.601 -0.2167  0.2482 -0.3134
21666W        W37560  10.970   6.379   1.212  0.0488  0.0656  0.2564
21667W        W37561   4.473   9.036  13.025 -0.2411  0.0002  0.1766
21668W        W37562   9.119   2.737  11.322 -0.0958  0.2445  0.0213
21669W        W37563  12.555  18.713  13.154  0.1426  0.0104  0.0507
21670W        W37564   2.193   0.458  15.454 -0.2026  0.1385  0.2614
21671W        W37565   8.911   4.293   5.606 -0.2403  0.0034 -0.1163
21672W        W37566   8.381   4.505   4.420 -0.2209  0.0114  0.1161
21673W        W37567  13.058   5.580   0.044 -0.2858 -0.0866  0.0127
21674W        W37568  13.232  15.676   5.114  0.4761  0.2308 -0.0462
21675W        W37569   3.275   9.688  14.820  0.0789 -0.3021  0.1412
21676W        W37570   0.477  13.263  11.274 -0.2324 -0.0727  0.1074
21677W        W37571  15.546  11.090  11.702  0.0172 -0.2148  0.2624
21678W        W37572   6.370  13.633   0.581 -0.0300 -0.1414 -0.0215
21679W        W37573  14.403   6.946   5.114 -0.1386  0.1838  0.0190
21680W        W37574   7.105   6.676   4.149 -0.1249  0.0280 -0.1569
21681W        W37575  13.723  17.231   0.918  0.0001 -0.0211 -0.2670
21682W        W37576  17.644  12.547   1.870 -0.2234 -0.0124 -0.2361
21683W        W37577   6.288   2.515   0.047 -0.0844  0.2361 -0.1252
21684W        W37578   6.767  13.656   1.632  0.2051 -0.2880  0.0398
21685W        W37579  15.247  13.788   1.244 -0.0184 -0.0299  0.0909
21686W        W37580   0.421   1.270   0.457  0.0320 -0.2959 -0.0254
21687W        W37581   3.193  15.989   3.891 -0.0335 -0.0015 -0.0627
21688W        W37582  14.952   6.093  12.862  0.0929 -0.0865 -0.1575
21689W        W37583   8.816  13.125  13.817  0.0962  0.2527 -0.0742
21690W        W37584  14.774  11.133   3.498  0.1013 -0.1969  0.0609
21691W        W37585   3.211   6.483  13.726  0.3369 -0.0885  0.1349
21692W        W37586   6.239   3.542  12.208  0.1533  0.0175 -0.0462
21693W        W37587  11.550   8.707  11.326  0.0933  0.3456  0.1229
21694W        W37588  13.422  13.821  13.548 -0.1247  0.0899 -0.3548
21695W        W37589   4.915   1.371  13.576 -0.2437  0.0927  0.1550
21696W        W37590  12.752  10.545   3.899  0.0170  0.0790  0.1202
21697W        W37591  11.344   7.729   1.476  0.4151  0.3892 -0.2031
21698W        W37592   9.929   2.213  12.094  0.0200  0.0624  0.2243
21699W        W37593   1.039   1.430  14.845  0.0612  0.2985 -0.0138
21700W        W37594  15.619  15.859  11.046  0.2237  0.1492 -0.2209
21701W        W37595  13.567  14.319   4.681  0.1988  0.1175 -0.0066
21702W        W37596  15.107  16.513  12.451  0.0205 -0.3109 -0.0240
21703W        W37597  17.749   8.512  12.552  0.0755  0.2224  0.1518
21704W        W37598  14.511  12.481  11.081 -0.0630 -0.4721 -0.1510
21705W        W37599  13.166   7.012   4.143  0.1738 -0.1177  0.1117
21706W        W37600  12.382   9.520   2.756 -0.1802  0.4481 -0.1317
21707W        W37601   4.581   9.384   0.181  0.1319  0.0890 -0.0757
21708W        W37602   9.598  15.168   2.318 -0.0360 -0.0464  0.0599
21709W        W37603   8.244  17.792   0.257  0.2297  0.0283  0.1513
21710W        W37604  16.097   7.074   3.345  0.2995 -0.0923  0.3090
21711W        W37605  17.589   3.981  12.920  0.0649 -0.3865  0.0831
21712W        W37606   0.314  13.092  10.460  0.1012 -0.0196 -0.0011
21713W        W37607  12.260  10.203  12.385  0.2262 -0.1638  0.3024
21714W        W37608   3.970  17.248   2.295 -0.1257  0.0102  0.0740
21715W        W37609   5.587  13.627   4.780  0.1465 -0.0426 -0.3922
21716W        W37610   3.731   5.089  15.265 -0.2115 -0.0976  0.1031
21717W        W37611   6.300  18.795   4.192  0.1507  0.3129  0.2452
21718W        W37612   0.246   9.126   3.537  0.2070 -0.0868  0.0446
21719W        W37613   3.228  11.398  14.338  0.4928 -0.1373  0.1967
21720W        W37614   3.877   9.632  14.024  0.3194 -0.0715  0.0589
21721W        W37615   6.997  17.986   4.755  0.0118 -0.1217  0.0645
21722W        W37616  14.644  15.570   5.114 -0.3860 -0.1138 -0.4269
21723W        W37617  15.623  12.698   5.824  0.2971 -0.2035 -0.1160
21724W        W37618   4.950   7.005  11.625  0.0449  0.0871  0.0948
21725W        W37619   2.618  10.282   5.678 -0.1316  0.3910 -0.0723
21726W        W37620  16.093  11.138   0.656 -0.1550  0.2388  0.0929
21727W        W37621   2.532  14.594  11.769  0.0848 -0.0168 -0.0036
21728W        W37622  12.804   8.888   4.688 -0.0802 -0.1170 -0.0074
21729W        W37623   1.618   0.158  13.244  0.0460  0.1241 -0.2258
21730W        W37624   2.009  13.112  14.021 -0.5205 -0.0110 -0.0229
21731W        W37625  12.317   6.917   1.122  0.1701  0.0170 -0.3149
21732W        W37626   8.263   7.023   5.453 -0.0654  0.0396 -0.2049
21733W        W37627  13.748   5.372   1.815  0.2446  0.1257  0.0071
21734W        W37628   3.899   0.100  10.756 -0.2193 -0.0126  0.0887
21735W        W37629   2.470   2.493   3.107 -0.1069 -0.1221  0.1542
21736W        W37630  11.675  10.148   0.059  0.4209 -0.0806 -0.2650
21737W        W37631   4.925  17.959  13.075  0.1263  0.0012 -0.0135
21738W        W37632   8.286  17.186   5.954  0.1679 -0.0032  0.2795
21739W        W37633   2.781   0.218   0.544  0.2084 -0.0879 -0.1792
21740W        W37634  18.403  12.645   5.550 -0.2216 -0.0947 -0.1605
21741W        W37635  13.253   1.836  15.369 -0.0454 -0.0227  0.2493
21742W        W37636   1.702   1.967   0.270 -0.3616 -0.0143  0.3001
21743W        W37637   2.662  13.309  13.269 -0.1324 -0.1883  0.0022
21744W        W37638   0.756   2.172  12.129  0.0519  0.3415  0.1083
21745W        W37639   2.487  15.172  14.846  0.0834  0.1086 -0.0864
21746W        W37640  10.800   4.587   0.628  0.2048  0.1610  0.1965
21747W        W37641   8.520  13.305  11.871  0.2853 -0.0186 -0.0928
21748W        W37642  16.980  16.821   4.522  0.0933 -0.0431  0.0921
21749W        W37643   6.498  13.334  11.421 -0.4367  0.2000  0.1734
21750W        W37644   9.585  15.764   0.860 -0.3321 -0.0854 -0.0270
21751W        W37645  10.937   2.199  13.550 -0.1004 -0.1211  0.0600
21752W        W37646  16.993  12.812   1.818 -0.4631 -0.0879 -0.0439
21753W        W37647   0.026   7.267  13.546 -0.0129  0.1200  0.3199
21754W        W37648  18.013   0.075   0.601  0.1745  0.0104 -0.0196
21755W        W37649  14.665   5.241  12.570  0.2174 -0.0521  0.1075
21756W        W37650   7.607  12.551  12.518  0.0800  0.2852 -0.2185
21757W        W37651   6.478   3.539  13.859 -0.0887 -0.0505  0.1296
21758W        W37652  13.403   3.218  10.516 -0.0294  0.3434 -0.0263
21759W        W37653  17.257  12.178   4.427 -0.0273  0.1958 -0.0947
21760W        W37654  12.443   2.994  10.926 -0.0368 -0.3837  0.0569
21761W        W37655   0.361  16.672   4.053  0.0553  0.0980  0.1361
21762W        W37656  14.682   9.629   2.323  0.4610 -0.2401 -0.1496
21763W        W37657  13.216   5.487  13.470 -0.0991  0.1276 -0.1032
21764W        W37658   1.434   6.586   2.067 -0.3760  0.0596 -0.0166
21765W        W37659  10.551   2.954  12.181 -0.3284  0.1729 -0.0563
21766W        W37660   1.280  15.582   2.452 -0.2147 -0.3248  0.2949
21767W        W37661   0.658  13.881   1.623 -0.1946 -0.0776 -0.2655
21768W        W37662  16.778  13.586   0.418  0.0833  0.0032 -0.1509
21769W        W37663   8.138   6.950  11.788 -0.4327  0.2967 -0.1185
21770W        W37664  13.639  16.455   3.202 -0.0330  0.0508  0.0323
21771W        W37665  12.369   1.229  11.494 -0.1038  0.2611 -0.0186
21772W        W37666   5.403  13.489   1.138 -0.1415  0.0424 -0.1847
21773W        W37667   1.290   9.946   5.424 -0.2478 -0.2226 -0.3212
21774W        W37668  13.267   5.535  11.956 -0.0457 -0.3332 -0.2273
21775W        W37669  10.472  10.135  13.643 -0.0004  0.0470 -0.1125
21776W        W37670   7.680  17.778   1.504  0.1481 -0.1068 -0.0123
21777W        W37671  13.173   5.105   1.014 -0.0036 -0.0306  0.0219
21778W        W37672   7.655  14.923  12.124 -0.1644  0.4140 -0.1612
21779W        W37673   5.808  12.825  13.861 -0.0617 -0.1178  0.0747
21780W        W37674  12.468  12.160   5.613  0.0065  0.0690 -0.2380
21781W        W37675   8.625  16.981  11.276  0.1982 -0.0755  0.5581
21782W        W37676  14.945  16.421   6.489 -0.0143  0.0744 -0.0088
21783W        W37677   0.584  10.895   0.448 -0.1164  0.1898  0.0633
21784W        W37678   9.241  16.764  11.738  0.1212 -0.1121  0.2444
21785W        W37679  18.560  12.654  11.247 -0.0235  0.3639  0.0405
21786W        W37680  12.359  11.513   3.728  0.1329  0.1792  0.0306
21787W        W37681  18.121  16.205   4.523  0.3182  0.0783 -0.2845
21788W        W37682   5.929  11.778   2.907 -0.1999 -0.1027 -0.0175
21789W        W37683  15.025  15.350  13.517  0.0056  0.1860  0.4652
21790W        W37684   1.248   9.539  13.726 -0.0203  0.4775  0.1487
21791W        W37685   6.685   6.312   4.843 -0.2155 -0.0495  0.1004
21792W        W37686   0.994  10.400  11.639  0.0622  0.4697  0.1365
21793W        W37687   4.694  12.463   1.840 -0.1170 -0.2394 -0.1233
21794W        W37688  15.811  16.664  14.438 -0.1313  0.0666 -0.1536
21795W        W37689  17.342  14.933   4.568 -0.0162  0.0074 -0.0563
21796W        W37690   1.394   6.783  13.037 -0.3126  0.0426  0.0674
21797W        W37691   4.105   5.813  12.218  0.2201 -0.2798  0.0058
21798W        W37692   4.335   8.219   2.661 -0.1033 -0.0148 -0.0571
21799W        W37693  17.123   1.029  11.418  0.5361  0.0976  0.0706
21800W        W37694   8.046   9.489   2.473 -0.1434  0.0202 -0.2322
21801W        W37695  17.581  16.476  11.857 -0.1205 -0.1115  0.0052
21802W        W37696   7.279  16.295  14.855  0.0910  0.0510  0.1952
21803W        W37697   4.522  18.004   4.194  0.0279 -0.2165  0.0334
21804W        W37698   3.313  10.452   1.122  0.0158  0.1192 -0.2233
21805W        W37699   9.677   1.526   3.430  0.4702 -0.1472  0.0615
21806W        W37700   3.991   7.808   1.253 -0.3454  0.1801 -0.3338
21807W        W37701   6.114   0.265   5.080 -0.0828  0.1916 -0.1240
21808W        W37702  18.043  11.916   4.856 -0.1267 -0.0626 -0.1955
21809W        W37703   9.895   2.561   1.817 -0.1070  0.4083  0.2326
21810W        W37704  10.239  18.437  13.690  0.0087 -0.0535  0.0796
21811W        W37705   3.002  11.555   3.754 -0.1859 -0.1068  0.0800
21812W        W37706   1.856   2.679  11.968  0.0888  0.2453 -0.0217
21813W        W37707   2.559  12.498   1.267 -0.3646  0.3082  0.1094
21814W        W37708  12.385   9.870   0.392  0.1141  0.2036  0.5369
21815W        W37709   1.637  16.610  13.212 -0.1320 -0.2412 -0.0827
21816W        W37710   6.106  16.683  12.990  0.0098  0.1627 -0.2108
21817W        W37711   0.666   3.159  13.904 -0.2857  0.0166 -0.0843
21818W        W37712  11.844   8.940   9.630  0.0986  0.0061  0.1079
21819W        W37713   5.447  12.460  13.873 -0.1576 -0.3272 -0.0695
21820W        W37714   7.705  11.296  13.846  0.2197 -0.0340 -0.0178
21821W        W37715  11.719   1.171   4.372 -0.1282 -0.0500 -0.0118
21822W        W37716   3.979  12.262  12.916 -0.0021 -0.0537  0.2390
21823W        W37717   1.923   5.927   4.205  0.3460  0.1888  0.0408
21824W        W37718  15.351  11.369   0.258  0.1147 -0.1058  0.0071
21825W        W37719  13.083   4.752   1.616 -0.0762  0.2121  0.3966
21826W        W37720   3.546  18.620   3.650 -0.3382  0.2419  0.2552
21827W        W37721  17.126  17.078  10.797 -0.0327  0.2679 -0.3741
21828W        W37722   4.023   5.718   3.364 -0.0498 -0.2638  0.1159
21829W        W37723  16.453  12.623   2.216 -0.2219 -0.1480  0.2223
21830W        W37724   5.145  10.655  15.222 -0.2483 -0.1247  0.0385
21831W        W37725   7.345   8.007   2.905 -0.0518 -0.0820 -0.2925
21832W        W37726  11.819  12.138   1.542  0.0613 -0.0851  0.0444
21833W        W37727   2.377  10.603   0.142 -0.0826  0.0422 -0.1837
21834W        W37728   5.039   8.498   0.765 -0.2823  0.1991 -0.1559
21835W        W37729   1.912  18.358  12.021 -0.0518  0.2545  0.0528
21836W        W37730   9.516   8.480  13.763 -0.2768 -0.0004  0.1826
21837W        W37731  14.378  12.811   1.403 -0.2467  0.0163 -0.2521
21838W        W37732  10.391   2.227  13.799 -0.0425 -0.0517  0.0006
21839W        W37733  16.062   9.007  12.574 -0.3161 -0.0125 -0.1384
21840W        W37734  14.284   4.775   3.648 -0.0273 -0.2047  0.1155
21841W        W37735   8.399  10.382  14.769 -0.0511 -0.2532 -0.2859
21842W        W37736  16.187  16.448   2.263 -0.1489  0.1081  0.0854
21843W        W37737  13.970  14.792   1.182  0.1283  0.2601 -0.0414
21844W        W37738   3.700   9.648  14.578 -0.0547 -0.2684 -0.0860
21845W        W37739   9.742   9.561  13.608  0.1289  0.0007 -0.3469
21846W        W37740   8.087   6.865  13.234 -0.0151 -0.2059 -0.2452
21847W        W37741   5.596   5.675  12.037 -0.1824  0.0135 -0.2789
21848W        W37742   1.732  10.350   1.066 -0.0514 -0.0191 -0.1606
21849W        W37743   0.085   0.575   4.084 -0.0726 -0.0047 -0.0579
21850W        W37744  18.360  13.952   0.690 -0.1358  0.1864  0.0222
21851W        W37745   1.645  14.827   4.984  0.0943 -0.2208  0.1993
21852W        W37746   5.729  14.880  12.993 -0.3545  0.1787 -0.2355
21853W        W37747   8.834  17.492  13.635  0.0693 -0.1284  0.1392
21854W        W37748  11.719  12.434   5.133 -0.0018  0.2118  0.0783
21855W        W37749   7.167   8.031  11.433  0.0146 -0.0845 -0.0074
21856W        W37750   1.223  13.701   2.869 -0.2386  0.2263 -0.1283
21857W        W37751   1.835  16.694   1.618  0.2773 -0.2002  0.0213
21858W        W37752   4.942   0.992   1.836 -0.1071 -0.0188 -0.0865
21859W        W37753  15.220  12.863   1.323 -0.1074  0.1738 -0.2456
21860W        W37754   8.097  14.616  11.508 -0.3778  0.0533  0.1002
21861W        W37755  13.326   8.669  11.225  0.2537  0.3961 -0.3398
21862W        W37756  17.724   5.118  12.881 -0.2134 -0.0211  0.1461
21863W        W37757   3.447   7.048  15.469 -0.2086  0.3085 -0.1556
21864W        W37758  12.753  18.236   1.101  0.1590  0.1485  0.0760
21865W        W37759  18.673  11.728  14.029 -0.1017 -0.0369 -0.1071
21866W        W37760   1.429  12.466   4.994 -0.0277 -0.2430  0.1335
21867W        W37761   6.269  11.667   1.833 -0.5911  0.0983 -0.2495
21868W        W37762   0.878  12.759   4.796 -0.0969 -0.0845 -0.0590
21869W        W37763   9.148   7.484  10.596  0.0692 -0.0979 -0.2506
21870W        W37764  10.874   2.933  14.027  0.1496  0.0392  0.0169
21871W        W37765  15.188   3.791  12.044 -0.0922  0.0448 -0.2315
21872W        W37766   5.150  16.978  13.306  0.1110 -0.0975  0.3240
21873W        W37767   8.323   7.244   2.100 -0.1314  0.0257  0.0310
21874W        W37768  12.614   0.901   5.489 -0.0597 -0.1796  0.0790
21875W        W37769   4.620   0.221  14.917 -0.0845  0.0481  0.0049
21876W        W37770  15.962   7.440  12.608 -0.0838 -0.1565 -0.1728
21877W        W37771   8.083   8.071   1.450  0.0825  0.2227  0.0386
21878W        W37772  10.643  16.767   5.202 -0.2264 -0.2170  0.3123
21879W        W37773   1.080   8.200  15.447 -0.3329 -0.2313 -0.1162
21880W        W37774   9.859   1.895   5.201 -0.2524  0.0005 -0.3370
21881W        W37775   7.470  14.589  14.979 -0.0477  0.1583  0.3011
21882W        W37776  12.507   5.024  13.462  0.1101  0.0086  0.0901
21883W        W37777  18.005   7.465   3.476  0.1562  0.2040 -0.3098
21884W        W37778   8.838   9.983   4.892 -0.1537 -0.1173 -0.0497
21885W        W37779   7.760  14.366  14.062 -0.3579  0.2773 -0.1211
21886W        W37780  14.738   0.077   4.870 -0.1102  0.0548 -0.0964
21887W        W37781   1.254  15.742  11.491 -0.0016  0.1059 -0.0825
21888W        W37782  15.294   9.438  12.773 -0.1509  0.0244 -0.0074
21889W        W37783   4.202   3.930  14.328 -0.0274  0.0647  0.0240
21890W        W37784   6.185   8.011  14.838 -0.0986 -0.0027  0.2523
21891W        W37785  11.096   0.608  13.978  0.2347  0.0392 -0.0710
21892W        W37786   3.940  18.769  14.689 -0.1546  0.1451 -0.1681
21893W        W37787   8.780   6.940  10.852 -0.0610 -0.2246  0.0760
21894W        W37788  14.238  12.060   5.297 -0.1641  0.4599 -0.2608
21895W        W37789  10.302   1.510  12.101  0.0600 -0.1645 -0.2781
21896W        W37790  15.879  13.502  11.542  0.0031 -0.1377  0.0328
21897W        W37791   2.545  12.504   4.977  0.1459 -0.3354 -0.2163
21898W        W37792   5.045  16.507   0.896  0.1633  0.0576 -0.2107
21899W        W37793   0.997   5.323   2.144 -0.2126 -0.1440  0.1239
21900W        W37794  10.255  12.212   5.149 -0.0379 -0.1513  0.1834
21901W        W37795   4.098  17.295  11.876 -0.0101  0.0307  0.0965
21902W        W37796  13.999   5.667   4.095 -0.1316 -0.1475 -0.1567
21903W        W37797   6.427   5.916   1.628  0.3205 -0.0776 -0.3498
21904W        W37798  14.726   8.290  12.562 -0.1208  0.2760  0.2860
21905W        W37799  11.061   5.632  12.871  0.0534  0.1380 -0.0920
21906W        W37800  11.622   8.768  14.324 -0.1154  0.1936  0.0082
21907W        W37801   6.340  10.809  10.659 -0.0568  0.2156 -0.1360
21908W        W37802   8.523  17.040  11.922 -0.1789  0.0612 -0.2190
21909W        W37803  17.456  15.502  14.449 -0.1750 -0.2047  0.2364
21910W        W37804  17.315  17.912  11.187 -0.1936  0.0073  0.0461
21911W        W37805  12.004   6.996   4.922  0.1633  0.1786 -0.1935
21912W        W37806   8.691   7.999   0.552  0.1707  0.1183 -0.0287
21913W        W37807  18.339  18.344   4.534  0.0788 -0.1592 -0.4633
21914W        W37808  11.924   2.165   2.538 -0.0695 -0.1321 -0.1937
21915W        W37809  18.685  10.277   4.451 -0.2292 -0.0757 -0.3815
21916W        W37810   9.237  10.179   3.122  0.0151 -0.2138  0.0349
21917W        W37811   1.181   4.576  10.811  0.0074  0.1456 -0.0799
21918W        W37812  17.798   6.805   5.232 -0.1733  0.0329 -0.0880
21919W        W37813   1.077   1.459   3.898 -0.0353 -0.3827 -0.2925
21920W        W37814   4.290  18.592  10.966 -0.1171  0.0834 -0.1544
21921W        W37815  16.855   8.609  11.837  0.0310  0.0522 -0.2567
21922W        W37816   3.380   1.380   4.216  0.2794 -0.0783 -0.0023
21923W        W37817  16.134   7.051  11.345  0.1238  0.4296  0.0513
21924W        W37818  12.775  18.503   5.621  0.1779  0.1601 -0.3619
21925W        W37819  16.124  14.275   4.502 -0.0183  0.0957  0.1828
21926W        W37820  13.931   6.530  11.418 -0.3166 -0.1651  0.0646
21927W        W37821  13.025  12.734   4.201  0.1518 -0.0430  0.1756
21928W        W37822   7.046  10.685   2.786 -0.0422  0.1484  0.1203
21929W        W37823   3.729   5.549   4.911  0.2138  0.1782 -0.1721
21930W        W37824  17.908   4.373   2.257  0.1384  0.2171  0.3331
21931W        W37825   6.649   3.400  10.984 -0.3032 -0.0237 -0.0687
21932W        W37826  13.326   1.618   0.725  0.1948  0.2750  0.0189
21933W        W37827   5.308   8.639  13.373  0.3436  0.0543 -0.1826
21934W        W37828   1.941  15.907  13.931 -0.1845  0.1643 -0.0503
21935W        W37829  12.751  16.280   3.879 -0.0352  0.2949  0.0710
21936W        W37830  15.256   8.793   2.165 -0.2142  0.2576 -0.2621
21937W        W37831  18.732   5.106  11.228 -0.2166 -0.2054 -0.0761
21938W        W37832   0.726   0.404   0.289  0.2529 -0.1168  0.1429
21939W        W37833  13.539   3.762  12.358  0.5211 -0.0639  0.2802
21940W        W37834   8.422  11.196   4.490  0.0354 -0.4397  0.1810
21941W        W37835   0.247  15.165  13.250  0.2649 -0.2854 -0.0119
21942W        W37836   6.748  13.953   4.099  0.2440 -0.1097 -0.0635
21943W        W37837   4.114  11.401   0.298 -0.1238 -0.3824  0.0480
21944W        W37838  17.451  11.705  14.394 -0.1331 -0.1188 -0.0389
21945W        W37839   2.833   8.139   4.598 -0.0605 -0.0200  0.1889
21946W        W37840   9.982   5.681  13.919 -0.0340 -0.0105 -0.1257
21947W        W37841  12.769   6.073   1.652 -0.1283  0.1206  0.0366
21948W        W37842  17.517  16.770   4.357  0.0995  0.2320 -0.0316
21949W        W37843   6.380   4.060  12.500 -0.2384 -0.0541 -0.1297
21950W        W37844   4.233   2.176   3.705 -0.2883 -0.1067  0.0675
21951W        W37845  15.250   3.648   0.730 -0.1114  0.4242  0.0121
21952W        W37846   0.264  12.049  15.136 -0.1366 -0.0331  0.3392
21953W        W37847   6.200  12.129   4.503  0.0596 -0.2138 -0.1298
21954W        W37848   2.882   2.905   4.942  0.0510  0.2358  0.1549
21955W        W37849   2.101   5.677  13.686  0.0412 -0.1439  0.2095
21956W        W37850   8.294   0.296  12.890  0.0597  0.0270 -0.0917
21957W        W37851  10.533   4.137   1.694  0.0703  0.2101  0.1686
21958W        W37852  16.205  11.562  13.642  0.1425  0.0567  0.3761
21959W        W37853   8.557  15.198  13.284 -0.0312  0.3518  0.0786
21960W        W37854   3.110   3.648  10.736  0.3336 -0.0447 -0.1015
21961W        W37855  12.558  13.882  14.605  0.0328 -0.1157  0.2734
21962W        W37856  12.246   6.061  10.626  0.0253 -0.0365 -0.1817
21963W        W37857   5.890  10.669   2.096  0.0947 -0.0204  0.2940
21964W        W37858   6.879   9.608  10.551  0.2102 -0.2336  0.0788
21965W        W37859  14.018  14.319   2.387  0.0086 -0.1438  0.1276
21966W        W37860   8.471   0.336  14.989  0.0700 -0.2510 -0.0180
21967W        W37861   2.224  17.588   4.770  0.0867  0.1118  0.1522
21968W        W37862  18.628  11.975  12.164 -0.0060  0.2952 -0.0500
21969W        W37863   5.429   0.801   1.085  0.2212  0.0729 -0.0347
21970W        W37864  18.643   6.105  12.700  0.1985  0.1829  0.0214
21971W        W37865  16.544   8.510  12.241  0.0663  0.0233 -0.0133
21972W        W37866  18.393   9.737   0.768 -0.1264 -0.1750  0.1539
21973W        W37867  14.113  12.885   3.515 -0.3252 -0.1720 -0.1195
21974W        W37868   2.368   1.572   2.543 -0.4924 -0.3746 -0.0541
21975W        W37869   3.778   5.615  15.083 -0.1470 -0.0542  0.2041
21976W        W37870   0.409   4.186   2.577  0.0859 -0.0762  0.2850
21977W        W37871  13.161  14.190   3.456  0.0856  0.1677  0.0582
21978W        W37872   1.669  14.090   2.570  0.1109  0.0528  0.3320
21979W        W37873   6.557   6.485  10.486 -0.0335 -0.1030 -0.1814
21980W        W37874   4.985  11.792  11.947  0.2247  0.1879  0.1823
21981W        W37875  17.698   0.102   1.509  0.1680 -0.3490  0.0672
21982W        W37876   4.888  10.530   2.113  0.3756 -0.1256  0.2654
21983W        W37877  10.370   8.990   0.852  0.2011 -0.0672  0.2406
21984W        W37878   5.054  15.846  12.361  0.2636  0.0164 -0.1387
21985W        W37879  14.671   7.895   0.346 -0.4473 -0.2198 -0.1216
21986W        W37880   6.396  10.956  12.885 -0.0299 -0.0421 -0.2832
21987W        W37881  15.637   2.230   5.191  0.2436  0.1361  0.0594
21988W        W37882  10.889  16.812   1.518  0.1015  0.2525  0.0113
21989W        W37883  10.140   4.196  11.947 -0.3388  0.2341  0.1540
21990W        W37884  10.793  12.024  10.993 -0.1827 -0.0097 -0.1456
21991W        W37885  16.345  13.448  11.786 -0.1252  0.3168  0.1359
21992W        W37886   1.718  17.849   0.238 -0.1728  0.0752 -0.3731
21993W        W37887  11.866  15.442  13.386 -0.1142  0.3403  0.2492
21994W        W37888   3.100  14.980  14.328 -0.0055  0.2873  0.3571
21995W        W37889   8.176   8.730  10.780 -0.1130 -0.3297 -0.1447
21996W        W37890  10.726   2.264   3.894  0.0873  0.3843  0.0385
21997W        W37891   8.350   7.625   4.608  0.2734  0.1286 -0.0600
21998W        W37892   7.137   1.819   1.138  0.0615 -0.5815  0.2415
21999W        W37893   1.651  18.405  14.482  0.0956  0.3767 -0.2872
22000W        W37894  12.815   2.616   0.105  0.0895  0.2104 -0.3166
22001W        W37895  13.104   0.794   3.766 -0.1670 -0.0792  0.0868
22002W        W37896  13.203   7.451   2.771 -0.1200  0.3331 -0.1549
22003W        W37897  12.563   7.524  11.525  0.1778 -0.2299 -0.4102
22004W        W37898  18.362  11.700  10.945  0.1353  0.0815  0.1694
22005W        W37899   5.409   4.475  13.837  0.0350 -0.1197 -0.0454
22006W        W37900  12.070  17.739   1.357 -0.1567  0.1700  0.0657
22007W        W37901  12.835  17.285   4.050 -0.0761  0.3106  0.1993
22008W        W37902   1.975  13.829   0.581  0.0027 -0.1839 -0.0017
22009W        W37903  14.802  14.623  14.389  0.1233  0.0600  0.0647
22010W        W37904   8.247   1.335   1.515  0.4601 -0.1075  0.1898
22011W        W37905  13.519  11.835   1.204 -0.1766  0.1454  0.0650
22012W        W37906   3.534   5.219   3.267 -0.0251  0.0371  0.1083
22013W        W37907  11.180   2.880   4.280 -0.2545 -0.1597 -0.0066
22014W        W37908   4.834  12.154   2.242 -0.1198 -0.0348 -0.3007
22015W        W37909  10.667   3.422   5.351 -0.2530 -0.3725  0.1609
22016W        W37910  12.806   8.469   5.741  0.0332  0.0739 -0.1351
22017W        W37911  10.473   7.827   9.942 -0.2585  0.0839  0.0365
22018W        W37912  13.878   1.760  14.092 -0.0849  0.2679 -0.0196
22019W        W37913  16.963   7.994   4.276 -0.1825  0.0136 -0.1597
22020W        W37914  13.315  18.855   4.119 -0.1280  0.0014 -0.2201
22021W        W37915  12.969   3.766   1.577  0.1629  0.3192  0.3494
22022W        W37916   6.165   2.403   5.257  0.0244  0.1888 -0.3886
22023W        W37917  12.684   6.821  15.236 -0.1108 -0.2140 -0.0064
22024W        W37918   9.842  16.995   0.531  0.1024 -0.1052  0.1835
22025W        W37919  16.637   7.790  13.015  0.0508  0.0458 -0.0765
22026W        W37920  10.973  16.249   4.163 -0.0899 -0.0015 -0.1484
22027W        W37921  10.677   6.847   4.005 -0.0487  0.2074 -0.0185
22028W        W37922  18.687  13.694   4.403  0.2004 -0.2796  0.1952
22029W        W37923  10.397   7.527   2.786  0.1165  0.1277  0.0522
22030W        W37924  11.958  16.202   5.513 -0.2427  0.1943  0.1372
22031W        W37925  15.885   3.713   4.186 -0.2590 -0.1101  0.0331
22032W        W37926   3.817   4.756   3.087 -0.2657  0.0152  0.3296
22033W        W37927   1.891   5.323  12.424  0.1744  0.1319 -0.1199
22034W        W37928  12.741  13.141  14.339 -0.2411 -0.1355 -0.0573
22035W        W37929  12.219   9.111  14.562 -0.1229 -0.0192 -0.1852
22036W        W37930  11.410   5.722   2.078  0.0941 -0.0153  0.2624
22037W        W37931  14.950   2.854  13.582  0.3419  0.1262 -0.1603
22038W        W37932   7.104  12.555  12.707 -0.0238  0.1741  0.0647
22039W        W37933  11.205   4.788  13.734 -0.2661 -0.0557 -0.0500
22040W        W37934   3.416   8.792  14.196  0.1370  0.3357 -0.1889
22041W        W37935   1.817   3.290   3.933 -0.0374 -0.0900 -0.1330
22042W        W37936  15.011  13.267   2.513  0.1317  0.1961 -0.0619
22043W        W37937   1.197   9.285  11.640  0.1081 -0.3180 -0.1395
22044W        W37938  10.895   2.537  12.069 -0.3453  0.1145  0.2115
22045W        W37939   9.671   2.685  11.141 -0.0072  0.1963 -0.2369
22046W        W37940   9.140   8.719  14.580 -0.2424 -0.0981  0.2643
22047W        W37941   9.178  17.105   4.954  0.0223  0.1917  0.0917
22048W        W37942   6.440  18.480   2.613 -0.1425 -0.1183 -0.1338
22049W        W37943   9.807   9.400   3.267  0.0809  0.2741 -0.3257
22050W        W37944  16.925   3.992   4.868  0.0196  0.3523 -0.1114
22051W        W37945   1.877   8.822  14.874  0.3868  0.2415  0.2243
22052W        W37946  14.163  15.883  14.989  0.0003 -0.2024 -0.0949
22053W        W37947  10.828  13.099   9.924 -0.1949  0.1741 -0.3439
22054W        W37948   7.790   5.042  14.001 -0.2271 -0.1256  0.0700
22055W        W37949  14.839  16.264   1.129 -0.0098  0.2172 -0.0612
22056W        W37950  11.351   9.129   2.507  0.0632 -0.0651  0.1787
22057W        W37951  18.857   1.130   4.171  0.0992 -0.1431 -0.0452
22058W        W37952   7.131   1.269   3.616 -0.1205 -0.0024 -0.1375
22059W        W37953   9.844   8.152  12.594 -0.0367  0.0392 -0.1518
22060W        W37954   1.743   4.342  13.340 -0.2817 -0.3307 -0.1530
22061W        W37955   7.091   1.630  14.072  0.3296 -0.2139 -0.1078
22062W        W37956  12.100   2.158   4.271  0.0723 -0.0379 -0.0043
22063W        W37957  11.808   3.139  15.158  0.0499 -0.0401  0.0887
22064W        W37958  13.472  15.258   5.421 -0.3155 -0.1160  0.1521
22065W        W37959   7.738  16.469   4.330 -0.1654  0.1179  0.2449
22066W        W37960   0.695   7.852  14.010  0.2606  0.0732  0.2179
22067W        W37961  15.595   8.824   3.374 -0.1952  0.0553  0.2390
22068W        W37962  17.415   3.593   5.631  0.1219  0.1554  0.0029
22069W        W37963  18.211   0.056   1.099  0.1752  0.3782 -0.2631
22070W        W37964   9.459   0.847  13.054 -0.0209  0.1295  0.1533
22071W        W37965   3.032  11.261   2.529  0.0517 -0.1477 -0.2404
22072W        W37966  11.556  16.208   2.884 -0.0334  0.0954  0.0185
22073W        W37967  13.685  10.622   0.690  0.1650  0.0598  0.0272
22074W        W37968   7.815  12.640  14.593 -0.0499 -0.0090  0.2888
22075W        W37969  15.138   4.222   1.275  0.0106 -0.1386  0.0327
22076W        W37970  14.793  18.748   4.189  0.1097 -0.4227  0.0390
22077W        W37971   0.556  14.163  11.716 -0.0645  0.0441 -0.0162
22078W        W37972   5.479   0.943  14.264  0.0268 -0.4570 -0.1810
22079W        W37973   6.435  14.611   3.091 -0.1307 -0.1766 -0.0604
22080W        W37974   1.709  13.122  14.738  0.3163  0.2357  0.0395
22081W        W37975   0.022   9.914  10.932 -0.1473  0.3884 -0.0301
22082W        W37976   9.850  18.200  13.915 -0.4341 -0.0856 -0.1650
22083W        W37977  14.057  13.895  14.184 -0.1628  0.1891  0.1111
22084W        W37978  10.074  18.470   5.166  0.0225 -0.1511 -0.2602
22085W        W37979   6.416   4.281  10.724 -0.1300 -0.3638 -0.2294
22086W        W37980  17.944  17.914   4.926 -0.2130  0.0970 -0.0188
22087W        W37981  16.960  15.052   1.937 -0.0790  0.0136  0.1387
22088W        W37982   5.446  14.694  12.343  0.0360 -0.0600 -0.0033
22089W        W37983  18.207   8.685  11.691 -0.1413 -0.1884  0.0930
22090W        W37984  16.763   0.351  14.337 -0.1641 -0.1936  0.1258
22091W        W37985   8.585  11.359  15.263  0.1866  0.0622 -0.3285
22092W        W37986  14.644   3.152   2.495  0.0264  0.1467 -0.3904
22093W        W37987  13.037  14.944   3.565  0.1416  0.0738 -0.4236
22094W        W37988   4.047   6.874  13.903  0.1865  0.1107 -0.1522
22095W        W37989   8.043  13.184   1.347 -0.1793 -0.0930 -0.1583
22096W        W37990   7.577   9.626  11.980 -0.3502  0.1470  0.2170
22097W        W37991  18.472  15.009   3.452 -0.1046 -0.2817  0.2534
22098W        W37992   2.188   0.996   3.887 -0.1932 -0.0198  0.0394
22099W        W37993   5.916  10.910  12.879  0.1260 -0.0793 -0.0251
22100W        W37994   9.962   0.119   5.130 -0.2191  0.1231 -0.0465
22101W        W37995  18.190   9.420   2.005  0.0737  0.2141  0.0477
22102W        W37996  11.849  15.636   4.596 -0.2626 -0.1634 -0.2851
22103W        W37997  18.707   9.958   1.202 -0.3041  0.0597  0.2181
22104W        W37998   4.308   1.674   4.577  0.2068 -0.1840  0.0634
22105W        W37999   0.912   6.283  12.302 -0.2054 -0.5280  0.0915
22106W        W38000   7.681  16.692  12.564  0.0560 -0.0508 -0.2401
22107W        W38001   5.503   9.953  10.198 -0.1891  0.0739  0.2606
22108W        W38002   6.928   1.842   4.326 -0.0698 -0.1842  0.0439
22109W        W38003   5.999   4.423   1.003 -0.0339 -0.0720 -0.2552
22110W        W38004   3.865   6.177  11.556 -0.0880  0.1213  0.2372
22111W        W38005   6.049   5.154   3.732  0.1939 -0.1186  0.1161
22112W        W38006  12.360   8.698  12.060  0.1323 -0.1380 -0.0317
22113W        W38007   8.046  18.231   3.184  0.0436  0.0325  0.1373
22114W        W38008   4.582   0.618   4.999  0.1117  0.1028  0.1607
22115W        W38009  11.106  15.295  13.163  0.0618  0.0626  0.0497
22116W        W38010   3.544   8.682  13.726 -0.0500  0.1773 -0.0196
22117W        W38011  15.766   5.506  10.263  0.0175  0.0687  0.0186
22118W        W38012   9.945  13.379   4.694 -0.1274  0.1141  0.0466
22119W        W38013  17.078   0.312   5.469  0.2131  0.1883 -0.0665
22120W        W38014  15.746  11.488   0.545 -0.1247  0.1518 -0.2460
22121W        W38015   8.973  14.033   0.466 -0.0709  0.2544  0.2030
22122W        W38016  15.077  14.206  14.330 -0.2368  0.0367  0.0048
22123W        W38017  14.701   2.600   0.198  0.1430 -0.2738 -0.1214
22124W        W38018   6.705   9.543  11.803 -0.4059 -0.1348  0.0830
22125W        W38019  12.905   7.916  14.087  0.1376 -0.4045 -0.3038
22126W        W38020  18.849   9.000  11.274 -0.1230  0.1022  0.0667
22127W        W38021  15.868   5.940   1.217  0.1589 -0.2203 -0.3826
22128W        W38022   1.668  13.024   2.615  0.1109 -0.0549 -0.1106
22129W        W38023   8.367  12.454   5.802  0.1973  0.1794 -0.1352
22130W        W38024  16.642  13.096  12.693 -0.0604 -0.1278  0.0116
22131W        W38025  13.231  10.177  12.896  0.0328 -0.3574 -0.1779
22132W        W38026   5.732   0.622  13.236 -0.0304  0.2775  0.0860
22133W        W38027   4.362  12.512  11.515 -0.0036 -0.2798 -0.1283
22134W        W38028   2.537  13.735   0.844 -0.0864 -0.0936 -0.0346
22135W        W38029   1.794  12.860   4.166 -0.2617 -0.0987  0.0979
22136W        W38030   3.200   5.468   4.969  0.2337  0.2382 -0.2690
22137W        W38031   0.462   3.158  13.417 -0.0663  0.1301 -0.0014
22138W        W38032  10.073  13.842   1.786  0.3708 -0.4451 -0.1773
22139W        W38033  14.229   3.387   3.167 -0.2987  0.1933  0.3468
22140W        W38034   6.485  12.608  14.361  0.0827  0.0661  0.0936
22141W        W38035   4.981  10.519  13.870 -0.2111 -0.0357  0.1306
22142W        W38036   3.110   3.457   0.438 -0.2950  0.2219  0.1907
22143W        W38037   9.957  17.046  10.908  0.1439  0.2232 -0.2215
22144W        W38038   9.400  10.844  14.281  0.0884  0.1429 -0.1230
22145W        W38039  15.355   3.199  14.886 -0.1726 -0.1430 -0.0227
22146W        W38040  13.765   0.521  14.716  0.3467  0.2887 -0.2940
22147W        W38041   5.574  18.490  14.692 -0.1488  0.2168 -0.5985
22148W        W38042   0.318  14.510   5.265 -0.0738  0.1266 -0.1082
22149W        W38043  10.063   7.746   1.405 -0.0073  0.1342 -0.0882
22150W        W38044  17.112  10.019  11.200  0.1115  0.4034  0.0621
22151W        W38045  17.103   2.111  14.945 -0.2922  0.1096  0.2232
22152W        W38046   5.921   8.685   1.736 -0.1146 -0.0184 -0.0087
22153W        W38047   6.793  15.620   1.109 -0.1081  0.0536 -0.0061
22154W        W38048   3.706   6.669  13.549 -0.5177 -0.2502  0.2329
22155W        W38049  13.152  18.758   4.857 -0.3145  0.0992  0.0404
22156W        W38050   6.568   1.229  10.935 -0.1238 -0.1606  0.2484
22157W        W38051   4.295  16.363   3.339  0.1799  0.0837  0.1030
22158W        W38052  13.504  15.100   4.511  0.0247  0.0059 -0.0604
22159W        W38053   5.790  17.004  13.385  0.0121  0.0787  0.2721
22160W        W38054  14.473   2.988   5.036 -0.0009 -0.0591  0.1692
22161W        W38055   8.306  17.144   2.587  0.1497  0.1688 -0.0049
22162W        W38056   4.575   6.437  10.564 -0.0155  0.1633 -0.0662
22163W        W38057   0.521  12.798  11.051  0.0736  0.0938 -0.3597
22164W        W38058  12.343  18.137  13.441 -0.0746 -0.0898  0.1225
22165W        W38059   3.597   9.571   0.914  0.0276 -0.1105  0.1353
22166W        W38060   1.672  17.500  11.583 -0.0043  0.0447  0.1781
22167W        W38061  15.371  11.761  14.976 -0.2454 -0.1837  0.0335
22168W        W38062  10.295   7.677  11.201 -0.1663  0.2105  0.2672
22169W        W38063  15.015   3.384  15.247 -0.1690  0.3297  0.0693
22170W        W38064   9.813   3.924  15.329  0.1479 -0.0709 -0.1345
22171W        W38065   9.880   7.532  14.982  0.2570  0.5226  0.2282
22172W        W38066   9.549   6.327  15.258 -0.1089  0.0584  0.1299
22173W        W38067  18.351  18.706   5.922 -0.0550  0.1884 -0.1379
22174W        W38068   2.803  14.199   4.788 -0.0563  0.0464  0.2898
22175W        W38069   8.283   2.935   0.198  0.0717  0.0192 -0.2079
22176W        W38070  11.431   5.591   0.251  0.3384  0.0542  0.0728
22177W        W38071   1.847  11.961   2.572 -0.0500  0.0285  0.1790
22178W        W38072  18.678   8.933   3.534  0.1435 -0.1904  0.2756
22179W        W38073   9.970  15.221  11.695 -0.4032 -0.0796  0.0018
22180W        W38074  11.595   8.415  15.313 -0.1202  0.2986  0.1290
22181W        W38075   6.625  17.180   5.255 -0.0575 -0.0325  0.0621
22182W        W38076  14.205  15.057   4.938  0.1231 -0.0031 -0.0802
22183W        W38077   9.503  16.628   0.186 -0.2499  0.1122  0.0475
22184W        W38078   1.180  15.397  15.388  0.1723 -0.0417 -0.1803
22185W        W38079   3.938   9.412   1.350  0.0740 -0.1629 -0.1404
22186W        W38080  10.693   8.160   4.510  0.1729 -0.1325 -0.2837
22187W        W38081  14.943  10.418   5.488  0.2771  0.0297  0.2103
22188W        W38082  16.207  18.507  11.769  0.1757 -0.1290 -0.4146
22189W        W38083   6.201   4.212   1.461  0.0340  0.0997 -0.1790
22190W        W38084  10.581   7.177  14.243 -0.0364  0.1159 -0.1351
22191W        W38085   1.689   5.763  12.120  0.0743 -0.2669 -0.0922
22192W        W38086  16.826   4.633   3.003 -0.0888  0.1204 -0.1784
22193W        W38087  10.397  12.290   3.552 -0.0118 -0.1402  0.0649
22194W        W38088   0.458   9.382  12.096  0.2402  0.2249  0.1587
22195W        W38089  14.078   0.311  14.310  0.0696 -0.1339 -0.2463
22196W        W38090  12.934  17.834  13.487  0.1160  0.2263  0.2203
22197W        W38091   6.122   8.829   4.961  0.2821 -0.1877 -0.3204
22198W        W38092   4.653   8.225   0.103  0.2574  0.4380 -0.2072
22199W        W38093  10.125   9.629  12.619  0.2734 -0.1000  0.3084
22200W        W38094  17.119  16.121   2.548 -0.0759 -0.0252  0.0215
22201W        W38095   7.019  13.609  13.026 -0.2737  0.2021 -0.0899
22202W        W38096   0.447  18.397   0.229 -0.3366 -0.3222 -0.0578
22203W        W38097  13.406   8.445   1.972 -0.1377  0.4843 -0.0810
22204W        W38098   7.210   8.958   0.915  0.4136 -0.2646 -0.0206
22205W        W38099  12.235   5.613  11.964 -0.0134 -0.0110 -0.0669
22206W        W38100   5.097   8.180  10.955  0.0663  0.0094  0.2220
22207W        W38101   1.503   7.626   1.999 -0.1860  0.0755 -0.1983
22208W        W38102  12.373  17.226   0.833 -0.0477  0.0895  0.0019
22209W        W38103  15.538  13.085  11.817  0.0671 -0.0544 -0.0801
22210W        W38104  10.517   9.592  13.185 -0.2033  0.3502 -0.1529
22211W        W38105   0.482  17.982  14.832  0.0559  0.2093  0.0737
22212W        W38106  16.633  11.282   9.826 -0.0121  0.1074 -0.0431
22213W        W38107  11.624   8.842   0.226 -0.0346 -0.3330  0.0939
22214W        W38108  16.686   6.942   3.577  0.2479  0.1852 -0.2285
22215W        W38109   0.372  16.006   5.180  0.0013 -0.0715 -0.1837
22216W        W38110   5.972   4.575  11.466 -0.0939 -0.0024 -0.3253
22217W        W38111   5.352  14.630   3.052  0.0455 -0.2642 -0.2685
22218W        W38112  14.644  13.039   1.079  0.1741 -0.1272 -0.1062
22219W        W38113  11.410   2.729   1.376  0.1037 -0.1073 -0.3073
22220W        W38114  15.145   5.021   0.694  0.1466  0.0396 -0.0721
22221W        W38115   2.449   5.768   3.446 -0.1692 -0.2902  0.1044
22222W        W38116  12.880  14.253  12.021  0.3227 -0.0827  0.0618
22223W        W38117   8.272   4.410  13.912  0.2220  0.1050 -0.2321
22224W        W38118  13.196   9.658  14.051 -0.2378 -0.0722  0.3061
22225W        W38119  13.810   4.313  11.681  0.1613 -0.1013 -0.0074
22226W        W38120   4.514   5.873  13.447  0.1960 -0.0286  0.0527
22227W        W38121  11.620   4.396   0.610 -0.4504 -0.0266 -0.1266
22228W        W38122   9.222   9.333  13.126 -0.0666 -0.0237  0.3944
22229W        W38123   6.315   9.755   3.124  0.0986 -0.2191 -0.1065
22230W        W38124  13.921   5.897   2.566 -0.0744 -0.0032 -0.1531
22231W        W38125  14.742   2.128  13.802  0.3484  0.1055  0.0744
22232W        W38126  15.537  14.070  13.370  0.0066 -0.1719 -0.0424
22233W        W38127  11.685   7.380   4.829 -0.3236  0.0862  0.1040
22234W        W38128  12.876   7.494   0.620  0.3338 -0.0244 -0.0133
22235W        W38129   2.688  16.848   0.201  0.2055 -0.0768 -0.0417
22236W        W38130  13.617  11.865   0.320 -0.1052 -0.2308  0.0826
22237W        W38131   6.690  11.359   1.060  0.0673 -0.2692 -0.3319
22238W        W38132   2.856  10.293   4.220  0.1144  0.1655  0.0244
22239W        W38133  17.051  18.055   3.535  0.0322  0.1325 -0.0461
22240W        W38134  12.499   0.349  13.287  0.2139  0.1281 -0.1156
22241W        W38135   0.203  14.537  12.557  0.1710  0.0105 -0.0004
22242W        W38136  16.481   5.743   2.810 -0.0833 -0.1073 -0.0956
22243W        W38137  13.312   3.218   0.570  0.2327  0.2218 -0.1567
22244W        W38138   6.955  15.669   4.382 -0.0967  0.1444  0.3502
22245W        W38139  14.686   7.611  12.026  0.1003  0.0845  0.2164
22246W        W38140  17.278  18.266  10.354 -0.1182 -0.0585  0.1221
22247W        W38141   3.161  10.459  15.476  0.0234  0.1589  0.3682
22248W        W38142  12.003  11.820   0.738  0.1083 -0.1473 -0.2172
22249W        W38143  12.968   6.684   2.339  0.0465 -0.0065  0.2250
22250W        W38144   5.575   6.068  11.453  0.0415  0.0114  0.0799
22251W        W38145   3.944  18.560   4.317  0.1486  0.1216 -0.0937
22252W        W38146  10.450  18.583  15.202 -0.1548  0.0962 -0.0135
22253W        W38147  10.232  17.434   4.087  0.0754 -0.2049 -0.0661
22254W        W38148   5.787  10.680  10.619 -0.1388  0.0710 -0.0973
22255W        W38149   3.777  17.062   4.258  0.2489 -0.0427 -0.0157
22256W        W38150   3.005   1.622   3.893  0.1109  0.1381  0.0005
22257W        W38151  14.647   8.951  13.899  0.4785 -0.1042 -0.1370
22258W        W38152  10.065  18.207   0.580  0.1700 -0.2111 -0.0138
22259W        W38153  10.096   6.281  13.974 -0.0160 -0.1467 -0.0522
22260W        W38154   8.439   9.982   2.254  0.1409 -0.1072  0.2080
22261W        W38155  13.479   2.136  13.443  0.0467  0.1762  0.0892
22262W        W38156  16.558   0.104   0.256  0.0042  0.0830  0.1325
22263W        W38157   6.448   7.860   5.130  0.0112  0.0593  0.0151
22264W        W38158   3.809   0.478   1.939 -0.3354 -0.0860 -0.0173
22265W        W38159   1.507  16.423   1.245 -0.1663 -0.2651 -0.3558
22266W        W38160   2.296  18.305   2.263  0.1453  0.1602  0.0759
22267W        W38161   3.596   2.879   0.721  0.1892 -0.0120  0.0766
22268W        W38162   1.020   3.882   4.971  0.1350 -0.0274 -0.2624
22269W        W38163   8.872   5.694  11.257 -0.0155 -0.1496 -0.0570
22270W        W38164   5.374  10.943   0.724  0.1093 -0.0214 -0.3238
22271W        W38165   2.847  11.677  11.001 -0.0051  0.2025  0.0481
22272W        W38166   6.616   4.603   2.322 -0.0909  0.0925  0.3150
22273W        W38167   7.965   8.027   3.696 -0.1264  0.1761  0.3226
22274W        W38168   6.340   8.593   0.056 -0.0506 -0.0426 -0.5197
22275W        W38169  15.532  13.742   3.265 -0.0020 -0.0792  0.2321
22276W        W38170   2.426  18.011   2.690 -0.0179 -0.2398  0.3554
22277W        W38171   9.961   8.209   0.587  0.3506 -0.2570 -0.2051
22278W        W38172   7.282   7.699  13.624  0.2062  0.0079  0.2716
22279W        W38173  16.669  18.134  13.832 -0.1904 -0.3233  0.1019
22280W        W38174  17.607   1.353   2.853  0.1066 -0.1785 -0.3169
22281W        W38175   5.348   8.178   1.153 -0.0533 -0.1429  0.1170
22282W        W38176   0.616   8.416   0.178  0.2056  0.0643 -0.1658
22283W        W38177   7.067  10.740  15.348 -0.1332 -0.0781  0.1020
22284W        W38178  15.000  13.127   0.339  0.0779  0.0054 -0.0709
22285W        W38179   9.814   2.863  13.980 -0.4108 -0.1021  0.2932
22286W        W38180  13.231  12.202  13.894 -0.0435 -0.1119 -0.0142
22287W        W38181   8.831   3.070   3.079 -0.2696 -0.2886 -0.0424
22288W        W38182  12.323  14.707   5.423 -0.0814  0.0434  0.1605
22289W        W38183  14.742   9.342   2.726  0.1780  0.3137 -0.1052
22290W        W38184  13.124  11.453   3.751 -0.1249  0.3605  0.0476
22291W        W38185   7.600  13.046   1.752  0.0721  0.0720  0.4189
22292W        W38186   7.814  15.797  14.225 -0.2725  0.2699 -0.2427
22293W        W38187  12.408  16.878  14.743  0.2416 -0.3918  0.3320
22294W        W38188  13.741   7.843   0.710  0.0240 -0.0024 -0.0207
22295W        W38189  13.885   5.295  14.597  0.1316 -0.0094 -0.0913
22296W        W38190  11.991  17.367  12.163  0.0322 -0.0020 -0.2218
22297W        W38191  13.854  13.907  13.332  0.0075  0.0892  0.3117
22298W        W38192  15.406  17.627   4.474  0.2049 -0.1862 -0.2241
22299W        W38193  15.551  11.007   0.584 -0.1860 -0.0629  0.1237
22300W        W38194  12.161   2.424   5.264 -0.0439  0.1008 -0.0645
22301W        W38195  10.894   6.300   4.920  0.2728  0.0792  0.1269
22302W        W38196  13.521   2.928   1.281 -0.2618  0.0340  0.3635
22303W        W38197   2.456   2.517   5.299  0.0098  0.2272 -0.0545
22304W        W38198   1.974  15.581   0.501 -0.1069  0.1325  0.4485
22305W        W38199  17.230  12.594  14.562  0.0549  0.2009 -0.2221
22306W        W38200   2.840   9.586   9.576  0.1417  0.2049  0.1915
22307W        W38201   6.273   5.042   0.612 -0.2183 -0.4186 -0.0318
22308W        W38202   2.414  10.345  13.708 -0.0641 -0.1832 -0.2996
22309W        W38203  14.849  18.275  11.231 -0.1776 -0.1277 -0.1766
22310W        W38204  12.168   2.727   1.232  0.1267  0.1544  0.2938
22311W        W38205  15.807   4.189   4.178  0.4050 -0.0427  0.1190
22312W        W38206   5.510   4.446   3.401  0.0948  0.2815  0.2990
22313W        W38207   1.251   7.417  12.781 -0.0003  0.1464 -0.1141
22314W        W38208  16.400  18.367   0.208 -0.1311  0.0112 -0.0360
22315W        W38209   0.921   3.242   1.207  0.1945  0.1126 -0.0140
22316W        W38210  14.137   3.164   0.085 -0.0505  0.0792 -0.0232
22317W        W38211  17.065  13.373  13.769  0.1987 -0.0261 -0.0058
22318W        W38212   9.511   2.061  15.203  0.0395 -0.2916 -0.1141
22319W        W38213   8.158  13.287  12.660  0.2892  0.1798 -0.2446
22320W        W38214   5.891  14.686   3.823 -0.3302 -0.1824 -0.1068
22321W        W38215   2.795  18.135   0.918 -0.1653  0.1030  0.2884
22322W        W38216   6.693  18.506   0.748  0.2481  0.1911 -0.1625
22323W        W38217   7.829   2.497   2.805  0.2155  0.0976 -0.0174
22324W        W38218   6.309  18.672  12.144  0.0671 -0.1020  0.2308
22325W        W38219  15.361   5.384  14.332 -0.2971  0.1381  0.1469
22326W        W38220  17.002   2.432   1.938 -0.1480 -0.1961  0.1847
22327W        W38221   9.316   4.397  13.126  0.0437  0.0977 -0.0749
22328W        W38222  12.804  13.652  14.200 -0.0755 -0.0537 -0.0301
22329W        W38223  10.478  14.062  13.733 -0.0957  0.1790  0.1680
22330W        W38224   1.346  18.228  12.730 -0.1447  0.2175  0.0952
22331W        W38225   1.919   7.407  13.497 -0.3945  0.2972  0.3137
22332W        W38226   0.757   1.652   0.459 -0.1464  0.1980  0.0997
22333W        W38227  15.814   8.349   3.364 -0.2580 -0.4527  0.0038
22334W        W38228   3.150  15.646   1.340 -0.1729 -0.0470 -0.1579
22335W        W38229   0.735  11.350  12.837  0.1002 -0.1231 -0.2256
22336W        W38230  14.049   2.196   3.564 -0.1350  0.1628 -0.0734
22337W        W38231   3.326   6.855   2.962 -0.0628  0.2289 -0.2273
22338W        W38232  16.320   8.570  11.734  0.3343  0.0451 -0.1107
22339W        W38233   2.779  10.195  12.083  0.1764 -0.3400  0.1209
22340W        W38234   0.096  14.807  10.351 -0.0547  0.0432  0.0441
22341W        W38235  15.557   7.320  10.942 -0.1914 -0.3143 -0.0293
22342W        W38236   2.785   2.671  11.047 -0.0825 -0.2608 -0.0407
22343W        W38237  13.277   4.200  14.394 -0.0095  0.2343  0.0196
22344W        W38238  11.221   3.429  10.498  0.0375  0.2239 -0.0058
22345W        W38239   7.756   4.224   0.371  0.0871  0.0802  0.1405
22346W        W38240  10.515   4.183   0.622  0.0875 -0.1903  0.0230
22347W        W38241  11.481   7.775  14.356  0.3076 -0.1278  0.0930
22348W        W38242  10.388  11.151  13.733 -0.1279  0.0396  0.4510
22349W        W38243   9.362  10.871   4.819 -0.2144 -0.0206 -0.2597
22350W        W38244  12.285   9.381  10.718 -0.2521 -0.0178  0.2077
22351W        W38245   0.034   0.213   5.094 -0.2007 -0.0464 -0.0277
22352W        W38246   1.101   7.059  15.482 -0.1304  0.0912 -0.3997
22353W        W38247  11.317  14.012  13.150 -0.0325 -0.1438  0.0582
22354W        W38248  16.418   4.922  10.838  0.2909 -0.3478 -0.0586
22355W        W38249   2.134   6.241  13.496 -0.0186  0.5014  0.0192
22356W        W38250  15.278   0.372   0.316  0.2358  0.2032  0.0822
22357W        W38251  18.542   7.066   1.262 -0.1340  0.0664 -0.0903
22358W        W38252   1.103  11.568  13.083 -0.0907 -0.1237 -0.1871
22359W        W38253  12.816  13.496   4.794  0.1400 -0.2157 -0.0033
22360W        W38254  16.699   5.433  11.591 -0.0263  0.0344  0.3754
22361W        W38255   9.662   7.446   3.092 -0.0903 -0.3110  0.1363
22362W        W38256   4.973   8.830   3.784 -0.0230 -0.2726  0.0827
22363W        W38257  16.221  16.821   0.011 -0.2385  0.0157 -0.0842
22364W        W38258  10.380  16.415  10.683  0.0983  0.3556 -0.1725
22365W        W38259   5.169   9.164  13.366 -0.3327 -0.2232 -0.1704
22366W        W38260   0.190   6.382  15.204  0.1844 -0.0087 -0.0196
22367W        W38261  11.184  14.194   2.672  0.0601  0.3240 -0.1342
22368W        W38262   8.427   6.635  15.353  0.1123 -0.1082 -0.0881
22369W        W38263  17.723  13.771   3.568 -0.0880 -0.0020  0.1282
22370W        W38264   0.766  12.703  13.760  0.1728  0.0581  0.2858
22371W        W38265  15.627   3.568   0.411 -0.0440  0.1871 -0.2960
22372W        W38266   0.157   4.465   0.730 -0.4465 -0.0683  0.2412
22373W        W38267  17.830   0.978  14.810 -0.0673  0.1285 -0.1575
22374W        W38268   6.630  12.737   0.671  0.1868  0.0028  0.1044
22375W        W38269  15.964  18.378   0.946  0.2703 -0.2016 -0.1073
22376W        W38270   0.662   4.283   4.182 -0.0000 -0.2123 -0.1042
22377W        W38271   1.712  11.076   0.506  0.0206  0.1983  0.0495
22378W        W38272   9.555  13.758   2.746 -0.1822  0.0365 -0.1996
22379W        W38273  10.493  13.122  10.827  0.0847  0.1715 -0.3708
22380W        W38274  10.311  17.007  14.432 -0.2193  0.2486  0.2313
22381W        W38275   0.974  14.533   1.850  0.2195 -0.1716 -0.0680
22382W        W38276  11.603   0.303   3.949 -0.0856 -0.1365  0.0197
22383W        W38277  12.983   0.251   3.627 -0.0472  0.0205  0.0473
22384W        W38278   4.031  16.069   4.498  0.1711 -0.0197 -0.2438
22385W        W38279   3.322   6.034   3.963  0.0851  0.3261  0.1602
22386W        W38280  13.211  11.295   1.028 -0.1209  0.0686 -0.0751
22387W        W38281  18.818  13.960  12.516 -0.2858  0.1118  0.0352
22388W        W38282   2.845  11.174  13.563  0.3164  0.0699 -0.4966
22389W        W38283  18.107   1.505   5.308  0.1704  0.0253 -0.1397
22390W        W38284  11.424  15.507  10.014 -0.2408  0.0801 -0.2215
22391W        W38285   5.906  14.831   0.416 -0.0042 -0.3108 -0.0594
22392W        W38286   8.480  11.466   4.057 -0.3685  0.0941 -0.0564
22393W        W38287  16.586   9.982   4.154 -0.3033  0.0606  0.0554
22394W        W38288  13.880  10.281   2.806 -0.1282 -0.0169 -0.1162
22395W        W38289  16.000  15.468  11.500  0.1143  0.0043 -0.1281
22396W        W38290  16.040  12.917  14.123 -0.1857 -0.2336  0.2288
22397W        W38291   1.219   1.573  14.071 -0.1112  0.1955  0.1827
22398W        W38292   6.736  17.046  11.401 -0.0379 -0.2541 -0.2923
22399W        W38293   4.967  13.327   4.507 -0.2382 -0.0466  0.1407
22400W        W38294   3.107   2.985   0.116  0.0702  0.0464 -0.0776
22401W        W38295  14.822  10.441   2.625  0.1608  0.0867  0.2448
22402W        W38296  11.311  14.884   3.392  0.0421 -0.0050  0.0690
22403W        W38297  13.693   1.272  13.238  0.0598  0.1583 -0.1509
22404W        W38298  18.628  10.312   3.245  0.0290  0.0913 -0.1941
22405W        W38299  16.316  12.185  12.870  0.1650 -0.0244  0.1919
22406W        W38300  10.806   6.062  12.631  0.1129  0.3994 -0.0775
22407W        W38301  18.044   6.055  12.674 -0.2565 -0.2120 -0.1666
22408W        W38302  16.165   1.709  11.959 -0.0737  0.1892 -0.2141
22409W        W38303   9.655   0.904   2.265 -0.1498  0.2738 -0.0478
22410W        W38304  12.653   5.265  11.174 -0.0097  0.1496 -0.1887
22411W        W38305   5.747  16.668  14.235  0.1729  0.2566 -0.1490
22412W        W38306  15.234   5.045  10.858 -0.1807  0.0813  0.0068
22413W        W38307   0.975   7.623   4.098  0.1270 -0.1319 -0.1210
22414W        W38308  16.356   0.858  11.449  0.4214  0.3273  0.1864
22415W        W38309   8.560  10.393   3.551  0.1277  0.0874 -0.0235
22416W        W38310  13.123  10.500   2.915  0.0455 -0.2911  0.2954
22417W        W38311  18.802  15.288  13.652  0.3135 -0.0066  0.2562
22418W        W38312  14.288  15.820   0.371 -0.2057 -0.0232  0.1173
22419W        W38313  14.480   3.864  11.199 -0.0582 -0.0428 -0.1402
22420W        W38314  16.549   3.071  13.332  0.1020  0.0118 -0.3396
22421W        W38315  16.568   5.493  14.678  0.2388 -0.0197 -0.2302
22422W        W38316   6.362   1.493   1.624  0.0194 -0.0018  0.0567
22423W        W38317  10.795   2.563   5.317 -0.4045  0.0710 -0.0222
22424W        W38318   9.476   0.250   5.162 -0.3332 -0.2640 -0.0080
22425W        W38319  10.276   1.228  14.091 -0.1449  0.0573 -0.0421
22426W        W38320   1.986   3.760   3.295 -0.0067 -0.2213  0.2206
22427W        W38321   5.673  10.177   9.674  0.1521  0.0096  0.1299
22428W        W38322   9.317   5.870  12.155  0.4282 -0.1049 -0.3003
22429W        W38323  12.371   0.824   5.005 -0.1369 -0.0389 -0.0701
22430W        W38324   0.765  15.944  13.334 -0.1354 -0.1166  0.0641
22431W        W38325   4.084  15.341   3.192 -0.1666 -0.0201  0.0787
22432W        W38326   2.867   5.932  14.901  0.2711 -0.0782  0.1715
22433W        W38327   6.643  10.630  13.311 -0.1906 -0.0120  0.1456
22434W        W38328  11.033   4.542  11.633  0.0629  0.0416 -0.0095
22435W        W38329  18.666  10.589  10.639  0.0120 -0.1335 -0.2664
22436W        W38330  16.370   3.395   2.044 -0.6141  0.1875  0.0484
22437W        W38331  10.990  11.264  13.818  0.0434  0.0745 -0.1453
22438W        W38332  18.642   8.580  11.422 -0.4039 -0.0781 -0.0446
22439W        W38333   2.809  13.412   3.134  0.2740  0.2051  0.1355
22440W        W38334  10.994  18.286   4.635 -0.0425 -0.0625 -0.0715
22441W        W38335   3.344   4.058  15.452 -0.0919 -0.1408 -0.2747
22442W        W38336  18.855  17.128  13.901  0.0739  0.0360  0.1641
22443W        W38337  11.537  18.215  11.457 -0.0095  0.3695  0.1067
22444W        W38338  12.978   3.172  12.850  0.0460  0.0487 -0.0845
22445W        W38339   8.750   4.428  12.990 -0.1315 -0.1778 -0.1491
22446W        W38340   8.576   8.171   2.490 -0.0681 -0.4001  0.1697
22447W        W38341   3.292   0.446  13.326 -0.1297  0.0623 -0.0640
22448W        W38342  10.348  18.486  14.212 -0.1044 -0.0008  0.1813
22449W        W38343   8.054  17.411   5.372  0.3270  0.0301 -0.1273
22450W        W38344   1.803   5.003   4.396  0.1157  0.1149  0.1252
22451W        W38345   6.658   1.735  14.932  0.1099 -0.0778 -0.2015
22452W        W38346   0.863   9.175  13.653 -0.3120 -0.2273 -0.5154
22453W        W38347   5.803  18.079   3.773  0.0160 -0.1628 -0.0347
22454W        W38348   3.682   9.306   5.656  0.0569 -0.2030  0.1316
22455W        W38349  14.087  11.697   1.132  0.1318  0.3482 -0.0566
22456W        W38350   5.213  17.183   1.645  0.0613 -0.0948 -0.2497
22457W        W38351  10.997   7.637   4.119  0.0069  0.3738 -0.1448
22458W        W38352  16.915  18.237   2.995  0.0590 -0.0445  0.0442
22459W        W38353  18.013   7.636   3.966 -0.2983  0.1101 -0.0049
22460W        W38354  15.031  12.195   3.249 -0.2437  0.0264  0.1784
22461W        W38355   6.821  16.158   2.958  0.2829  0.3039  0.0372
22462W        W38356  17.131   4.794   4.771  0.0310  0.1832  0.1658
22463W        W38357  11.906   6.587   5.340  0.1100 -0.1460  0.0278
22464W        W38358   2.862   4.070   4.066 -0.3999  0.1816 -0.3508
22465W        W38359  17.332  16.382   5.272  0.2171  0.0328  0.2813
22466W        W38360  12.555   6.609  13.150  0.0991 -0.0509 -0.1177
22467W        W38361  15.562   1.131  11.607  0.0600  0.1836 -0.0269
22468W        W38362  13.652   5.490  10.917 -0.0759  0.2235  0.0375
22469W        W38363   2.869   8.234   2.023 -0.0147  0.3196  0.2979
22470W        W38364   5.755   0.513  11.752 -0.2522 -0.1127  0.3295
22471W        W38365  12.668   2.818  10.382 -0.1857 -0.0931 -0.1150
22472W        W38366  15.896   5.629   3.722 -0.0617  0.2379 -0.3833
22473W        W38367  13.283  12.411   9.478 -0.3303  0.2048 -0.0795
22474W        W38368   7.426  13.456   3.911  0.2766 -0.1176  0.2733
22475W        W38369   9.280  11.641   5.761 -0.0037  0.0886  0.1397
22476W        W38370  14.932   5.880   3.962 -0.0232  0.1138  0.1695
22477W        W38371   8.059  14.052  14.705 -0.0971  0.0227  0.1333
22478W        W38372  18.702   0.112   1.367 -0.1429  0.0369 -0.0017
22479W        W38373   3.149   8.980   1.116  0.0796 -0.3948  0.2497
22480W        W38374   7.928   8.492   3.851 -0.1456  0.2584  0.0041
22481W        W38375  16.611  17.149  10.496  0.0986 -0.0121  0.1055
22482W        W38376   5.559  11.459  12.596  0.1181  0.0118 -0.3337
22483W        W38377   0.436   1.138  11.007  0.1302  0.0868 -0.3512
22484W        W38378  13.586  17.886  14.280 -0.0615 -0.1438 -0.1305
22485W        W38379   4.686  12.137   5.116 -0.0338  0.0782 -0.1356
22486W        W38380   5.880   1.233   2.394  0.0171  0.1557  0.4755
22487W        W38381   7.294   4.820   3.022  0.1069  0.1865 -0.0151
22488W        W38382  10.757  15.151  13.898  0.3049  0.0466 -0.0445
22489W        W38383  17.484  10.143   2.420  0.0831  0.1009  0.3662
22490W        W38384   8.689   8.921   1.351 -0.0060 -0.0886 -0.0534
22491W        W38385   5.108  12.811   4.355 -0.2043 -0.2488 -0.0669
22492W        W38386  12.687  10.783   1.751  0.1871 -0.2418 -0.1572
22493W        W38387  17.201   3.418  11.452 -0.0253  0.0431  0.0006
22494W        W38388  13.465   6.425  14.024 -0.0011  0.1022 -0.1212
22495W        W38389   0.466   6.818   1.690  0.1428 -0.0186  0.1850
22496W        W38390  14.752   3.613   4.531 -0.3463 -0.2834 -0.0259
22497W        W38391  18.232   4.398  11.053  0.0023 -0.1935  0.3511
22498W        W38392  17.299  12.189  11.133 -0.1691  0.0937 -0.0498
22499W        W38393   2.181  14.202  12.195 -0.0969 -0.0128  0.2901
22500W        W38394  18.339   5.167  14.155  0.1597 -0.0088 -0.0011
22501W        W38395  16.893  18.527  11.043 -0.1828  0.1714 -0.1594
22502W        W38396  10.982  15.147   3.163  0.2762  0.4320 -0.2372
22503W        W38397   1.625   9.265   0.131  0.2166 -0.0292  0.2014
22504W        W38398   4.574   1.537  13.252 -0.3422  0.1083 -0.0424
22505W        W38399   6.317   7.769  14.411 -0.1659 -0.2592  0.0204
22506W        W38400  17.589  15.054   1.465 -0.0197  0.0023 -0.0219
22507W        W38401   5.393  16.616   4.108  0.0179  0.0783 -0.1119
22508W        W38402  16.604  17.754   1.646  0.0666  0.4713 -0.1306
22509W        W38403   0.947   1.640  15.404 -0.2638  0.3774 -0.0436
22510W        W38404   1.085   8.843  14.290 -0.0156  0.2877 -0.0872
22511W        W38405   5.635  16.207   4.907 -0.2770 -0.2772 -0.0631
22512W        W38406   8.691   3.507  15.177 -0.3252  0.0100  0.2513
22513W        W38407  17.791   1.119  11.313  0.0609  0.1131 -0.4526
22514W        W38408   5.932   9.678  15.120  0.2810 -0.1105 -0.0036
22515W        W38409  12.188   1.113  12.928 -0.1233  0.3519  0.0039
22516W        W38410   1.226   0.070  13.890 -0.2921  0.1736  0.2255
22517W        W38411  15.049   6.035  11.828  0.0382 -0.2062 -0.1206
22518W        W38412  10.399   6.926  14.662  0.0412  0.0347 -0.2101
22519W        W38413   8.464  15.456  12.859  0.0378  0.1798  0.1513
22520W        W38414   6.274   7.768   2.225  0.1148  0.0035 -0.1145
22521W        W38415  12.293   6.509  15.119  0.1252 -0.2140 -0.0271
22522W        W38416   7.811  12.593   0.241 -0.1574 -0.3105 -0.0014
22523W        W38417   9.262  11.817   4.275 -0.0380  0.2357  0.0085
22524W        W38418  10.222  18.009   2.019  0.0760  0.0089 -0.0505
22525W        W38419   6.469  12.959   3.924  0.0766  0.1284  0.0294
22526W        W38420  12.541   1.029   2.454 -0.0632 -0.0290 -0.3387
22527W        W38421   6.320  18.440   9.873  0.0447  0.2719  0.1226
22528W        W38422  18.863  14.449   1.518  0.0590 -0.1874 -0.0207
22529W        W38423   4.542   2.410   5.696 -0.3822  0.0419  0.1149
22530W        W38424   3.165  11.216   0.040  0.0258 -0.0562 -0.0340
22531W        W38425   9.481  13.469   4.205 -0.1468  0.0837 -0.1444
22532W        W38426  18.114  10.950  11.534  0.1339  0.2896 -0.1790
22533W        W38427   5.591  10.976  12.322  0.0473  0.0745 -0.0403
22534W        W38428  10.317  15.518   0.599 -0.0351 -0.1278  0.3816
22535W        W38429  13.579   1.289  14.687  0.3864 -0.1535 -0.0973
22536W        W38430  12.002   1.698  11.047  0.0473  0.2168 -0.2350
22537W        W38431  18.502   1.298   5.041  0.0159 -0.1181  0.2897
22538W        W38432   3.055   9.477  13.521 -0.2194 -0.0141  0.2267
22539W        W38433   3.862   4.566  14.734 -0.2940  0.0978 -0.3715
22540W        W38434   1.110  12.206  10.765 -0.0146 -0.0742 -0.1078
22541W        W38435  17.456  12.485   5.361 -0.0452 -0.1031 -0.1020
22542W        W38436   1.748  14.802  12.576  0.0598  0.1647  0.0563
22543W        W38437  15.173   8.436   3.198  0.0095 -0.2085 -0.2138
22544W        W38438  12.459  14.205   1.297  0.2010  0.1021  0.0547
22545W        W38439  14.709   4.367  12.689  0.2769 -0.0854  0.4433
22546W        W38440   0.287  16.713  13.254  0.3745 -0.3128 -0.0866
22547W        W38441   2.411   6.741   5.053 -0.0812 -0.1609 -0.0468
22548W        W38442  16.265   0.495   4.999  0.1667  0.0170 -0.1841
22549W        W38443   7.515  16.338  14.093  0.0370 -0.0159 -0.0449
22550W        W38444   7.856   3.157  11.663 -0.2140  0.2101  0.1845
22551W        W38445   5.663  14.957   2.639  0.2264  0.2764  0.2256
22552W        W38446   2.550   8.176   2.797 -0.0237  0.0688 -0.0810
22553W        W38447  14.337   5.856   2.912  0.0173 -0.0293  0.1018
22554W        W38448  13.560  15.694  14.574 -0.4970 -0.0083 -0.2340
22555W        W38449   9.448   1.209   3.783  0.0355 -0.2616  0.3655
22556W        W38450   1.014   1.944   3.060 -0.1654 -0.2625  0.4022
22557W        W38451   2.462   3.333  11.583  0.0379 -0.0638  0.1052
22558W        W38452   8.604  14.051  13.197 -0.0244  0.0589  0.2183
22559W        W38453  14.718  11.638  11.941  0.1383 -0.1226  0.2637
22560W        W38454  16.007  17.237   5.473  0.1621  0.1885  0.3353
22561W        W38455   3.566  13.348   1.411  0.3225 -0.3738 -0.1820
22562W        W38456   4.416  15.957  14.663  0.3792  0.1052  0.1625
22563W        W38457  15.034   6.638   3.176  0.0640 -0.4166  0.1028
22564W        W38458   6.602   2.499  11.345 -0.2899  0.1924 -0.0960
22565W        W38459   1.301  18.143   0.319  0.0893  0.0580 -0.1220
22566W        W38460  16.256  14.990   2.941  0.1603  0.1795  0.2799
22567W        W38461   3.899  11.173  10.896  0.0150  0.2202 -0.1792
22568W        W38462   3.504   1.035   1.699  0.2422  0.0002  0.2743
22569W        W38463   4.440   1.726  12.554 -0.0267  0.1811  0.0477
22570W        W38464   5.969   5.486  14.886 -0.2718  0.0864  0.5770
22571W        W38465   2.885   1.774  13.195 -0.0456 -0.2868  0.1873
22572W        W38466   8.106  16.104   4.074 -0.2329 -0.2149 -0.0731
22573W        W38467  17.173   6.156  13.603  0.0977  0.2368  0.3380
22574W        W38468   7.125   5.281  13.645  0.1628  0.2227  0.0917
22575W        W38469   1.268   2.401   4.714  0.0341 -0.0941  0.1220
22576W        W38470  16.341   4.021   0.846 -0.4323  0.0460 -0.0499
22577W        W38471   1.991  16.832   1.149  0.1429 -0.1245 -0.0002
22578W        W38472   3.488  11.412   1.628  0.3489  0.0607  0.0177
22579W        W38473   5.097   4.166  14.677 -0.1205  0.3054 -0.2244
22580W        W38474  12.098   1.469   0.314 -0.2418 -0.6410 -0.0145
22581W        W38475   1.516   8.750   0.087  0.0846  0.1450  0.5071
22582W        W38476  13.229  16.036   0.473 -0.2415  0.0366 -0.0588
22583W        W38477   6.400  11.613   3.025 -0.4530 -0.3797 -0.0755
22584W        W38478   1.976  10.285  11.600 -0.0567  0.1505  0.2193
22585W        W38479  15.509  17.248   3.481  0.0949 -0.2340 -0.0958
22586W        W38480   4.915   6.764   0.459 -0.2437  0.4677  0.0767
22587W        W38481  11.357  13.590  14.939  0.0272 -0.0669 -0.0812
22588W        W38482   8.611   8.330  14.351  0.1918  0.1253  0.0099
22589W        W38483  14.348   3.612  14.667  0.2205  0.1648  0.2364
22590W        W38484  17.221   0.189   4.462 -0.0783 -0.1307 -0.0396
22591W        W38485  10.252   4.012   0.102  0.0097  0.0190 -0.1186
22592W        W38486   8.722  17.501  10.967 -0.0057  0.1278 -0.1659
22593W        W38487  12.585   7.647  14.949 -0.0029  0.0441  0.0276
22594W        W38488  10.717   0.101  12.805  0.3181 -0.0859  0.0408
22595W        W38489   8.746  14.974  10.948 -0.0504 -0.1116  0.2876
22596W        W38490   4.290   0.097  12.351 -0.2695 -0.4000  0.1724
22597W        W38491   6.506  12.466   2.646 -0.3442 -0.2046  0.2682
22598W        W38492   6.436  10.120   4.126 -0.0006  0.2387  0.1889
22599W        W38493   7.487  18.709  13.046 -0.0946  0.0743 -0.2555
22600W        W38494   6.141  11.953  13.970  0.0000  0.1625 -0.1587
22601W        W38495  16.109  18.626   0.536  0.1287 -0.1060 -0.1037
22602W        W38496   9.494  16.201  11.577  0.0467  0.1534 -0.1962
22603W        W38497   0.022   6.565   4.359 -0.0461  0.1281  0.1507
22604W        W38498  15.814  12.622   4.926  0.0855  0.0594 -0.2230
22605W        W38499   2.827   2.460   2.806 -0.2725  0.0285  0.2139
22606W        W38500   1.100   1.323   0.339 -0.1527  0.2788 -0.4758
22607W        W38501  18.209   9.905  15.044 -0.0832 -0.0304 -0.0800
22608W        W38502   0.541  17.212  12.591  0.4200  0.1511  0.2548
22609W        W38503  14.825  11.481  13.767 -0.0671 -0.1877  0.0444
22610W        W38504   8.412   8.257   3.689  0.2379  0.1744  0.1672
22611W        W38505   9.435  16.873   1.513 -0.2104 -0.3505  0.0209
22612W        W38506   4.658   1.394   3.284 -0.0297  0.1783  0.3838
22613W        W38507  14.784  14.670  11.077  0.1457 -0.2393  0.2486
22614W        W38508  17.087   0.831   3.341  0.2109  0.0043 -0.0928
22615W        W38509  13.806   9.164   0.829 -0.2691  0.2897  0.0047
22616W        W38510   2.402  15.129   3.402  0.0897  0.0130 -0.3148
22617W        W38511  11.927  14.597  15.485 -0.2911 -0.2089 -0.0752
22618W        W38512   7.240   2.827   1.036 -0.2427  0.0190 -0.2384
22619W        W38513   8.640  18.101  12.603 -0.1396 -0.1381  0.0790
22620W        W38514   5.458   3.831  11.644 -0.1347 -0.0313 -0.0404
22621W        W38515  15.902   9.540   1.652  0.1363  0.0049 -0.3060
22622W        W38516  13.415   3.848  10.757 -0.1429 -0.1029 -0.1738
22623W        W38517  16.526   7.518   2.527 -0.1302  0.0963  0.2285
22624W        W38518  15.141  10.132   2.346 -0.0236  0.1394 -0.3181
22625W        W38519  12.119  13.553  10.820  0.1286  0.0899 -0.3028
22626W        W38520  14.706  17.179  12.947  0.0115  0.0252 -0.0962
22627W        W38521  10.783   1.474   4.995 -0.3789 -0.0225  0.2991
22628W        W38522   6.266  17.060   0.557 -0.0190 -0.0255 -0.0717
22629W        W38523   4.618   0.481  12.084  0.1530  0.1485  0.1786
22630W        W38524   3.863  11.026   1.011  0.1787 -0.0708 -0.0829
22631W        W38525   9.758  12.211   0.297  0.2673  0.1308  0.4183
22632W        W38526  10.079   5.418   0.176  0.6593 -0.4072 -0.0549
22633W        W38527   1.429   8.166  10.636  0.5396  0.3202 -0.2616
22634W        W38528   5.908   6.496  13.610  0.2117  0.0718  0.2143
22635W        W38529  18.074  12.591  11.852  0.0527 -0.3631 -0.0681
22636W        W38530  11.037   9.951  11.606 -0.0842 -0.2093 -0.0062
22637W        W38531   4.188   4.976   0.127 -0.1714 -0.1836 -0.0338
22638W        W38532  13.636   7.281   2.850  0.0385  0.0352  0.2256
22639W        W38533  16.989  18.676  13.466 -0.1441 -0.0934 -0.4487
22640W        W38534   8.876  16.363  12.391 -0.0879 -0.0223 -0.0586
22641W        W38535   6.250  13.135   0.976 -0.3227 -0.0557  0.1828
22642W        W38536  16.503   2.007  15.025 -0.0015  0.1127 -0.1361
22643W        W38537   2.016   3.538  11.787  0.0628  0.0440  0.0176
22644W        W38538   6.572  14.799  12.152 -0.2203 -0.1288 -0.1799
22645W        W38539   4.132   7.736   2.687 -0.0076 -0.0306  0.1900
22646W        W38540   6.246   1.652   2.140 -0.1049 -0.0716  0.0379
22647W        W38541  15.766  13.665  13.565 -0.1367  0.1044  0.2270
22648W        W38542   7.067  11.240  11.758  0.1794 -0.1463 -0.0198
22649W        W38543   0.051   7.576   3.310  0.1274  0.1864 -0.0101
22650W        W38544  16.540  10.751   3.202  0.1137  0.1092 -0.2539
22651W        W38545   0.574   4.431   0.248  0.3366  0.0525 -0.1912
22652W        W38546   9.299   6.485   3.445 -0.2016  0.2683 -0.0417
22653W        W38547  13.301   8.428  13.615  0.0747 -0.0807  0.0069
22654W        W38548   0.843   3.563   0.816  0.2352 -0.0945  0.0093
22655W        W38549  13.843  11.480  14.100  0.0084  0.1144 -0.3508
22656W        W38550   0.820   8.560  14.672  0.2948 -0.0715  0.1369
22657W        W38551   4.719  17.787   2.426  0.0052 -0.0075 -0.2901
22658W        W38552  18.751  14.269  13.797 -0.1248  0.2294 -0.3858
22659W        W38553   4.668   9.104   2.056  0.0819  0.1452  0.0209
22660W        W38554   3.257  15.324   2.976 -0.1328 -0.1866  0.0601
22661W        W38555   8.126  13.821   2.166  0.0048 -0.3907 -0.0327
22662W        W38556   9.636   3.650  14.328  0.0941 -0.2662 -0.0512
22663W        W38557   5.007  18.531  12.305  0.2445 -0.4633 -0.1663
22664W        W38558  17.139  13.964  12.964 -0.0531 -0.1006  0.3442
22665W        W38559   8.397  13.399   4.709 -0.0008  0.0243 -0.0146
22666W        W38560   2.232   5.323   3.568 -0.0060 -0.0666  0.0806
22667W        W38561   5.857   5.347  12.528  0.1027  0.0544  0.2087
22668W        W38562   2.648  17.190   1.823 -0.4358 -0.1559 -0.2403
22669W        W38563   3.993   2.437   0.066 -0.0124  0.1085 -0.1014
22670W        W38564  11.531  14.171  14.051 -0.0209  0.3717 -0.3768
22671W        W38565   6.603   0.408   4.542  0.6262  0.0242  0.0847
22672W        W38566   2.144   1.641  13.944 -0.2750 -0.1857 -0.1153
22673W        W38567  18.667  13.065  10.622  0.1024 -0.1331  0.0968
22674W        W38568  17.872  14.041   0.830 -0.4407 -0.1005  0.3192
22675W        W38569   0.796  12.904   1.315  0.3378  0.1751  0.0781
22676W        W38570   4.915  12.907   3.077 -0.0116  0.0595 -0.4017
22677W        W38571   8.405   9.785   3.645  0.0374  0.1488  0.1275
22678W        W38572  16.151   5.851   2.357  0.0556 -0.1194 -0.1103
22679W        W38573  14.547  10.879   4.985  0.0862 -0.1993 -0.0546
22680W        W38574   3.163  15.280   4.671 -0.1573 -0.0055 -0.2593
22681W        W38575  13.897   9.501  14.186 -0.0289 -0.1312  0.1476
22682W        W38576  16.753  15.992  13.352  0.1863 -0.3061 -0.1875
22683W        W38577  18.140  16.995   0.663  0.1246  0.4185 -0.1675
22684W        W38578   4.560  18.601   9.923  0.2078  0.0998 -0.2585
22685W        W38579   1.650   2.435   3.191  0.0149  0.0166 -0.1870
22686W        W38580   5.101   1.129   0.913 -0.0901  0.0446 -0.0093
22687W        W38581   7.838  17.134  13.578  0.4100 -0.0028 -0.0119
22688W        W38582  11.470  10.065   5.201  0.1225  0.2003  0.0353
22689W        W38583   9.838  18.764   2.194 -0.0937 -0.0307 -0.2017
22690W        W38584  17.215   1.766  12.692 -0.0535 -0.2313 -0.2266
22691W        W38585  18.190   5.238   1.829 -0.1735  0.1158  0.0643
22692W        W38586  15.707   4.999   3.791  0.1492 -0.4285 -0.1051
22693W        W38587   5.799  18.586  12.050  0.0927 -0.0642  0.2830
22694W        W38588   7.405  16.510   0.833 -0.0423 -0.1668  0.1056
22695W        W38589  10.680  12.253  10.472 -0.1194  0.0438  0.1744
22696W        W38590   6.176  16.332   4.626 -0.0095  0.0369  0.4064
22697W        W38591   1.440   0.938  14.982 -0.0006  0.0145  0.1323
22698W        W38592  10.956  18.216   2.560  0.1569 -0.1768  0.0311
22699W        W38593   0.788  10.801  12.206  0.1816  0.2700 -0.1060
22700W        W38594  18.785   3.559  14.253 -0.2567  0.1043 -0.1365
22701W        W38595  17.758   6.901   4.375 -0.1263  0.0732  0.0723
22702W        W38596  17.155  13.761  14.070 -0.2701 -0.1489 -0.2200
22703W        W38597   5.045  13.572  11.957  0.2117 -0.2514  0.1614
22704W        W38598  11.260  16.374  14.099 -0.0482  0.3897  0.0730
22705W        W38599   7.349  16.662  11.839 -0.4346  0.0709 -0.3850
22706W        W38600   7.284   8.438  11.734 -0.0331 -0.2199 -0.0065
22707W        W38601  14.689   4.978   4.589 -0.3685 -0.1075  0.0847
22708W        W38602  15.644  14.327   0.899 -0.2258  0.0338  0.2097
22709W        W38603  16.531  15.363   1.682  0.0865 -0.0422  0.0143
22710W        W38604   5.595   1.470  14.271 -0.1388  0.3715  0.0117
22711W        W38605  13.370   5.070  13.757  0.1672  0.2085 -0.1470
22712W        W38606   2.445  14.918   2.391  0.0919 -0.2168  0.4078
22713W        W38607   6.806   6.118   1.896 -0.1105 -0.0353 -0.1490
22714W        W38608  15.221   2.685  14.557  0.1256 -0.2737  0.0478
22715W        W38609   4.492   2.419  10.990 -0.1139 -0.1210  0.1406
22716W        W38610  12.644   7.662   3.900  0.1123  0.0051 -0.5270
22717W        W38611   3.008  16.123   1.221 -0.1705  0.0635 -0.1943
22718W        W38612   9.456   7.012   1.959  0.3987 -0.2364 -0.1136
22719W        W38613  10.726   5.839   4.850 -0.4076  0.1285 -0.1528
22720W        W38614   5.628   8.486   4.488 -0.1444  0.0342 -0.0066
22721W        W38615   0.850   8.776   1.136 -0.0090 -0.1494 -0.1995
22722W        W38616   2.757  16.139  11.249  0.2875 -0.1843  0.0088
22723W        W38617   3.373  11.712  13.489 -0.0920 -0.3532 -0.0276
22724W        W38618  12.540  11.723   1.551 -0.0653  0.3002  0.0402
22725W        W38619  17.458   0.460   3.294  0.2222 -0.0387  0.0481
22726W        W38620  14.634   8.131  12.104  0.1329 -0.2638  0.0269
22727W        W38621   1.835   8.425   1.755  0.1363 -0.0828  0.0351
22728W        W38622  13.357  16.227   3.543  0.1810  0.2265 -0.0705
22729W        W38623   0.382   8.697  14.416  0.3426 -0.1896 -0.3087
22730W        W38624  17.802   6.676  14.409  0.0621 -0.0545 -0.0244
22731W        W38625  16.373  11.614   3.064 -0.2315 -0.1798  0.3902
22732W        W38626  10.098   7.682  12.595  0.0122 -0.2533  0.3279
22733W        W38627   0.731   0.183   4.532  0.1170  0.2456  0.0747
22734W        W38628   7.147   0.651   2.791  0.3858 -0.1780  0.4033
22735W        W38629  15.940  17.476   0.106  0.1035  0.0954  0.0400
22736W        W38630  11.255   1.807   2.849  0.3081  0.0075 -0.1291
22737W        W38631   1.046   1.546   3.415  0.0824  0.4188  0.4990
22738W        W38632   9.157   4.763   1.279  0.3622 -0.2994  0.1384
22739W        W38633   6.127   6.372   0.935 -0.0635 -0.0877 -0.0197
22740W        W38634  12.334   5.287   1.162  0.4640 -0.1961  0.1250
22741W        W38635  14.989  13.166   3.737  0.2862  0.0625  0.1199
22742W        W38636   5.720  11.677   5.055 -0.3748 -0.1273 -0.1790
22743W        W38637   2.191  16.201  12.544  0.3137  0.0683 -0.2778
22744W        W38638   9.220  11.603  11.015  0.0327  0.1172 -0.0591
22745W        W38639   3.413   6.368   1.110  0.3289 -0.0591 -0.0640
22746W        W38640   4.680   2.525  15.223  0.0354 -0.0694 -0.0613
22747W        W38641  11.222  13.401  15.386 -0.1688 -0.1098  0.0606
22748W        W38642  14.346  11.999  12.766  0.0759 -0.2773 -0.2250
22749W        W38643   3.558  18.571   2.487  0.0963 -0.2119 -0.0002
22750W        W38644  15.792   6.687   0.529 -0.0950 -0.2172 -0.0534
22751W        W38645   2.801   7.801  13.252 -0.4262  0.2013  0.0143
22752W        W38646   9.070  17.906  13.331  0.2278 -0.0354  0.0345
22753W        W38647   8.345   5.027   5.102  0.2289  0.2288 -0.1224
22754W        W38648   5.492   4.328  11.509  0.1090 -0.0255 -0.4650
22755W        W38649  12.284  16.941   4.851  0.0351 -0.4076  0.0344
22756W        W38650   4.428   3.248  10.795 -0.1215 -0.0208 -0.2692
22757W        W38651   0.528  16.357   3.676 -0.0710 -0.2835  0.3048
22758W        W38652  18.177   5.635   1.460  0.2484  0.0672  0.0413
22759W        W38653   0.706   4.564  10.506  0.1380  0.2251 -0.2538
22760W        W38654  13.555   1.803   1.887 -0.0749  0.1224  0.0828
22761W        W38655   5.300  11.882  11.254 -0.1639 -0.1433 -0.2027
22762W        W38656   6.812  17.336  14.049  0.3796  0.0407  0.0502
22763W        W38657   1.113   5.500  11.849 -0.2396 -0.1817 -0.1711
22764W        W38658   9.064  10.989   3.772 -0.1048  0.1367  0.0759
22765W        W38659   2.765  10.043  11.535  0.0209 -0.1775 -0.1962
22766W        W38660  17.854   9.089   1.792  0.1739 -0.1427 -0.0249
22767W        W38661  10.102  18.208   4.593  0.0828  0.2505 -0.1591
22768W        W38662   3.438  16.008   0.894  0.2209 -0.3605 -0.1822
22769W        W38663  15.599  10.364  12.715 -0.1446 -0.2824  0.1048
22770W        W38664   9.149   6.156   1.531 -0.0121  0.2803  0.0868
22771W        W38665   8.386   1.818  13.950 -0.1151 -0.2404 -0.1378
22772W        W38666  16.881  13.318   2.600 -0.0697  0.2234 -0.1887
22773W        W38667  16.441  16.870   1.845 -0.0812 -0.1227  0.0567
22774W        W38668   4.996  16.834  15.471 -0.0551  0.1014 -0.0808
22775W        W38669  13.048   7.065  10.278 -0.1633  0.1551 -0.0434
22776W        W38670  13.164  14.293   0.819 -0.1192  0.3079  0.0395
22777W        W38671   6.596   3.763  10.656  0.3275  0.3569  0.0783
22778W        W38672  13.156   1.119   1.610 -0.0839  0.1796 -0.1655
22779W        W38673   8.469   7.600   0.341 -0.0544  0.1792  0.1336
22780W        W38674   8.258  10.650  14.349 -0.2420  0.1186 -0.1726
22781W        W38675  11.784   3.559  15.389  0.3297  0.1493  0.1296
22782W        W38676  17.251  15.649  10.739 -0.3851 -0.0562 -0.0728
22783W        W38677   7.920  18.547  12.922 -0.2793  0.2726 -0.4656
22784W        W38678   0.063  16.779  14.857  0.0229  0.0743  0.0664
22785W        W38679  18.612  17.816   2.489  0.2398 -0.1281  0.0355
22786W        W38680   0.661  11.768   1.839  0.1624 -0.1666  0.0909
22787W        W38681   4.572  15.018   3.909 -0.0705 -0.2300  0.2320
22788W        W38682   0.724   7.012  14.048 -0.1050  0.0266  0.0925
22789W        W38683  18.206   1.047   2.201  0.1253 -0.0992 -0.1274
22790W        W38684  14.559   3.704  13.696  0.3095 -0.1346 -0.1396
22791W        W38685  15.916   2.031  12.473  0.0679 -0.0101  0.3439
22792W        W38686  17.079  16.019   1.163 -0.1401  0.0868  0.1809
22793W        W38687  13.522   2.814   3.167 -0.1718  0.0053 -0.3114
22794W        W38688   7.167   5.160   1.650  0.1313  0.2068 -0.1361
22795W        W38689  11.538  16.781   0.889  0.0641 -0.0339  0.1027
22796W        W38690   8.187   2.848  11.816 -0.2668 -0.1580 -0.1271
22797W        W38691  17.054   5.478  15.443 -0.2108 -0.2250 -0.1218
22798W        W38692  16.923  12.575   4.198  0.2566  0.1416  0.0522
22799W        W38693   9.002   2.553   0.823 -0.1866 -0.2440  0.1082
22800W        W38694   4.725  16.649  12.643  0.0676  0.3069  0.1006
22801W        W38695   2.898  15.255   1.580  0.2436 -0.0166 -0.3184
22802W        W38696   4.378  11.650   4.980 -0.0071 -0.1033  0.0935
22803W        W38697   7.290   5.358  15.052 -0.1295 -0.0485  0.0516
22804W        W38698   3.437   2.944  14.018 -0.5304  0.1089  0.2413
22805W        W38699  16.981   3.181  13.061 -0.3638  0.3319 -0.1512
22806W        W38700   2.495   0.441   1.334 -0.0942  0.2404  0.1968
22807W        W38701  10.042  13.476   0.220  0.0995  0.0613  0.2160
22808W        W38702  16.557  17.212   1.408 -0.1568 -0.3526 -0.1278
22809W        W38703  17.117  16.709  11.866 -0.2593  0.0154  0.2192
22810W        W38704  10.650   7.341   3.924  0.0726 -0.1442 -0.3666
22811W        W38705   6.499   7.961  10.782 -0.1363  0.0757  0.2036
22812W        W38706   3.787  17.739   2.641 -0.1073  0.2905  0.2575
22813W        W38707  15.200   2.393   3.523  0.1135 -0.0572 -0.0093
22814W        W38708   5.768   0.124   4.212 -0.2577  0.1893  0.0965
22815W        W38709  13.147  18.601   0.196  0.0349 -0.1041  0.2762
22816W        W38710  10.474  14.637   1.265  0.0158  0.1009  0.1189
22817W        W38711   5.017   9.607  11.490  0.1607  0.2491  0.2963
22818W        W38712  10.158  17.693  11.797 -0.3117  0.1817  0.0596
22819W        W38713  10.270   7.466  14.655  0.2188  0.0072  0.0546
22820W        W38714   5.886  13.425   1.378 -0.1603  0.1282  0.0022
22821W        W38715   0.018  10.896  15.158 -0.1047 -0.0256  0.0729
22822W        W38716  14.711   3.897   4.964  0.1951  0.0067 -0.0136
22823W        W38717   3.664  11.834  10.619 -0.0371  0.2103  0.0219
22824W        W38718   6.160  16.878   4.516  0.2179  0.3014 -0.5218
22825W        W38719  13.998  15.718   4.028  0.0473  0.2457 -0.0823
22826W        W38720   4.415   6.774  11.925  0.1412  0.1852 -0.2184
22827W        W38721   9.399   1.544   2.101  0.0464 -0.2505  0.2540
22828W        W38722   7.844   9.109   2.806  0.0564  0.3102 -0.3944
22829W        W38723  11.881  17.601   5.515 -0.0588  0.0508 -0.4398
22830W        W38724   0.871  12.225  13.713  0.2262 -0.4976  0.1027
22831W        W38725   4.215   1.593   2.446 -0.1991 -0.0264  0.1926
22832W        W38726  14.696  16.690  13.224 -0.1651  0.2279 -0.1653
22833W        W38727   5.321  16.855  11.326 -0.1750  0.1432 -0.0168
22834W        W38728   3.245   9.848  14.383  0.3635  0.0609  0.3063
22835W        W38729  14.860   5.874  10.041  0.2800 -0.3726  0.4044
22836W        W38730   4.000  17.484   3.722  0.0589 -0.0937  0.0412
22837W        W38731  15.775   9.145  12.155  0.0588 -0.0086 -0.2155
22838W        W38732  16.524   2.304  14.565 -0.2141  0.2266 -0.1507
22839W        W38733   5.234   6.812  10.694 -0.0182 -0.2105 -0.0024
22840W        W38734  13.789  15.141   1.873 -0.2677 -0.0053 -0.1414
22841W        W38735  16.760  15.188   4.369 -0.0479  0.1023  0.1570
22842W        W38736   0.169   4.691  11.491  0.3768 -0.0423  0.2497
22843W        W38737  18.734   4.731  10.068  0.0303 -0.1957 -0.0538
22844W        W38738  15.981  16.985   5.920  0.0069 -0.0712 -0.0676
22845W        W38739  17.823  13.806   1.257  0.3396  0.2239  0.1664
22846W        W38740   4.866   2.087  15.287  0.0486  0.0176  0.0389
22847W        W38741  12.436  11.997   3.856  0.0235  0.1166 -0.0191
22848W        W38742   0.190   4.150  11.636  0.4723  0.0473  0.2195
22849W        W38743  14.720   8.344  14.319  0.2343 -0.0449 -0.0674
22850W        W38744   9.606  17.884  15.019 -0.0167  0.3454 -0.1362
22851W        W38745  17.694  16.004   2.497  0.0484 -0.1880 -0.1311
22852W        W38746   6.338   3.488   4.274 -0.0904 -0.1259  0.2441
22853W        W38747   5.569   9.260  11.349 -0.0219  0.0228 -0.0085
22854W        W38748  15.765  10.999   0.092 -0.1409  0.2259 -0.0449
22855W        W38749  11.361   4.358   1.798 -0.4229  0.3771  0.1723
22856W        W38750   2.594   7.409   9.873 -0.1608  0.0901 -0.1833
22857W        W38751  10.972   3.504  14.844 -0.1690 -0.2027 -0.1264
22858W        W38752   7.658  15.041   3.041  0.2456  0.2400 -0.3633
22859W        W38753  12.424  10.499   4.274 -0.1106 -0.3871 -0.0256
22860W        W38754   0.379  10.809   1.978 -0.0177 -0.0550  0.0542
22861W        W38755  13.607   2.922  12.641 -0.1548 -0.3337  0.0364
22862W        W38756   8.178   4.746  12.671  0.1036 -0.2100 -0.1519
22863W        W38757   1.470   8.255   2.284 -0.1249  0.0329  0.0378
22864W        W38758   4.289  14.437  14.276 -0.3941 -0.0658 -0.0667
22865W        W38759   5.543   7.575   3.647  0.0263  0.4035 -0.2651
22866W        W38760   9.274   6.288  12.560  0.1452 -0.1216  0.2771
22867W        W38761   4.274   2.601  12.879 -0.3606  0.3525 -0.0229
22868W        W38762  12.094   1.858  12.286 -0.1876 -0.3104  0.1569
22869W        W38763   0.798   6.074  13.524  0.3353 -0.1203 -0.2230
22870W        W38764   3.491   0.446  10.748 -0.0515  0.2559 -0.0307
22871W        W38765  10.678  16.247   2.851  0.0327 -0.2324  0.2486
22872W        W38766  17.906   0.146   4.263 -0.2002  0.2001 -0.0630
22873W        W38767   6.757   0.809   5.523 -0.3546 -0.0473  0.0276
22874W        W38768  18.862   2.037   4.728  0.1773  0.0493  0.2698
22875W        W38769   9.834   2.767  10.633 -0.3063 -0.0753 -0.0673
22876W        W38770   6.034   1.435  12.185  0.0046 -0.2018 -0.0548
22877W        W38771   2.230   8.672   1.497  0.1862 -0.1156 -0.0764
22878W        W38772  14.082  11.767  11.360  0.0096  0.1846  0.0318
22879W        W38773   2.079  17.172   2.075 -0.2310  0.2364 -0.1461
22880W        W38774   4.137  10.578  10.373  0.2722  0.1960 -0.2617
22881W        W38775   5.131  10.095  14.378  0.0277 -0.1289  0.2929
22882W        W38776   2.927   7.635  14.625  0.1924  0.2502  0.1684
22883W        W38777   1.131  11.999   3.731  0.0249 -0.0912 -0.0317
22884W        W38778  15.047  10.933  12.440  0.0650 -0.0875 -0.0624
22885W        W38779   5.496  10.657  10.179 -0.1246 -0.4316  0.2080
22886W        W38780   0.944   2.632  12.177 -0.1513 -0.2023  0.1873
22887W        W38781   9.646   9.207  11.189  0.3406 -0.0697  0.0546
22888W        W38782   5.729  14.726  11.917 -0.4967  0.0180 -0.2432
22889W        W38783  10.288  16.189  14.225  0.2489  0.0661  0.3534
22890W        W38784   9.324   6.380  11.954  0.0531  0.1100  0.2162
22891W        W38785   8.932   0.974  10.357  0.1654  0.2779 -0.3929
22892W        W38786   4.033  14.356   1.550 -0.0662  0.3301  0.0448
22893W        W38787   8.082   3.046  14.680 -0.0589  0.1535 -0.0487
22894W        W38788   2.568   9.285  12.686  0.3272  0.0172 -0.0128
22895W        W38789  15.831   5.478   1.613 -0.3499  0.1041  0.0168
22896W        W38790   3.636  13.949  11.958  0.1571 -0.0248 -0.3584
22897W        W38791   2.158  11.528   4.214  0.1499  0.0729 -0.2284
22898W        W38792   4.371   4.917   1.805  0.0521 -0.0865 -0.0815
22899W        W38793   1.544   3.274   4.878 -0.3690  0.2189 -0.0965
22900W        W38794  16.508  15.728   5.539 -0.2114 -0.0886 -0.0056
22901W        W38795  13.229  15.754   3.305  0.1250  0.1075  0.2042
22902W        W38796  16.464   7.220  12.524 -0.2241 -0.1356 -0.4449
22903W        W38797   9.446   8.802  11.868 -0.1803 -0.0029  0.2888
22904W        W38798  16.602   3.965  12.955 -0.0743  0.1813  0.1115
22905W        W38799   3.583  17.287   2.665 -0.0726  0.0066 -0.0069
22906W        W38800  13.307  17.001   2.381  0.1667  0.0447 -0.3502
22907W        W38801   5.491   3.464   4.025  0.2248  0.0476  0.0620
22908W        W38802  17.380   3.775   2.045  0.1980  0.0406 -0.0520
22909W        W38803  12.416  18.184   0.707 -0.1370  0.0811  0.1865
22910W        W38804   2.651   6.318   2.486  0.0114  0.1319  0.2500
22911W        W38805   6.806   1.201  15.171 -0.1100  0.0485  0.1035
22912W        W38806   7.263  16.496  12.254  0.2854  0.1686 -0.1448
22913W        W38807   6.454   1.108  13.309  0.1184 -0.1497  0.0774
22914W        W38808   5.466  18.557  12.406 -0.0478 -0.1825 -0.1164
22915W        W38809  11.849  11.882  11.837  0.0824 -0.2173  0.1978
22916W        W38810  10.166   2.650  13.616  0.1369  0.0019 -0.2413
22917W        W38811   8.854   1.601  13.098  0.0310  0.0054  0.0571
22918W        W38812  18.068   1.932  10.665  0.2297  0.0088  0.3050
22919W        W38813   0.521   6.909   2.207 -0.1739 -0.3233  0.2290
22920W        W38814   2.149  16.222  15.437  0.1377 -0.0592 -0.1948
22921W        W38815  12.821  11.367  12.637  0.1062  0.0248  0.2893
22922W        W38816  10.814  16.522  10.885 -0.2723 -0.1619 -0.0728
22923W        W38817  13.543  14.507   2.569 -0.1669 -0.0971 -0.4249
22924W        W38818   7.362  11.706  12.417 -0.2774 -0.0838 -0.1267
22925W        W38819   2.495  16.621   1.175  0.2187  0.1337 -0.2110
22926W        W38820  17.702   7.697   0.407 -0.0710 -0.1860 -0.0602
22927W        W38821  16.801  13.167  10.362  0.0118  0.1213 -0.0567
22928W        W38822  16.931   1.575   1.651 -0.1613  0.0811 -0.3759
22929W        W38823  15.895   4.244   5.175  0.2360 -0.1993 -0.1765
22930W        W38824   2.104  12.092  12.648  0.2038 -0.3743  0.1863
22931W        W38825   6.317  13.518   1.660 -0.3526  0.4294  0.1453
22932W        W38826   1.479   3.126  10.533 -0.0543  0.0094 -0.0946
22933W        W38827   1.645   9.479   1.620  0.2440 -0.3815  0.0068
22934W        W38828  17.022   8.387   3.272 -0.1498 -0.5316  0.1590
22935W        W38829   0.765   1.604   4.736 -0.1170 -0.1986  0.1943
22936W        W38830   0.164   1.012  13.264 -0.0403 -0.1790  0.0010
22937W        W38831  17.817  17.318   3.050 -0.1873 -0.0662  0.1989
22938W        W38832  18.484   2.812   3.125  0.0183  0.4318 -0.0354
22939W        W38833   1.269   5.555  10.986 -0.0511  0.2556 -0.2536
22940W        W38834   4.367  13.587  10.837  0.0521  0.2809 -0.3900
22941W        W38835  17.771   3.537  12.656 -0.0143  0.0393  0.1421
22942W        W38836   2.638  10.465  14.191 -0.0688  0.0880 -0.0121
22943W        W38837   8.729   3.083  15.467 -0.0848  0.1362  0.3494
22944W        W38838   8.329  15.585   1.441 -0.0890  0.1160  0.3772
22945W        W38839  17.974  17.349  11.618  0.1880  0.3572  0.0998
22946W        W38840   5.184   6.731   3.325  0.0108 -0.1007 -0.1578
22947W        W38841  11.840  15.924   0.510 -0.3215  0.3012 -0.0271
22948W        W38842   3.356   3.153   4.948 -0.2237 -0.0652 -0.1461
22949W        W38843   8.033  15.810   4.844 -0.1716  0.0225 -0.4017
22950W        W38844   8.358   2.951   3.118 -0.1170  0.0625  0.0085
22951W        W38845   1.806  18.295   0.953  0.3446 -0.3919  0.0935
22952W        W38846  11.496  15.832   3.197  0.1211  0.1535 -0.1005
22953W        W38847  11.161   7.286  11.274 -0.0809  0.1847 -0.1421
22954W        W38848   1.331   0.898   2.068  0.0158 -0.0424 -0.1629
22955W        W38849  11.409  10.324  15.010 -0.1732  0.1151  0.1007
22956W        W38850  16.754  14.961   5.422 -0.0488 -0.1095 -0.1733
22957W        W38851  16.931   8.295  13.651  0.4267  0.0104  0.2090
22958W        W38852  17.897   1.415   1.620 -0.0148  0.2631 -0.3088
22959W        W38853  16.048  13.131  12.851  0.1239 -0.3446  0.0417
22960W        W38854  16.897  16.834   2.205  0.3232  0.0446  0.3160
22961W        W38855  14.189   1.905  15.321  0.3620 -0.0372  0.0280
22962W        W38856   5.044  15.039   2.138  0.1936  0.0977  0.2980
22963W        W38857  13.998  14.784   2.610  0.0313 -0.0280 -0.3072
22964W        W38858   4.907   3.366   0.281 -0.2565 -0.1869 -0.0666
22965W        W38859  17.434  17.805   1.376  0.0688 -0.0849  0.1229
22966W        W38860  17.617  12.087   5.043  0.2234 -0.0603 -0.2251
22967W        W38861  13.299  12.622   1.594  0.0989  0.2634  0.1926
22968W        W38862   5.814  12.208  14.745 -0.1442  0.3170 -0.1873
22969W        W38863  14.528   5.879  12.536  0.1156 -0.1516 -0.0456
22970W        W38864  16.251   6.024   0.890  0.2385  0.3038 -0.2659
22971W        W38865  10.090   0.148   0.040  0.0516  0.2305  0.1907
22972W        W38866   8.563   7.462  13.837 -0.1399 -0.0266  0.2792
22973W        W38867   9.063  14.321  14.603  0.5103  0.0949 -0.1123
22974W        W38868  13.701   6.336  13.537 -0.1201 -0.0055 -0.1415
22975W        W38869   2.608   5.568  11.191  0.6276  0.2634  0.2446
22976W        W38870   4.635  14.799   1.921 -0.0316 -0.1095 -0.1011
22977W        W38871   8.649   6.332  14.089  0.0125 -0.0278  0.2671
22978W        W38872  13.505   6.793   1.545 -0.0714 -0.0886 -0.0261
22979W        W38873   6.563  10.400  14.354  0.0999 -0.0855 -0.0620
22980W        W38874  14.554  11.005   0.509 -0.1204 -0.2883  0.0331
22981W        W38875  12.403   5.476   3.567 -0.1829 -0.1074 -0.0362
22982W        W38876  14.474   1.896   3.901  0.0154  0.1554  0.4316
22983W        W38877   8.227  16.082   2.978 -0.0807  0.2579 -0.1025
22984W        W38878  11.043  14.685   5.601  0.1661 -0.2147  0.4052
22985W        W38879   6.850  15.742  12.040 -0.2523  0.2709  0.2520
22986W        W38880   1.353  15.897   3.993  0.1680  0.2417  0.0542
22987W        W38881  15.832   5.881   4.167 -0.0133 -0.1393 -0.0823
22988W        W38882  17.518   0.969  15.343  0.0533  0.2186  0.0681
22989W        W38883   7.405   7.367  12.525  0.0867  0.0709 -0.2958
22990W        W38884  18.524   7.761  14.218 -0.0148 -0.0829 -0.1368
22991W        W38885  16.460   5.522   2.045 -0.2650 -0.1649 -0.1182
22992W        W38886  17.077  10.130   9.671 -0.2348 -0.2171  0.1119
22993W        W38887  18.498  15.128   2.673 -0.1259 -0.0667  0.3772
22994W        W38888   9.054  14.414   4.523 -0.0252  0.2070 -0.3029
22995W        W38889   0.586   1.730  13.057 -0.2528  0.0747 -0.3883
22996W        W38890   6.919  13.824  12.063  0.2055 -0.2649  0.2634
22997W        W38891  12.542   5.502  12.907  0.1188  0.0124 -0.1878
22998W        W38892  11.399  13.894  11.872 -0.0174 -0.1814  0.0087
22999W        W38893   6.715   7.870   3.048  0.3831 -0.1127 -0.0212
23000W        W38894   6.461  10.841  11.140  0.3301  0.2917 -0.0543
23001W        W38895  12.833   4.838  13.769 -0.0555  0.1646 -0.0370
23002W        W38896  18.226  18.007  14.498  0.0443 -0.0396 -0.0573
23003W        W38897   1.223   9.202   5.441  0.0429  0.2432  0.0771
23004W        W38898  11.415   0.106   2.611  0.1178 -0.0776 -0.1864
23005W        W38899   9.557  13.843  11.705  0.1237  0.1856 -0.1226
23006W        W38900   9.183  10.936   2.932 -0.1048 -0.1493  0.3155
23007W        W38901   6.782  10.000   2.941  0.2320  0.0118 -0.1692
23008W        W38902   3.961   0.023   2.228  0.0197  0.0910 -0.2422
23009W        W38903   4.381   1.690   0.822  0.0661 -0.2258  0.2662
23010W        W38904  14.302   2.167   0.237 -0.1168  0.3013 -0.4393
23011W        W38905  13.104   1.371  15.448  0.1457  0.0185 -0.0056
23012W        W38906   3.214   7.897  12.058  0.3678 -0.0830  0.1086
23013W        W38907  15.146   9.863  13.001  0.0678  0.0215 -0.1006
23014W        W38908   1.418   4.647  14.363  0.0845 -0.2931  0.1144
23015W        W38909  13.473   7.343   1.471  0.3407  0.0320  0.1105
23016W        W38910  12.914   6.682  10.512 -0.2887  0.0679 -0.0192
23017W        W38911  15.758   1.688   3.107  0.2105  0.3588 -0.0451
23018W        W38912   5.897   3.122   3.376  0.3250 -0.0959 -0.2977
23019W        W38913  14.128  10.189   2.109 -0.0986 -0.0682 -0.2796
23020W        W38914  12.847   9.185  13.012  0.3288  0.0642  0.1899
23021W        W38915  12.252  15.538   4.877  0.0130 -0.2488 -0.4769
23022W        W38916   1.584  10.472   3.308  0.2236  0.2381  0.5492
23023W        W38917   5.563   7.012  15.485  0.1297  0.1769  0.0389
23024W        W38918   0.338   2.394  15.072 -0.1581  0.0503 -0.2440
23025W        W38919  14.294   5.207   4.956 -0.2557  0.0532  0.0681
23026W        W38920  13.278  13.879   4.854  0.1553  0.1296 -0.1109
23027W        W38921  11.063   2.691  11.316  0.1983 -0.2313 -0.2719
23028W        W38922   8.786  10.812   2.594 -0.2263 -0.1738 -0.0286
23029W        W38923   3.024  12.524  15.435 -0.1384 -0.0800 -0.1464
23030W        W38924   2.568  12.783  10.908 -0.1324 -0.1303  0.3254
23031W        W38925   1.115   6.360   4.820  0.1176  0.1443 -0.0451
23032W        W38926  17.675   9.075  14.030  0.0740  0.0659  0.2277
23033W        W38927   4.703  16.499  11.325 -0.1497 -0.0190  0.0219
23034W        W38928  11.585  13.826   2.816 -0.0194 -0.2632  0.2273
23035W        W38929   8.570   1.230  12.860 -0.0244 -0.1905  0.1597
23036W        W38930   7.017   7.612  12.958 -0.2298 -0.0721 -0.2442
23037W        W38931   9.659   3.330  12.829  0.1491  0.0862 -0.2373
23038W        W38932   6.908   0.567   1.785  0.1543  0.2380  0.1249
23039W        W38933  10.055   7.992  13.083  0.1677 -0.0515  0.2672
23040W        W38934   3.009  10.638   5.639 -0.2301  0.0816 -0.3825
23041W        W38935   4.399   5.117  13.462 -0.0829 -0.2836 -0.1764
23042W        W38936  11.624  11.275  14.901  0.0793 -0.2049 -0.3432
23043W        W38937  18.851  12.017   5.092  0.2070  0.2269 -0.0446
23044W        W38938  12.798   5.151   4.611 -0.2484 -0.0645  0.1411
23045W        W38939  17.097   8.298   5.115 -0.2611  0.1494 -0.0004
23046W        W38940   2.743  18.849  11.061 -0.0703 -0.0338  0.0650
23047W        W38941   8.452   1.602   3.038  0.1250 -0.1176 -0.1243
23048W        W38942  12.326   8.452  11.051 -0.0617 -0.2075 -0.1357
23049W        W38943   8.036   9.542  13.543  0.2508 -0.1214  0.2372
23050W        W38944   0.570   5.865   4.373 -0.1262  0.1113 -0.1025
23051W        W38945   8.508  17.232  12.451  0.0347  0.0397 -0.1408
23052W        W38946   5.990  18.816   1.339  0.0142  0.0967 -0.0172
23053W        W38947   1.574   4.009  14.231  0.0264  0.3736 -0.2578
23054W        W38948  15.870  17.106   3.954 -0.2008  0.0307  0.3232
23055W        W38949   7.747   6.210   0.187 -0.1127  0.0131 -0.1545
23056W        W38950   7.487   5.354  13.236 -0.1911  0.2415  0.1467
23057W        W38951  17.429   3.561   1.564 -0.0694  0.0289  0.0586
23058W        W38952   5.699   0.477   0.166  0.0567  0.4280  0.3153
23059W        W38953   0.668  14.772  12.390 -0.0168  0.5351 -0.2228
23060W        W38954  14.781  10.903  15.468 -0.2060  0.2209  0.2935
23061W        W38955   2.803  10.967  14.316  0.0419 -0.2277  0.1413
23062W        W38956  13.504  10.394   1.118 -0.0872 -0.1710  0.1035
23063W        W38957   8.244   2.285   1.515 -0.1905  0.0285  0.2155
23064W        W38958  18.313  14.655   2.446  0.0625  0.0392 -0.0564
23065W        W38959   9.946  15.756  13.944  0.2520 -0.2233  0.0972
23066W        W38960  13.710  15.880   0.712 -0.1760  0.3127  0.0711
23067W        W38961  10.376  11.869  10.334 -0.0106 -0.1710  0.0536
23068W        W38962  16.329   7.836  14.149 -0.0607 -0.1211  0.0908
23069W        W38963  12.768  15.643   5.868 -0.0304 -0.0612  0.3197
23070W        W38964  12.160  17.213  13.674 -0.1689 -0.0129  0.1179
23071W        W38965   2.942  16.595   0.980  0.2155  0.0754 -0.1901
23072W        W38966   4.681   1.358   0.639  0.3344  0.0613 -0.2649
23073W        W38967   8.722   5.327   2.646 -0.0386 -0.1028 -0.0710
23074W        W38968   8.605   8.174  13.329  0.4794  0.1340  0.1047
23075W        W38969  16.613   2.342   3.520 -0.0956  0.0436 -0.1653
23076W        W38970   0.634   3.560   4.924  0.2858 -0.0949 -0.0122
23077W        W38971   6.712  18.318   1.527  0.0954 -0.0815  0.1409
23078W        W38972   4.342  15.658   2.153  0.1022  0.0495 -0.0014
23079W        W38973  13.010  13.935  15.314  0.0522 -0.2254 -0.0533
23080W        W38974   4.323  11.210   1.059 -0.0254  0.2539  0.1696
23081W        W38975   6.831   4.422   3.755 -0.0330  0.0281 -0.0328
23082W        W38976   3.331   3.358   0.838 -0.0962 -0.2116 -0.0517
23083W        W38977   1.420   4.711   2.908  0.0318  0.1306 -0.0046
23084W        W38978  16.703  18.644   3.935 -0.2360  0.0699 -0.0032
23085W        W38979  13.706   1.327   1.982  0.0254 -0.1429  0.2632
23086W        W38980  16.369   5.270   2.494  0.2294 -0.4049 -0.1089
23087W        W38981   5.673   3.745   0.685 -0.1756 -0.1546 -0.1663
23088W        W38982   7.926  11.498   5.791 -0.0014  0.2731  0.0889
23089W        W38983  10.312  11.115  14.617  0.3647  0.1912  0.0128
23090W        W38984   0.361   3.726  13.032  0.1534 -0.3457 -0.0402
23091W        W38985   9.371  14.064   6.305  0.3520 -0.0924  0.0401
23092W        W38986   3.935  13.434  11.790  0.1790 -0.2428  0.0992
23093W        W38987  13.696  16.216   4.097  0.0944  0.0106 -0.3481
23094W        W38988  16.920  13.554  11.940  0.0794 -0.0588 -0.1045
23095W        W38989  17.770  12.288   0.124 -0.0146 -0.1521 -0.5016
23096W        W38990   3.512  18.338  14.044 -0.0519  0.0334  0.1136
23097W        W38991   0.948  16.271  11.531  0.1573  0.0855 -0.1910
23098W        W38992   6.282   7.794  12.373 -0.1927 -0.1246 -0.2753
23099W        W38993   9.065   0.242  10.847  0.2147 -0.3269  0.0534
23100W        W38994  14.042   0.880   4.759  0.1147  0.1419  0.4295
23101W        W38995  16.982  14.698   2.452 -0.2451  0.0407 -0.1094
23102W        W38996   4.338   3.109  13.046  0.0130  0.1233 -0.2415
23103W        W38997  14.857   8.018   2.956 -0.0232 -0.3574  0.0276
23104W        W38998  17.743   4.646  14.028  0.4240 -0.1310  0.1967
23105W        W38999  15.167  13.115  13.235  0.0420 -0.2330 -0.0282
23106W        W39000   0.462   5.463  14.081  0.0357 -0.1056  0.1241
23107W        W39001  11.218   8.635   3.775  0.0006  0.3072 -0.1956
23108W        W39002  16.334  15.006   3.451 -0.0639  0.0848  0.1144
23109W        W39003   5.428   0.902  11.707  0.2135 -0.1311  0.0530
23110W        W39004   5.278  13.684  10.491 -0.1557  0.1595  0.0400
23111W        W39005  13.513   2.626   2.694  0.1111  0.2518 -0.1519
23112W        W39006  12.626   2.983   1.083 -0.1635 -0.3129 -0.1215
23113W        W39007   5.956  14.177  13.327 -0.1812  0.3131  0.0175
23114W        W39008  10.503  10.118  14.682  0.0947  0.3771 -0.1875
23115W        W39009   7.382  12.696   5.346  0.1160  0.0694  0.2476
23116W        W39010   3.174  13.571  13.187  0.0960  0.1263 -0.0591
23117W        W39011  10.389   4.525   5.311  0.4288  0.0325  0.0688
23118W        W39012  10.422  13.036   0.869  0.1962 -0.1964 -0.2619
23119W        W39013  13.263   0.386  14.691  0.5115 -0.1951  0.0352
23120W        W39014   2.250  13.315  15.480 -0.2752  0.1431 -0.2169
23121W        W39015  10.030  14.776   1.938  0.1013  0.0961  0.0215
23122W        W39016   3.723  15.376   3.667  0.4003 -0.3547  0.0640
23123W        W39017   2.940  14.979  12.576 -0.2276  0.2170 -0.0768
23124W        W39018   1.039   2.177  14.576 -0.1234 -0.2296 -0.1834
23125W        W39019  17.861  14.976   4.665  0.0475  0.0606 -0.0340
23126W        W39020   5.758  11.567   1.006  0.1750  0.0727 -0.2650
23127W        W39021   1.024  16.369   2.090 -0.1153 -0.0496  0.0230
23128W        W39022  13.959   2.127   5.002  0.1459  0.1942  0.1433
23129W        W39023   9.018   5.993  11.693  0.2402  0.0800 -0.1008
23130W        W39024   5.810   1.964   2.258 -0.0901  0.2124  0.2185
23131W        W39025  15.183   4.463   1.708  0.2420  0.2915  0.1622
23132W        W39026  10.383   4.403   4.060 -0.1791  0.2519 -0.4246
23133W        W39027   9.220   8.699   1.106 -0.0287  0.0276  0.3249
23134W        W39028  13.200  13.647   0.254  0.2312  0.0847  0.1862
23135W        W39029   7.213   9.784  13.913  0.0910  0.0387 -0.3037
23136W        W39030  14.787  12.505   1.310  0.1416  0.0824 -0.0325
23137W        W39031   0.178   8.997  12.735  0.0291 -0.0862  0.1694
23138W        W39032   1.882  11.853   4.686  0.1010 -0.1577  0.3181
23139W        W39033   1.911   7.067  11.132 -0.4809  0.0247  0.1115
23140W        W39034  17.183  15.094   2.861  0.0537 -0.4080  0.1904
23141W        W39035  12.258  16.589   1.429 -0.1088  0.1769 -0.0167
23142W        W39036  18.652   2.741   0.848  0.3176 -0.2477  0.0494
23143W        W39037   6.653   7.185  11.682 -0.1653  0.4053  0.0543
23144W        W39038  10.684   9.045  14.511  0.1285 -0.3960 -0.0327
23145W        W39039  17.914   0.131  14.647 -0.2078 -0.1161  0.0019
23146W        W39040  13.556  12.294  14.861 -0.3346  0.1142 -0.0389
23147W        W39041   7.556  15.531   5.933  0.1107  0.0506 -0.1392
23148W        W39042  13.142  13.750   0.826 -0.2462 -0.1194 -0.0256
23149W        W39043   4.122   3.430  14.026  0.0494 -0.1681  0.0253
23150W        W39044  10.799  17.122   1.070  0.0989  0.4304 -0.1817
23151W        W39045  15.524  17.168  14.815  0.1970 -0.1280 -0.0165
23152W        W39046   9.386   4.676  14.529  0.3047  0.0760 -0.2608
23153W        W39047   6.798   1.326   2.622 -0.0419  0.1324 -0.1247
23154W        W39048   4.365   4.489   4.742  0.1185  0.1484 -0.2629
23155W        W39049   0.923  18.589   4.475  0.0098  0.0308  0.0331
23156W        W39050   6.867  17.698  11.787  0.1771 -0.1519 -0.0726
23157W        W39051   5.860   1.321   4.131  0.1196 -0.3900 -0.1107
23158W        W39052   8.751  13.092   3.774  0.0809 -0.0636  0.2455
23159W        W39053  15.669   0.041  13.103  0.4259 -0.0947  0.1620
23160W        W39054   0.653  17.249  12.032 -0.0175  0.1941 -0.0195
23161W        W39055   9.703   4.522  15.103 -0.0231 -0.0906  0.0471
23162W        W39056  14.703   3.937   5.440  0.0650  0.0071 -0.0491
23163W        W39057   4.350  13.247   3.095 -0.0546  0.2589 -0.3343
23164W        W39058   4.692  10.288   0.707  0.1280 -0.0949  0.0368
23165W        W39059  14.399   8.068  12.894  0.0800 -0.1189 -0.1191
23166W        W39060   6.554  18.262  12.360  0.2943 -0.2157  0.2539
23167W        W39061   3.234  15.831   0.450  0.0096  0.1337 -0.2917
23168W        W39062   2.578   1.264   4.054  0.0263 -0.1117  0.4642
23169W        W39063  12.089   5.221  13.721  0.3310 -0.0005  0.1169
23170W        W39064   5.795  13.288  13.702  0.0884 -0.2691  0.0928
23171W        W39065   9.876  14.560  14.954 -0.2261  0.2783 -0.3515
23172W        W39066  10.784  12.693  11.830 -0.1802 -0.1368  0.1169
23173W        W39067   1.946   0.925   4.876 -0.2848 -0.0151 -0.1512
23174W        W39068  14.772   2.501  12.173 -0.3793 -0.1140  0.0438
23175W        W39069  17.133   1.546  13.669 -0.0063 -0.1848 -0.1694
23176W        W39070   0.930  16.278  10.493 -0.0960 -0.0057  0.0147
23177W        W39071   3.973   8.070  13.173  0.2040 -0.1167 -0.0014
23178W        W39072   0.858   1.062  13.998 -0.0875 -0.5019  0.0123
23179W        W39073  10.700  14.096   3.245  0.0058  0.2631  0.0195
23180W        W39074   1.744  15.844  14.858 -0.0202 -0.1516  0.1598
23181W        W39075   0.099  11.531  14.983 -0.1708 -0.0105  0.0804
23182W        W39076   9.541  18.399   1.245 -0.0783  0.0363 -0.0285
23183W        W39077  11.849  11.569   3.795 -0.0786 -0.2348  0.1772
23184W        W39078  18.081   1.584  13.240 -0.1297 -0.1734 -0.1937
23185W        W39079   5.838  18.268   0.636  0.1702 -0.0613 -0.0298
23186W        W39080  13.663  15.392   4.906 -0.0563  0.1129  0.0838
23187W        W39081   3.175  17.885  10.821  0.0862  0.1958 -0.4572
23188W        W39082   4.638  11.585  12.278 -0.0700 -0.0752 -0.0623
23189W        W39083   9.092  18.131   4.399  0.3088 -0.1334 -0.0737
23190W        W39084   3.994  11.432   4.713 -0.2162 -0.0586  0.1325
23191W        W39085   0.074  10.985  10.695 -0.3140  0.0411 -0.1237
23192W        W39086  12.589   5.746   0.450  0.1771  0.3023  0.4588
23193W        W39087  18.343  12.009  13.503  0.3384  0.1893 -0.0851
23194W        W39088  13.164   9.718  12.572 -0.0133 -0.3685 -0.0626
23195W        W39089  14.176   6.428   0.883  0.0701 -0.0708  0.0800
23196W        W39090  10.995   0.071   5.431  0.1052  0.3079 -0.3189
23197W        W39091   5.917   6.829  14.108 -0.1477 -0.3427  0.2593
23198W        W39092   7.925   8.827  12.873  0.0254  0.1140  0.2557
23199W        W39093  15.689   2.662  13.745 -0.1261 -0.0695  0.1466
23200W        W39094   2.553   1.498   2.093 -0.0307 -0.0848 -0.0755
23201W        W39095   9.943  18.714   6.174  0.2911 -0.2169  0.2859
23202W        W39096  12.647   0.392   1.307 -0.2173  0.0239  0.0559
23203W        W39097   5.833   1.846   4.838 -0.1418 -0.1001  0.3416
23204W        W39098  12.926  15.728  11.897  0.2644  0.2254  0.0272
23205W        W39099   3.204  14.104   0.720 -0.1489  0.1091 -0.1035
23206W        W39100  13.360   6.626   4.365 -0.5822 -0.1370  0.1273
23207W        W39101   8.029  18.562   4.163  0.2758  0.0396 -0.0328
23208W        W39102   8.796   2.270  13.893 -0.0624  0.1902  0.1313
23209W        W39103   1.348   8.988   1.570 -0.1316 -0.2521 -0.0311
23210W        W39104  16.575   3.830   2.197 -0.2494  0.0547  0.0529
23211W        W39105   2.948  12.786   2.080 -0.0281 -0.1184  0.3225
23212W        W39106   3.471  15.315   0.559  0.2158  0.0099 -0.0195
23213W        W39107  11.558  12.571   5.574  0.0445  0.1058  0.0003
23214W        W39108   9.422  14.468   2.776 -0.2456 -0.1219 -0.0885
23215W        W39109   9.466  12.701  15.339  0.0417 -0.0091  0.2972
23216W        W39110   4.264  11.469  15.279  0.0763 -0.3288 -0.1792
23217W        W39111  14.190   0.416  11.086  0.4502  0.0697  0.1086
23218W        W39112   9.145  14.045   2.950  0.2118 -0.1521  0.1828
23219W        W39113  17.286  12.719  12.033 -0.0873 -0.1744  0.2456
23220W        W39114   6.595   9.246  12.993 -0.2724  0.0088  0.2139
23221W        W39115  18.547  18.394  11.084  0.2163 -0.1494 -0.0125
23222W        W39116   1.166   2.056   5.524  0.0767  0.1066 -0.3413
23223W        W39117   3.428  16.559   1.872  0.0960  0.2360 -0.0673
23224W        W39118   7.214  18.207  14.120 -0.2375  0.2906 -0.1402
23225W        W39119   5.294  11.910   2.339 -0.1947  0.2399 -0.1468
23226W        W39120  10.559   2.038   1.764  0.0674 -0.1624  0.1106
23227W        W39121   3.177   6.693   0.405  0.2447 -0.2626 -0.1997
23228W        W39122  18.330   1.430   0.292  0.0334  0.0846 -0.3252
23229W        W39123  10.267  17.686   4.541  0.0294  0.0954 -0.1940
23230W        W39124   4.245   1.274  13.599 -0.2400 -0.1917  0.0398
23231W        W39125  17.943   0.560   5.367 -0.0596 -0.2268  0.1218
23232W        W39126   9.174   2.897   0.250  0.3558  0.2929  0.0518
23233W        W39127   0.558   9.897  14.764 -0.2831 -0.1890  0.1491
23234W        W39128  18.436  17.776  12.239 -0.2378  0.3756  0.1083
23235W        W39129   4.587   4.824   1.334  0.0801  0.0593 -0.0968
23236W        W39130  17.589   3.169  14.188 -0.0644 -0.0855 -0.0678
23237W        W39131  18.273   1.518  14.579  0.2265  0.3882  0.2370
23238W        W39132  17.195   7.892   1.253  0.0169 -0.2293 -0.1600
23239W        W39133  15.325   9.677  10.927  0.2992 -0.0341 -0.2583
23240W        W39134   2.033   4.276  13.714 -0.1953 -0.1352 -0.4474
23241W        W39135  14.032  14.413   0.562 -0.1680 -0.2355 -0.0008
23242W        W39136   9.337  14.819   3.663 -0.2605  0.2190 -0.1363
23243W        W39137   1.213   8.692  11.278 -0.0966  0.2245 -0.0332
23244W        W39138   0.703  15.716  13.986  0.1065 -0.2658 -0.1221
23245W        W39139  13.442   9.575  14.497 -0.1727 -0.3701 -0.2009
23246W        W39140   5.858   9.795   1.915 -0.0450  0.3022  0.2472
23247W        W39141   8.253   0.909  13.990 -0.1549  0.0782  0.0652
23248W        W39142   9.257   0.901  15.265 -0.2089 -0.2188 -0.2225
23249W        W39143  13.343   8.007  12.297  0.1016 -0.0738 -0.1235
23250W        W39144  15.984  12.247   0.929 -0.0356 -0.0567  0.1285
23251W        W39145   0.496   7.334   3.916  0.0257  0.1398  0.2436
23252W        W39146  10.432  17.264   2.816 -0.2614  0.0699 -0.0888
23253W        W39147  16.660   0.620   3.365 -0.2280 -0.1063  0.0641
23254W        W39148  18.130   7.182  15.311 -0.0684 -0.0513  0.2040
23255W        W39149   1.972  11.946   9.481 -0.1484 -0.0271  0.0289
23256W        W39150   7.451  10.963   3.448 -0.0007 -0.0761 -0.0537
23257W        W39151  15.668   6.303   3.910  0.1290  0.2808 -0.1810
23258W        W39152  17.686  13.258   4.582  0.1985 -0.1060 -0.0874
23259W        W39153   2.697   8.110  15.422  0.1200  0.0571 -0.1868
23260W        W39154   1.360  12.004   4.246  0.2858  0.0993  0.3837
23261W        W39155   9.637  16.117   4.064  0.1392  0.3380 -0.0332
23262W        W39156   8.758  14.608  12.344  0.1729  0.2313  0.0204
23263W        W39157  12.542   4.807   0.280  0.0842  0.1698  0.1676
23264W        W39158  15.749   4.562   2.131  0.1833 -0.2313  0.0696
23265W        W39159  14.640  18.559  15.427  0.0858 -0.2840 -0.1506
23266W        W39160  12.919  16.597  13.798  0.1511 -0.2408 -0.0656
23267W        W39161  17.316  18.793  11.201 -0.2270 -0.2112 -0.0094
23268W        W39162   4.516   7.511  15.013 -0.1093  0.1616 -0.0023
23269W        W39163  12.693   5.956  11.132  0.0070 -0.3695  0.3189
23270W        W39164   4.304   0.731   3.042  0.1558  0.0323 -0.1785
23271W        W39165  12.920  14.387   1.580 -0.1692  0.0225  0.0933
23272W        W39166   6.321   1.542   3.779 -0.1816  0.0180 -0.3241
23273W        W39167  14.229   4.563  11.796 -0.1043 -0.0512  0.0514
23274W        W39168   8.983  10.923  11.881  0.2097  0.0268  0.1766
23275W        W39169  10.774  10.183   2.699  0.3455 -0.1452 -0.1410
23276W        W39170   5.291  15.764  12.782  0.2670  0.0599 -0.0406
23277W        W39171   3.785   1.212  11.815  0.0138  0.0902  0.0087
23278W        W39172  18.814  17.293  13.446  0.4213 -0.2257 -0.0817
23279W        W39173  17.122   4.067  13.774 -0.0269  0.0098 -0.4398
23280W        W39174  16.703   2.357   2.295 -0.0982 -0.0137  0.0215
23281W        W39175   6.575   8.369  15.100  0.2591 -0.4100  0.0626
23282W        W39176  15.914  13.433  10.993 -0.0418 -0.0186 -0.3750
23283W        W39177   5.073   4.638   3.600 -0.6626 -0.2714 -0.1899
23284W        W39178   1.114  10.788  11.260  0.2725 -0.3724 -0.0635
23285W        W39179  16.144  11.078   2.374 -0.0454 -0.2281 -0.1929
23286W        W39180  15.812  18.341   2.098  0.1747 -0.0707 -0.1908
23287W        W39181   3.110  13.456  14.395  0.1542 -0.5186 -0.0444
23288W        W39182   0.386  12.608  10.576 -0.2257 -0.1424  0.0306
23289W        W39183   5.508   7.316   4.050 -0.0454  0.1386 -0.0338
23290W        W39184   9.076   3.974  13.879 -0.0889  0.0989  0.0825
23291W        W39185   9.748  18.081   4.956  0.2076 -0.2402 -0.2271
23292W        W39186  11.214  11.640  12.501 -0.1076  0.1388 -0.4435
23293W        W39187   6.948   9.418  15.036 -0.1178  0.3250 -0.0904
23294W        W39188   5.966   1.056  15.046 -0.0421  0.1711 -0.2463
23295W        W39189  10.731  17.842  12.741 -0.2097  0.0262  0.4430
23296W        W39190   4.094  18.052   0.300 -0.2291 -0.1196 -0.0971
23297W        W39191   8.653  13.068   0.150  0.1498 -0.1024  0.4522
23298W        W39192  12.482   1.069   0.534 -0.1516  0.1204  0.0496
23299W        W39193   0.761  11.835   4.150 -0.1075  0.0684 -0.2251
23300W        W39194  13.197  15.483   6.082 -0.3606  0.2689  0.1830
23301W        W39195  15.816   1.513  15.381 -0.0335 -0.0306  0.0363
23302W        W39196   9.151   6.674  14.850 -0.2052  0.2995 -0.5263
23303W        W39197   9.461  15.869  14.717  0.0472  0.1438 -0.2865
23304W        W39198  18.045  17.652  12.520 -0.2236  0.0832 -0.1213
23305W        W39199   7.114  11.968  14.417  0.4150 -0.2243 -0.1158
23306W        W39200   6.339  14.501  10.812  0.1578  0.1011  0.0962
23307W        W39201   3.361   2.663   3.610 -0.2190 -0.2421  0.1804
23308W        W39202   9.688   1.973   4.313  0.4145 -0.0601 -0.0317
23309W        W39203  10.766   7.597  11.370 -0.1201 -0.5035 -0.1879
23310W        W39204  15.170  17.561  13.096  0.1062  0.1360  0.1958
23311W        W39205   9.139  12.909  13.477  0.1079  0.2782 -0.0041
23312W        W39206  15.470  16.760   1.723  0.0341  0.0773  0.1646
23313W        W39207  18.337   0.518  14.258  0.0688  0.1063  0.2131
23314W        W39208   9.110   5.057  13.753 -0.1029  0.0941  0.3259
23315W        W39209  15.186   9.457  13.350  0.1049  0.3312  0.2931
23316W        W39210   9.682   3.443  15.257 -0.1989 -0.0170  0.0063
23317W        W39211   4.953  16.388  13.075 -0.2600  0.1961 -0.1831
23318W        W39212  12.457   6.292   4.478  0.2161  0.0820  0.0779
23319W        W39213   6.162   4.293  14.637 -0.0192  0.0511 -0.2268
23320W        W39214  18.599   3.554   4.845 -0.0889 -0.0114 -0.0174
23321W        W39215   2.896   4.122   2.203 -0.2074  0.0990  0.2301
23322W        W39216  12.890   2.775  14.607  0.3008  0.3577 -0.1330
23323W        W39217  10.411   5.990  14.927 -0.2095  0.0253 -0.2174
23324W        W39218   9.089  18.478  11.842  0.2111 -0.1871  0.2435
23325W        W39219   6.411   4.628   2.848  0.3512  0.0238  0.1483
23326W        W39220  15.348   6.467  13.777 -0.2418 -0.2332  0.2915
23327W        W39221  10.408  13.617   3.131 -0.2145  0.1908  0.0109
23328W        W39222  16.255   0.848  10.916 -0.2342  0.1168 -0.0325
23329W        W39223   5.286   4.486   4.340  0.4329 -0.0051 -0.1288
23330W        W39224  17.767   8.994   0.475 -0.4037  0.3871  0.2711
23331W        W39225   1.839  18.498   3.863 -0.1793  0.2245  0.0133
23332W        W39226   9.554   2.258  14.697  0.2863 -0.1242  0.1163
23333W        W39227  16.938  18.379   1.784 -0.2409  0.0566 -0.2419
23334W        W39228  14.376  15.378  15.113 -0.2856  0.1488 -0.2170
23335W        W39229  18.168  12.872   3.324  0.1243 -0.0779  0.2292
23336W        W39230  13.615  12.841  13.359 -0.0167 -0.1708  0.0825
23337W        W39231  11.176   8.855   5.085  0.1826  0.0199  0.0903
23338W        W39232   2.076   1.495   3.689  0.3567 -0.0152  0.1918
23339W        W39233   5.312  18.879  13.936 -0.4237 -0.0920  0.3756
23340W        W39234   1.688  14.819  12.032  0.0516  0.0173 -0.2052
23341W        W39235  17.773   5.282   4.214 -0.0873 -0.2166 -0.2981
23342W        W39236  15.814   8.518  14.647  0.1873 -0.1415 -0.1029
23343W        W39237   9.203   2.364   1.721  0.1846 -0.3087  0.1028
23344W        W39238   4.518   5.351  14.760  0.1188  0.0212 -0.0844
23345W        W39239   2.005   5.848  14.348 -0.0585  0.1628  0.1216
23346W        W39240   4.385   8.564  11.050  0.1892 -0.2884 -0.2146
23347W        W39241   1.537  16.612   2.995  0.1356  0.0902  0.3701
23348W        W39242   6.101   5.100  15.255  0.4014 -0.0702 -0.0976
23349W        W39243  13.688  16.149  11.263  0.0218  0.1887  0.0501
23350W        W39244  18.290   4.007   4.131 -0.0937  0.1042  0.0076
23351W        W39245  14.961  11.412   5.638 -0.0325 -0.4121  0.0167
23352W        W39246   6.568   1.476   4.330  0.0007  0.2175  0.1370
23353W        W39247  16.342   3.597   3.016 -0.1035 -0.2581 -0.3100
23354W        W39248   3.729   5.524   2.950  0.3269 -0.1529  0.3109
23355W        W39249   6.096  10.424   0.833 -0.2113 -0.1236 -0.4357
23356W        W39250  15.228   8.472   2.657  0.1459  0.1918  0.1826
23357W        W39251  11.688  12.492  14.038 -0.0198 -0.0448  0.0527
23358W        W39252  11.789   6.891   5.798  0.1553  0.0007  0.1123
23359W        W39253  18.722  13.065   3.939  0.3283  0.0726 -0.0123
23360W        W39254  13.769   0.819   1.932  0.0182  0.3466 -0.0299
23361W        W39255   8.944   0.399   1.484  0.5092  0.1960 -0.0885
23362W        W39256   1.615   0.364  15.029 -0.2822 -0.0286  0.1710
23363W        W39257  11.960   5.128  14.355  0.0778  0.3553 -0.0803
23364W        W39258   6.573  18.645  15.062 -0.2596  0.2615  0.3026
23365W        W39259  15.334   1.430   2.857 -0.1702 -0.1549  0.0970
23366W        W39260  15.612   2.279  10.993 -0.0390  0.1547  0.1504
23367W        W39261  14.217   2.683   0.329 -0.1178  0.0270  0.1365
23368W        W39262   6.035   5.238   5.223 -0.0064 -0.2871 -0.0482
23369W        W39263   3.725   3.448   1.324  0.0026 -0.2563 -0.2413
23370W        W39264   7.239   2.498   0.319 -0.2448  0.0044  0.0005
23371W        W39265   2.098   2.585   3.448 -0.2435 -0.3495  0.0539
23372W        W39266   7.890   6.764   4.392 -0.2033  0.1552 -0.1210
23373W        W39267  18.553   2.399   4.421 -0.2532  0.0898 -0.0783
23374W        W39268   0.049   2.866   1.250 -0.0822 -0.2248 -0.1714
23375W        W39269  11.111   3.759   3.382  0.3974 -0.2157  0.2995
23376W        W39270   2.551   7.271   2.050 -0.0815 -0.2893 -0.0816
23377W        W39271   1.197   6.367  11.325  0.0522 -0.2755 -0.0175
23378W        W39272   5.968   3.151  13.811 -0.1862 -0.3910 -0.3382
23379W        W39273  17.697  10.688   0.312  0.1554  0.1778 -0.0847
23380W        W39274   4.572   3.527  14.380  0.2656  0.0182 -0.0195
23381W        W39275   1.771  17.085  15.298 -0.2109 -0.0335 -0.3549
23382W        W39276   2.465   2.415   4.068 -0.1336  0.1265 -0.2792
23383W        W39277  11.564   6.814  13.317 -0.2075 -0.2537  0.1048
23384W        W39278  11.171   9.548  13.772  0.0147 -0.1256  0.2996
23385W        W39279   0.991  15.985   2.475 -0.3246 -0.2418 -0.2118
23386W        W39280   5.491  10.569   1.416 -0.1122  0.2468 -0.4622
23387W        W39281   4.634   9.090  13.562  0.1278  0.3329 -0.1104
23388W        W39282   8.066  15.095   3.846  0.1091 -0.1124 -0.1061
23389W        W39283  15.466   0.070   4.496  0.2075 -0.0224 -0.1229
23390W        W39284  17.435   1.752   1.649 -0.1049  0.2348  0.1563
23391W        W39285   4.514   8.752   1.715 -0.0585 -0.1445  0.1810
23392W        W39286   7.784   9.780  14.054  0.0913  0.2574 -0.3292
23393W        W39287   9.566   2.484   4.666 -0.1636  0.3283 -0.1780
23394W        W39288  10.290   0.195  14.991  0.0517 -0.3170 -0.0379
23395W        W39289   0.016  14.708   0.959 -0.0535 -0.2087 -0.1254
23396W        W39290  14.894   7.362   3.635  0.0812  0.0816 -0.1370
23397W        W39291   2.187   1.446  11.082 -0.1623  0.2516  0.2304
23398W        W39292  14.539  12.617   2.088  0.4831 -0.0435  0.1437
23399W        W39293  14.448  18.465  12.932  0.1274  0.0681 -0.1077
23400W        W39294   4.663   6.194  11.089  0.0822  0.0025  0.2404
23401W        W39295  17.375   1.671  14.906  0.0737  0.0213  0.4324
23402W        W39296  14.123   7.137   3.771 -0.1507  0.2219 -0.0479
23403W        W39297  16.826  16.657   0.566 -0.0862  0.4162  0.1457
23404W        W39298   0.731  16.917   0.786 -0.3421 -0.2982 -0.0110
23405W        W39299  17.282  11.972  12.933 -0.2857  0.1008  0.1902
23406W        W39300  10.935   4.755  12.215  0.1506 -0.3327  0.1796
23407W        W39301  10.497  18.769   0.690 -0.0806  0.0404 -0.1151
23408W        W39302   9.489   3.161  14.255  0.1297  0.0535  0.0663
23409W        W39303  15.151  13.768  11.940 -0.0656 -0.2076  0.0239
23410W        W39304   6.790   2.432  12.815  0.1289 -0.0941 -0.0611
23411W        W39305   1.415  18.275   4.557  0.0244 -0.0112 -0.3715
23412W        W39306  18.037  18.547  10.950  0.2619 -0.1016  0.4377
23413W        W39307   7.437  10.337  14.882 -0.2284  0.1561 -0.3194
23414W        W39308   8.112  13.842   4.975  0.0092 -0.2753 -0.0946
23415W        W39309  15.352   5.852   4.232 -0.1336  0.0865  0.3540
23416W        W39310   8.317  11.694   4.437  0.1182 -0.0820  0.0654
23417W        W39311   4.803   3.562   1.883 -0.1912  0.1473  0.0415
23418W        W39312  16.684  14.358   4.423  0.0190 -0.1052  0.2202
23419W        W39313  16.122  14.883   6.296  0.1715  0.0484 -0.2875
23420W        W39314   4.607  15.611  12.285 -0.1268 -0.2064 -0.0293
23421W        W39315   3.353   5.786  10.490  0.1038 -0.2378 -0.1014
23422W        W39316   6.141  13.977  11.959  0.0103 -0.0739 -0.1490
23423W        W39317   0.402   3.096   3.052 -0.0957  0.0442  0.0498
23424W        W39318  13.509   6.609  12.220  0.0625 -0.0746  0.0193
23425W        W39319  12.819  12.386   0.478  0.0213 -0.0941 -0.1016
23426W        W39320   8.990  18.335  12.307 -0.3379 -0.2681 -0.1225
23427W        W39321  18.505  11.835  15.380 -0.0367  0.0427 -0.4001
23428W        W39322   9.833  10.307  12.301  0.0144 -0.1104  0.1411
23429W        W39323   3.902   8.028  12.499 -0.0397 -0.1911 -0.0920
23430W        W39324  17.144   5.636  12.296  0.0527  0.1003  0.4057
23431W        W39325  18.639  16.501   3.298 -0.0212  0.4349  0.1969
23432W        W39326   5.384   5.797  13.261 -0.1845  0.1314  0.1324
23433W        W39327   3.307   4.184   1.804 -0.2838 -0.0001 -0.0425
23434W        W39328  14.319  12.516   0.428 -0.2198 -0.0527 -0.2360
23435W        W39329   9.811  17.495   0.964 -0.1869  0.0556  0.0528
23436W        W39330  12.065   2.702   2.050 -0.0203 -0.0668  0.1127
23437W        W39331  15.432   2.049   4.774  0.0867 -0.3334 -0.1221
23438W        W39332   3.780  13.144   0.673 -0.2781  0.0983 -0.2127
23439W        W39333  14.120   4.179   1.284 -0.1235  0.4928 -0.2989
23440W        W39334   9.002  10.966  10.510  0.0700  0.0096 -0.1276
23441W        W39335  12.268   2.674   4.090  0.0244  0.1118  0.0127
23442W        W39336   0.024  16.100  11.620  0.1041  0.2444 -0.1928
23443W        W39337  18.600  14.538  13.388  0.0416 -0.2655  0.0106
23444W        W39338  16.846   6.555   3.310 -0.1528  0.2507 -0.5793
23445W        W39339  16.176  15.494   0.230 -0.3756 -0.0605  0.1432
23446W        W39340   3.108   1.586   4.679  0.2217  0.0698 -0.0326
23447W        W39341  11.955   3.147  12.409 -0.0445 -0.1522  0.0190
23448W        W39342   2.327  12.192   2.498  0.3067 -0.0847  0.1164
23449W        W39343   8.842  17.352  14.479  0.1257 -0.0681 -0.0795
23450W        W39344   9.554   9.221   4.796  0.0059 -0.3574  0.2823
23451W        W39345   8.361  14.887   3.453 -0.2172  0.1850 -0.3151
23452W        W39346   0.950   8.315   4.655 -0.2885  0.2275 -0.2713
23453W        W39347  15.550   0.016  11.308 -0.0714 -0.2626  0.2886
23454W        W39348   3.369   1.236   2.583 -0.0870  0.1666  0.2632
23455W        W39349  18.326   8.424  10.877  0.1962 -0.1139 -0.2349
23456W        W39350   0.023   7.655  12.804 -0.0004 -0.1242 -0.1489
23457W        W39351  13.514   3.964   0.698 -0.0210  0.0039 -0.0656
23458W        W39352   3.029  17.470   5.366  0.0322 -0.0999  0.0506
23459W        W39353   7.303   3.614  12.337  0.1269 -0.1899  0.1810
23460W        W39354   3.984   6.735  14.474 -0.3614 -0.0211  0.0181
23461W        W39355   0.354   1.337  14.109 -0.0327 -0.2070 -0.1453
23462W        W39356  14.314   9.934   3.000 -0.4737  0.1289  0.2650
23463W        W39357   7.344   3.677   4.535  0.1692 -0.3735 -0.0755
23464W        W39358   0.142   0.799  11.219 -0.2457 -0.1069 -0.1257
23465W        W39359  10.374   4.672   4.803 -0.1872 -0.1595 -0.0473
23466W        W39360   2.774  11.984  10.566  0.1047  0.0301  0.0786
23467W        W39361   1.008   4.888  10.268 -0.0334  0.2671  0.1336
23468W        W39362   7.548   2.669   1.552  0.0375  0.0167  0.1240
23469W        W39363  12.714  15.887  11.466 -0.1194 -0.0817 -0.0152
23470W        W39364  17.252  13.013   4.713 -0.1486  0.1340  0.2016
23471W        W39365   7.535  14.071  14.818 -0.1462 -0.2277 -0.3660
23472W        W39366   0.451   2.527  10.987  0.0905  0.2864  0.0067
23473W        W39367  17.749  14.018   2.045  0.1365 -0.0407  0.2971
23474W        W39368  12.275  10.125   5.139 -0.1202 -0.2068 -0.0341
23475W        W39369  17.834   7.898   3.119 -0.3182  0.1899 -0.2115
23476W        W39370   4.217   0.214   3.144  0.3241  0.3125  0.6626
23477W        W39371   5.858  15.910  14.054  0.0262 -0.3287 -0.0909
23478W        W39372  12.150  16.510  15.219 -0.0390  0.0072  0.0911
23479W        W39373   0.027   3.113   0.540  0.2843  0.2743  0.1423
23480W        W39374   1.295   0.553   0.399  0.4004  0.0197  0.0518
23481W        W39375  11.672  16.250   4.573 -0.3224 -0.2699 -0.1964
23482W        W39376   4.307   4.459   0.886  0.0811 -0.0341  0.1902
23483W        W39377   6.476   0.186  12.978  0.0928 -0.0243  0.5784
23484W        W39378  16.388  10.257  13.081 -0.1548 -0.0528  0.1374
23485W        W39379  10.593  15.284   2.468  0.0220 -0.2633 -0.0811
23486W        W39380  16.995   8.191  11.384 -0.0504 -0.3045  0.2467
23487W        W39381   7.097  16.521  13.828  0.1493  0.0851 -0.1031
23488W        W39382   0.601  15.993   0.276  0.1157  0.3288 -0.3165
23489W        W39383   0.923  11.197   3.157  0.4073 -0.0832 -0.1171
23490W        W39384   8.535   6.158  15.313  0.2582 -0.4327 -0.1478
23491W        W39385  11.318   2.196  12.363 -0.3110 -0.0519 -0.0512
23492W        W39386  11.362  11.311  14.419  0.0518 -0.2296  0.0018
23493W        W39387   7.401  13.519  10.371 -0.0610 -0.1103 -0.2678
23494W        W39388  14.799   1.328  13.913 -0.3560 -0.0427  0.2084
23495W        W39389   0.223   4.450   3.408 -0.2921  0.2018  0.2374
23496W        W39390   5.909   8.845   4.120  0.0619 -0.2129  0.1655
23497W        W39391  17.921  10.099   4.121 -0.3293  0.0075 -0.0777
23498W        W39392   0.439  16.474  12.797  0.3386 -0.0287  0.0843
23499W        W39393   9.248   9.813  13.294 -0.0196 -0.0690 -0.2773
23500W        W39394  13.888  12.836  12.925 -0.4669 -0.6928  0.2186
23501W        W39395  13.874  13.729  12.341  0.0456 -0.0125  0.2393
23502W        W39396   0.527   3.537  14.922  0.3220 -0.0476  0.0226
23503W        W39397  12.779  17.061  10.150 -0.0592 -0.0928 -0.1396
23504W        W39398   8.565   4.647   1.395 -0.1081 -0.0126 -0.4181
23505W        W39399   3.446   3.921  12.115  0.1418  0.1155  0.1892
23506W        W39400   6.010   6.883  11.086  0.1344 -0.2872  0.1578
23507W        W39401  17.382  10.625  15.355 -0.0711 -0.1232  0.1741
23508W        W39402   5.522   2.398   0.792  0.1579 -0.2806  0.0052
23509W        W39403   5.223   2.119   1.214  0.1259 -0.0812  0.0437
23510W        W39404  10.065  17.740  14.821 -0.1687 -0.0543 -0.2581
23511W        W39405  14.264  11.130   2.298  0.1225 -0.0443  0.2515
23512W        W39406  13.842  14.007   5.016  0.0765  0.1848  0.0245
23513W        W39407   9.741   1.416  13.663 -0.0761  0.1041  0.3067
23514W        W39408   8.898  17.992  11.993  0.1626  0.1781  0.2369
23515W        W39409  15.731  17.873   2.392 -0.0240  0.0670  0.0803
23516W        W39410   2.961  16.019   3.490  0.2560  0.0019  0.3143
23517W        W39411  13.338   9.759   3.117 -0.1249  0.1159 -0.0474
23518W        W39412   0.570   1.458  11.499  0.1093 -0.1620 -0.0370
23519W        W39413  12.474  11.209   2.500  0.1139 -0.2079 -0.1081
23520W        W39414   4.486   0.994   3.490 -0.2045  0.0038 -0.3049
23521W        W39415   9.174  18.271   2.212 -0.0866 -0.3004  0.1046
23522W        W39416  11.914  10.357  12.701 -0.2723  0.0157 -0.0421
23523W        W39417   2.311   9.803   3.216  0.0629  0.1762 -0.1568
23524W        W39418   6.441  16.595   4.279  0.0619  0.1905  0.0710
23525W        W39419   3.780   6.135   4.161 -0.0771  0.2823 -0.3091
23526W        W39420   4.357   6.759  10.098 -0.0225 -0.1303  0.2154
23527W        W39421  14.194   2.699   3.672 -0.0041 -0.1482 -0.1129
23528W        W39422  11.988  10.410  13.724  0.0282  0.0750 -0.4077
23529W        W39423   6.604  13.617   4.443 -0.2922  0.1508 -0.0448
23530W        W39424  10.715  11.163  11.894 -0.0669  0.0099  0.0079
23531W        W39425  17.042  16.440   9.966 -0.1304  0.2001  0.1182
23532W        W39426  14.557  14.078   0.528  0.1787 -0.0932 -0.1830
23533W        W39427   4.987  13.202  11.642  0.0714 -0.1288 -0.0837
23534W        W39428   3.726  14.758  11.841 -0.1587 -0.0022 -0.0443
23535W        W39429  17.352   2.657   5.132  0.0396 -0.3160  0.0528
23536W        W39430   4.459   3.284  14.846 -0.0734  0.1622  0.2089
23537W        W39431  12.095  16.094  14.265  0.0111  0.1044  0.0272
23538W        W39432  16.603  10.034   4.753  0.1261 -0.0475 -0.1030
23539W        W39433  10.582   6.772  12.926  0.0804  0.0199  0.0692
23540W        W39434   5.870  15.943   4.532 -0.1383 -0.0752  0.3567
23541W        W39435   1.875   8.494  12.756  0.1297  0.0281 -0.1902
23542W        W39436   5.526  18.327   3.212  0.1027  0.0492  0.0251
23543W        W39437  18.394   1.057   3.976 -0.1331  0.0757 -0.2978
23544W        W39438  15.128   2.426   4.477 -0.2147 -0.0485 -0.2105
23545W        W39439   0.324  17.624   1.928  0.1166 -0.3258 -0.0820
23546W        W39440   6.189  12.241  14.390  0.0750  0.1773  0.1279
23547W        W39441  10.619   8.502  14.231 -0.0491 -0.2033 -0.2557
23548W        W39442   7.204   0.717   0.942  0.2334  0.2616 -0.1270
23549W        W39443  14.969   0.866   4.363 -0.2312  0.3675 -0.2492
23550W        W39444  14.545   6.202   0.439 -0.2676  0.1578 -0.0050
23551W        W39445   4.355   9.038   2.449  0.0731  0.1642  0.0935
23552W        W39446   7.548   1.954  11.477 -0.0047 -0.2472  0.3339
23553W        W39447   3.713   8.234  10.222  0.0860  0.1265  0.0023
23554W        W39448   4.054   0.617   0.227  0.0477  0.0821 -0.2867
23555W        W39449  13.990  11.241   5.671 -0.0568 -0.0857 -0.1303
23556W        W39450  10.630   2.099   0.514  0.0174  0.0201 -0.0262
23557W        W39451  16.243   3.965   2.693  0.3464  0.0560 -0.1568
23558W        W39452   8.457   7.877   5.088 -0.0256 -0.1861 -0.2785
23559W        W39453  18.323  17.342  13.245  0.0945 -0.3660  0.1545
23560W        W39454  18.618  10.390   3.922  0.0009 -0.2865  0.0337
23561W        W39455   4.717   0.157  12.679  0.1713 -0.1544 -0.1861
23562W        W39456  15.266   8.314  12.551  0.0985  0.2282  0.3536
23563W        W39457  15.965   8.053  13.749 -0.2709 -0.0473 -0.0370
23564W        W39458  18.849   5.612  12.799 -0.1589 -0.0750 -0.2443
23565W        W39459  14.738   1.641  13.523 -0.1962 -0.2988  0.0574
23566W        W39460  11.021  16.864   3.439  0.0044 -0.1723 -0.2314
23567W        W39461   2.062   5.745   2.283  0.0434  0.0488 -0.0304
23568W        W39462  15.147   3.202   1.370  0.0404  0.0273  0.1553
23569W        W39463  13.783  14.747   3.177  0.2058  0.1560 -0.1383
23570W        W39464  14.849  17.885  15.160  0.1834 -0.1443 -0.1400
23571W        W39465   4.122  10.725  10.894 -0.0558 -0.2389 -0.0055
23572W        W39466   9.262  13.917   1.820  0.1462  0.1699  0.3192
23573W        W39467  12.563  15.942  12.659 -0.2733 -0.0803 -0.4538
23574W        W39468  11.198   8.858  15.333 -0.2385 -0.1790  0.0544
23575W        W39469   1.011   0.351   1.377  0.1079  0.0012  0.0335
23576W        W39470  11.444  18.347   0.157  0.1171  0.0330 -0.3791
23577W        W39471  18.275   2.402   0.164  0.0622  0.4136 -0.0192
23578W        W39472  17.851   1.214   0.111  0.1921 -0.0514 -0.0300
23579W        W39473   8.116  15.178  14.109 -0.3110  0.3052 -0.1689
23580W        W39474   8.670   2.792  11.664 -0.3224  0.1417 -0.1511
23581W        W39475   0.434  13.893  12.302 -0.0118  0.0851 -0.0996
23582W        W39476   6.237  10.948   2.348 -0.1913 -0.1374 -0.2019
23583W        W39477  18.129   3.630  15.322 -0.2610 -0.1331 -0.0663
23584W        W39478   5.808  17.756  14.934 -0.1054 -0.0613 -0.0701
23585W        W39479  12.951  15.010  13.119 -0.0457  0.0172 -0.3344
23586W        W39480   6.609   6.931   2.551 -0.0143  0.1413  0.1805
23587W        W39481  14.806  10.852  10.547  0.2404 -0.0491 -0.2628
23588W        W39482   0.244  15.743  11.139 -0.3460  0.0293  0.0904
23589W        W39483   8.475   9.758  10.932 -0.2396 -0.0174 -0.0289
23590W        W39484  15.977   3.259   2.976  0.2941 -0.0438 -0.1535
23591W        W39485   9.361   8.528   3.617  0.0161  0.1092 -0.0066
23592W        W39486  12.812   0.525  13.856 -0.0368  0.0531  0.0508
23593W        W39487  14.014  14.451   4.880  0.0118  0.0422 -0.1371
23594W        W39488   7.156   8.980   1.571 -0.0133 -0.1829 -0.2105
23595W        W39489   2.015   9.756  11.644  0.4763 -0.1602 -0.1824
23596W        W39490   6.503  15.268   2.538  0.0781 -0.3473 -0.1556
23597W        W39491   2.800   0.130   4.208  0.2091 -0.1835 -0.2601
23598W        W39492  11.085   6.597  12.871 -0.3337  0.1675  0.0765
23599W        W39493  14.015  12.093   1.874  0.1649  0.0539 -0.0111
23600W        W39494   7.453   3.746   2.223 -0.2664  0.2204 -0.1594
23601W        W39495  13.124   7.935   2.840  0.1124  0.1000  0.2398
23602W        W39496  15.899   9.018   2.974  0.2484 -0.0733  0.1575
23603W        W39497  17.235   3.409  12.695 -0.3501 -0.0206  0.0448
23604W        W39498  13.918  14.286   2.927 -0.1104 -0.2063 -0.0901
23605W        W39499  17.157   4.222  12.840 -0.2582  0.0373 -0.1890
23606W        W39500   0.804   6.924  15.091  0.3809  0.2398 -0.1481
23607W        W39501   2.257  12.697   0.474 -0.3248  0.2063  0.1313
23608W        W39502  12.333   4.224   5.125  0.0501 -0.1255 -0.2476
23609W        W39503  13.011   7.386   1.540  0.1704  0.0007  0.0882
23610W        W39504  12.903  16.737  14.856 -0.0959 -0.0443  0.1016
23611W        W39505  10.747  13.689   2.159  0.1054 -0.3011 -0.0563
23612W        W39506  11.476   5.879   3.786 -0.3640  0.2022 -0.0376
23613W        W39507   9.001   0.249  13.828 -0.1504  0.0727  0.3046
23614W        W39508  14.767   5.996   5.057 -0.0449 -0.2305 -0.0099
23615W        W39509  13.457  17.067  11.272  0.0525  0.1785  0.0836
23616W        W39510  15.557  14.667  12.847  0.2722 -0.1250 -0.2063
23617W        W39511  16.089   8.601  10.962  0.4306  0.0051  0.2321
23618W        W39512  18.376  14.434   1.638 -0.0682  0.4676  0.1029
23619W        W39513  12.849   0.952  12.461  0.0834  0.0338  0.1317
23620W        W39514  11.593   7.820  10.710  0.0692  0.1166 -0.3383
23621W        W39515  15.031   6.165   1.473 -0.1435  0.1614  0.0705
23622W        W39516   8.082  15.436  13.180 -0.2336 -0.1102  0.2206
23623W        W39517  16.712  17.625  12.490 -0.2135 -0.0470 -0.0239
23624W        W39518   3.952  10.173  12.105  0.2346  0.1161 -0.1632
23625W        W39519  13.703  15.935   5.070 -0.0429  0.0654 -0.2074
23626W        W39520  18.492   1.979  13.212 -0.1492 -0.0578  0.1780
23627W        W39521  10.288  15.620  13.451 -0.2114  0.0148 -0.1918
23628W        W39522  16.389  16.387  13.387  0.0261  0.0512 -0.0855
23629W        W39523  17.934   2.594   2.901  0.0440 -0.0312  0.2579
23630W        W39524   3.085  16.255  14.614 -0.5038 -0.0908 -0.2625
23631W        W39525  12.536   5.002  12.755  0.0228  0.0433 -0.1507
23632W        W39526   2.276   6.800  12.268 -0.2544 -0.0145 -0.0205
23633W        W39527  12.572  10.056   1.355  0.0342 -0.1967  0.1052
23634W        W39528  18.153  14.883  12.898 -0.0489 -0.2108  0.0423
23635W        W39529   0.037  18.649  12.957  0.0416  0.0867  0.0892
23636W        W39530  11.539  17.786   2.595 -0.4103 -0.0074  0.2476
23637W        W39531   4.448   3.732   0.183  0.2031  0.4545  0.0156
23638W        W39532   0.203   4.468   4.131  0.3130  0.0448  0.2810
23639W        W39533   0.232   6.500   1.360  0.1892  0.1057  0.0301
23640W        W39534  18.082  17.118  14.643  0.0352 -0.5533  0.0393
23641W        W39535   2.041   2.557  15.199  0.4101  0.0276 -0.0552
23642W        W39536   8.488   8.651  11.525 -0.0261  0.1310 -0.0635
23643W        W39537   1.466   3.691   2.084 -0.1824 -0.1274  0.0287
23644W        W39538  13.660   7.735   5.004  0.2177 -0.2127 -0.1775
23645W        W39539   3.434   7.715  11.585 -0.0857  0.3014 -0.3361
23646W        W39540  14.004   6.480   0.242 -0.4282  0.1697 -0.0395
23647W        W39541   8.079  14.955  15.452  0.1837 -0.1843  0.0932
23648W        W39542  10.280   7.105   0.360  0.1059  0.1639  0.0558
23649W        W39543   1.152   8.274  11.024 -0.2252  0.2316  0.4044
23650W        W39544   5.954  17.041   0.134  0.0617  0.1373 -0.2983
23651W        W39545  15.583  12.545   5.359 -0.0405  0.0750  0.0471
23652W        W39546   0.582   3.938  11.954 -0.2307 -0.0914 -0.0316
23653W        W39547   8.982   7.780   3.786 -0.0809 -0.0904  0.0547
23654W        W39548   7.531  11.356  12.036 -0.1860 -0.1125 -0.0457
23655W        W39549  17.575   1.711  13.028  0.1387 -0.3216  0.0321
23656W        W39550   5.603  12.603  11.935  0.0303  0.0033  0.2982
23657W        W39551   3.265   0.068  10.984 -0.1949 -0.2708  0.1689
23658W        W39552   4.177  14.707   4.046 -0.0075  0.3586 -0.0489
23659W        W39553   4.128   1.237  10.575 -0.2937  0.2129 -0.0001
23660W        W39554  11.648  16.990  12.914 -0.1069  0.1716 -0.2045
23661W        W39555   8.619   1.435   1.874  0.0415 -0.0230  0.0458
23662W        W39556   1.710  15.630   4.322 -0.3342  0.0415 -0.1364
23663W        W39557   4.811   2.744   4.918 -0.0066 -0.1559  0.2196
23664W        W39558   5.064   1.270   3.568  0.0719  0.2397 -0.1190
23665W        W39559  17.745  14.640  14.087 -0.0041 -0.0591 -0.1836
23666W        W39560  17.572   2.217  10.656  0.0251 -0.0613 -0.0905
23667W        W39561  10.957  17.067   4.353  0.3542 -0.1748 -0.1519
23668W        W39562  16.752   1.051   4.378  0.0655 -0.1716  0.1134
23669W        W39563  12.526  12.931  10.515  0.1969  0.2558 -0.1224
23670W        W39564   6.439  16.009  15.197  0.4376  0.2034 -0.1762
23671W        W39565  12.080   0.077  13.094 -0.1473  0.1026 -0.0742
23672W        W39566   7.911  11.051   4.728 -0.2948  0.1986 -0.0319
23673W        W39567   7.265   5.376  11.749 -0.0820 -0.2224 -0.1747
23674W        W39568   5.818   7.316  12.298 -0.0717  0.0804 -0.2540
23675W        W39569  13.697  13.982  10.404  0.1537  0.2342 -0.2024
23676W        W39570  14.191  15.394   1.545  0.2580 -0.2669 -0.1195
23677W        W39571  11.093  11.530  11.809 -0.0768 -0.0235 -0.2309
23678W        W39572  10.528   1.159   1.788  0.0544 -0.6245 -0.3429
23679W        W39573   9.723   5.682   4.009  0.0600  0.1650 -0.2465
23680W        W39574  18.873  16.471   1.166  0.1875 -0.0096  0.0521
23681W        W39575  14.968   3.777  11.527  0.1258 -0.0972 -0.1645
23682W        W39576   6.968  18.659  14.298  0.2564 -0.0354  0.0187
23683W        W39577   2.591   0.196   3.735 -0.3149  0.0243  0.0257
23684W        W39578   3.024   0.483  10.461  0.3009 -0.0205 -0.3246
23685W        W39579  10.997  10.132  12.151 -0.1784  0.0628  0.3173
23686W        W39580  10.664  15.864   0.560  0.2218  0.0059 -0.3359
23687W        W39581  18.806  15.260   5.274  0.0130  0.0019 -0.0481
23688W        W39582  16.145  18.000  14.745 -0.1042 -0.0206 -0.0209
23689W        W39583   9.740   7.208   2.318  0.0831  0.1826  0.0411
23690W        W39584  10.747  17.768   3.222  0.1028  0.2523  0.0781
23691W        W39585  15.669  18.124   1.212 -0.0326  0.2003  0.2401
23692W        W39586  15.357  11.601   3.507 -0.3306 -0.0021 -0.0043
23693W        W39587  10.239   2.887  10.221 -0.1298  0.1125 -0.1195
23694W        W39588  11.166  16.231  15.057  0.1059  0.1164  0.1083
23695W        W39589   0.681   9.092  14.527  0.0708  0.1608  0.0390
23696W        W39590   7.892  17.347   0.125  0.0807  0.0660  0.1314
23697W        W39591  14.341  12.532   4.815 -0.0899  0.1540 -0.0852
23698W        W39592   8.956  14.821  15.413 -0.1101 -0.1830  0.0396
23699W        W39593  13.188   6.604  10.118  0.1280 -0.0894 -0.1090
23700W        W39594   9.530  15.561  14.242  0.0516 -0.2767  0.0462
23701W        W39595   2.878  16.423   3.097  0.1177  0.2171 -0.4698
23702W        W39596   2.413  13.136   3.116  0.0196 -0.0084 -0.1585
23703W        W39597   9.411   2.383  13.934 -0.1929  0.1747  0.0040
23704W        W39598   4.115   7.600  13.245 -0.1007 -0.0686  0.3977
23705W        W39599   1.946  18.752   1.140  0.3770  0.0578 -0.1088
23706W        W39600   6.226   3.202   1.130  0.0771  0.1840 -0.0308
23707W        W39601   5.912  10.326   4.482  0.1626  0.2090 -0.2537
23708W        W39602  15.803   2.040  13.710 -0.0197  0.0647  0.2639
23709W        W39603   5.678  13.953  10.407 -0.0274 -0.1635  0.0593
23710W        W39604   7.099  10.286  12.555  0.2328  0.1109  0.1131
23711W        W39605  16.589  12.460   1.785  0.2790  0.3917  0.1323
23712W        W39606   6.073  16.166  11.186 -0.0099  0.0152  0.0182
23713W        W39607   8.979   3.120  14.937  0.1745  0.0907  0.1802
23714W        W39608   7.269   0.791  11.982 -0.0242  0.0042 -0.3414
23715W        W39609  15.904   0.725  14.231 -0.4698  0.2873  0.0915
23716W        W39610  11.397  10.864   1.644  0.1524 -0.3179  0.2604
23717W        W39611   8.526   6.536  12.326 -0.1366 -0.0457 -0.2797
23718W        W39612  11.568   2.050   3.147  0.4067 -0.2177  0.0590
23719W        W39613  13.578  14.689   4.190  0.0507 -0.0356 -0.1127
23720W        W39614   0.518   2.741   3.714  0.0814 -0.1848 -0.1778
23721W        W39615  12.442   4.469  11.345  0.1701  0.1308 -0.0204
23722W        W39616   3.133   6.260  12.233 -0.0623  0.1751 -0.0968
23723W        W39617  18.444   8.616   5.454  0.1799 -0.0770  0.2538
23724W        W39618  14.808  12.867   1.689  0.2556 -0.0892 -0.1056
23725W        W39619  16.349   7.965  11.199  0.0142  0.4165  0.0922
23726W        W39620  11.458  16.737  13.687  0.4222  0.1749 -0.2348
23727W        W39621   1.862  15.827   0.032  0.2069 -0.1441 -0.1519
23728W        W39622   9.613   6.299   1.359  0.2675  0.2007  0.4656
23729W        W39623   7.590   3.384   3.025  0.3336 -0.0010  0.0405
23730W        W39624  16.877  11.723   5.284  0.3412 -0.3190  0.0697
23731W        W39625   1.542   4.535   4.338 -0.0844  0.0284  0.1374
23732W        W39626  12.956  14.663  13.850  0.0111  0.1844 -0.0755
23733W        W39627  16.447   0.679  13.130  0.0413 -0.0030 -0.1219
23734W        W39628   6.283  12.996  11.134 -0.0905 -0.2486 -0.1474
23735W        W39629   3.962  14.753   0.597 -0.0401 -0.1516 -0.2672
23736W        W39630   0.572  13.168   0.470  0.0607  0.0440  0.0484
23737W        W39631   1.890  18.701  11.577 -0.2881  0.1136 -0.1169
23738W        W39632   6.853   0.830   3.353  0.0168  0.0338 -0.0086
23739W        W39633  12.494   8.812   4.298  0.2511  0.5278 -0.1578
23740W        W39634   1.930  17.925  15.210  0.0629 -0.0356 -0.2610
23741W        W39635  16.610  18.648  15.366  0.0539 -0.0193  0.0433
23742W        W39636   1.598  10.630   2.850  0.0102 -0.1724  0.0254
23743W        W39637  10.324   1.162   2.215  0.2528 -0.3599 -0.2114
23744W        W39638  17.872   9.769  15.415 -0.0490 -0.0452 -0.0702
23745W        W39639   7.205  16.721  10.714  0.2050  0.1594 -0.1468
23746W        W39640   0.335   0.385   1.929 -0.0404 -0.1923  0.0530
23747W        W39641  10.919  14.417   1.008  0.0272  0.1420  0.3665
23748W        W39642   6.514  18.682  11.658 -0.1755 -0.0370 -0.1241
23749W        W39643   8.185  10.033   4.030 -0.0087 -0.0448  0.1083
23750W        W39644   7.907  18.739   4.757 -0.1335  0.2992 -0.0125
23751W        W39645   4.223  16.388  15.380 -0.1847 -0.4918 -0.1044
23752W        W39646   7.411  12.435   3.573  0.0452 -0.0384 -0.0608
23753W        W39647  10.094   4.640   1.635  0.0276  0.1181  0.2428
23754W        W39648  15.771  15.870   2.600 -0.0991  0.3366  0.2624
23755W        W39649  12.172   0.312   3.114  0.0459 -0.0950 -0.0347
23756W        W39650  13.432  18.672  13.595 -0.2459 -0.1051  0.0074
23757W        W39651   9.039   2.373  14.598  0.3675 -0.1234 -0.3410
23758W        W39652   3.058  14.325   5.996  0.1457 -0.2416 -0.1229
23759W        W39653  14.304   9.407  15.026 -0.0276 -0.1348  0.1763
23760W        W39654  12.663   7.143   0.241 -0.2915  0.0632 -0.5312
23761W        W39655  14.555  16.990   3.405  0.1638 -0.1219  0.0007
23762W        W39656  17.778   0.634   1.787 -0.1831  0.0561 -0.1421
23763W        W39657  12.939   3.449   1.174 -0.2037  0.1598  0.1564
23764W        W39658  15.807   6.634   2.620 -0.0383  0.0025 -0.1212
23765W        W39659   1.245   8.492  15.063 -0.2042  0.1234  0.0950
23766W        W39660   1.700   2.320  11.015 -0.3211 -0.2204  0.2257
23767W        W39661   9.056  11.094  14.868 -0.1333  0.0176  0.0671
23768W        W39662   4.188  17.386   4.609  0.2604  0.1444  0.1094
23769W        W39663   0.008   9.368   1.360  0.2101 -0.2297 -0.1203
23770W        W39664   9.046   5.509   3.843 -0.2234  0.2999 -0.1124
23771W        W39665  16.370  13.663  15.445  0.0387  0.1098 -0.0750
23772W        W39666   4.686  11.504   1.214  0.2876 -0.0727  0.0521
23773W        W39667   3.455  17.784   5.609 -0.2180  0.1029 -0.0986
23774W        W39668   9.184   4.384  12.693  0.0758 -0.2631  0.0428
23775W        W39669  17.747   8.428   4.286 -0.1138  0.0540 -0.1291
23776W        W39670   1.266   7.356   4.990  0.0590 -0.5728  0.4735
23777W        W39671  12.833   8.186  13.664 -0.0235  0.0530 -0.0807
23778W        W39672   5.804   0.710  14.588  0.0953  0.0266 -0.1205
23779W        W39673   1.131   9.490   1.773  0.1540  0.2677  0.1489
23780W        W39674   8.004   0.889  12.613  0.2243  0.2543  0.3660
23781W        W39675   4.227   5.327  12.407  0.1826  0.0709  0.1239
23782W        W39676  15.509   4.165   4.838 -0.1303  0.1018  0.0006
23783W        W39677  17.913   1.867  15.036  0.3075 -0.0172  0.0467
23784W        W39678   5.871   3.039  11.492 -0.1269 -0.1389 -0.0085
23785W        W39679   4.036  14.115   5.935  0.0678 -0.2891  0.1828
23786W        W39680  15.386  15.557   2.633 -0.1734 -0.2525 -0.2458
23787W        W39681  10.385  18.609  12.776 -0.1387  0.3286 -0.0995
23788W        W39682   3.161  17.514   1.945  0.1492  0.2109 -0.2488
23789W        W39683   4.031   2.995   0.448  0.1291  0.0201 -0.1342
23790W        W39684  14.585   5.910  12.005 -0.0812 -0.2589  0.0122
23791W        W39685  16.228   2.741  14.752 -0.1026 -0.1278  0.2537
23792W        W39686   5.650   6.305   3.143 -0.1253  0.0130 -0.0001
23793W        W39687   6.861  18.031  13.170 -0.1404 -0.3714  0.1117
23794W        W39688   8.835   3.615  12.324 -0.1139  0.1833 -0.3169
23795W        W39689  13.143   9.597   2.652  0.1617  0.0072  0.0138
23796W        W39690  17.338   8.755  11.803 -0.0551  0.0889  0.3442
23797W        W39691   3.778   9.889  10.810 -0.1507  0.0176 -0.0061
23798W        W39692   8.842   5.487   2.159  0.2313 -0.1677 -0.2311
23799W        W39693  13.279   6.055   3.638  0.3023 -0.1790  0.0233
23800W        W39694   2.042   2.131   0.713  0.0130 -0.1268  0.2600
23801W        W39695  13.272  13.773   2.065 -0.2642 -0.3392  0.2294
23802W        W39696   8.326   2.116   0.187 -0.0970 -0.1461 -0.0844
23803W        W39697   4.688   8.632  12.725 -0.1703  0.1727 -0.3081
23804W        W39698   0.655   5.567  10.909 -0.1337 -0.0577  0.1703
23805W        W39699   5.047   7.060  12.898 -0.1239 -0.2800  0.1103
23806W        W39700  11.750   1.090   3.518 -0.1579 -0.0861  0.2795
23807W        W39701  14.855   9.949  11.181 -0.4235 -0.1677 -0.0852
23808W        W39702   4.666   7.872   3.663 -0.1504 -0.1089 -0.0251
23809W        W39703   6.074  11.920   4.036 -0.1349  0.5090  0.1568
23810W        W39704   8.125  18.751  14.214  0.0309  0.0756 -0.0815
23811W        W39705   2.699   3.785  11.388  0.1460  0.0755 -0.0449
23812W        W39706   2.033   1.974   1.743  0.1642 -0.5174 -0.1834
23813W        W39707  17.420   1.424  11.528 -0.2508  0.0975  0.1146
23814W        W39708  17.585  14.099  10.399  0.1354 -0.0240  0.2691
23815W        W39709   0.914   0.420  10.511  0.1248 -0.2231 -0.2720
23816W        W39710  14.166  13.522   5.113  0.1638  0.1132 -0.0553
23817W        W39711  13.470   3.988   3.865  0.0313  0.0677  0.0302
23818W        W39712   4.468  17.979   1.609 -0.1397 -0.2146 -0.1964
23819W        W39713  14.248   3.393   2.694 -0.2281 -0.0913 -0.2774
23820W        W39714  17.271   6.742   4.636 -0.0041 -0.0560 -0.0529
23821W        W39715   5.304   8.037  13.033 -0.2753 -0.3335  0.1915
23822W        W39716   4.652   0.362   2.901  0.0518 -0.1424  0.2793
23823W        W39717   8.098  15.404   2.337 -0.1972 -0.1561  0.1459
23824W        W39718  16.470  16.857   2.407  0.0202  0.2719 -0.3695
23825W        W39719  16.845  14.603   5.126  0.3763 -0.0757  0.1696
23826W        W39720   4.992   6.068  11.716 -0.2737 -0.3183  0.0674
23827W        W39721  11.139  14.095  15.055 -0.1217  0.0040  0.1012
23828W        W39722   1.908  11.491  11.948 -0.1084 -0.1764 -0.0750
23829W        W39723  12.652   9.130   0.427  0.2069  0.0557  0.1279
23830W        W39724   7.338  16.811   1.313 -0.2840 -0.0218 -0.0971
23831W        W39725   2.363   6.482  10.927 -0.0946  0.1767 -0.2267
23832W        W39726   3.176  13.130  13.014 -0.0886 -0.0124 -0.4095
23833W        W39727  12.909  17.748   1.881 -0.0421  0.0180 -0.0198
23834W        W39728   9.818   2.895   1.277 -0.0562  0.0200 -0.0872
23835W        W39729   3.768   2.775   5.579 -0.0005 -0.1724 -0.1965
23836W        W39730  13.945  15.258   5.295 -0.2267 -0.1677  0.1524
23837W        W39731   1.566   1.069   5.181 -0.1189 -0.2247  0.4265
23838W        W39732  16.201   4.132  10.768 -0.0247 -0.1700  0.1256
23839W        W39733  15.853   3.577   4.679  0.0005  0.1798  0.2180
23840W        W39734  18.756  18.189  14.592  0.0031 -0.3323  0.1207
23841W        W39735  13.470  14.848   0.994  0.0494  0.4603  0.1416
23842W        W39736   7.167  16.981  15.458 -0.1635 -0.1435  0.4055
23843W        W39737  13.559   6.777   3.212 -0.1082 -0.1072 -0.0406
23844W        W39738   9.037   7.587   0.166  0.3710  0.0149  0.1361
23845W        W39739   3.368  12.838  11.316  0.1162  0.4877 -0.1889
23846W        W39740  18.534  10.857   4.390  0.0324 -0.0083  0.0425
23847W        W39741  11.071  13.857  12.330  0.0365 -0.1396  0.1699
23848W        W39742   9.625   3.851   1.105  0.1867  0.0127  0.2552
23849W        W39743  18.857   6.950  14.590 -0.0271 -0.0905 -0.1310
23850W        W39744  15.609  17.322  11.760  0.1737 -0.2094  0.1515
23851W        W39745  17.650  10.626   2.269 -0.0021  0.2691 -0.1427
23852W        W39746   4.996  18.702   1.321 -0.0064 -0.0506 -0.0163
23853W        W39747  10.277  18.074  14.457 -0.0017  0.0345  0.0164
23854W        W39748  16.723  14.650   6.403  0.1071 -0.0668 -0.0826
23855W        W39749   9.159   7.666   4.354  0.1530  0.0042 -0.2863
23856W        W39750  14.631   2.692  12.617 -0.1567  0.1245 -0.0402
23857W        W39751   3.362  12.843   0.183  0.0427  0.0086  0.3038
23858W        W39752   9.408  18.815   3.752  0.1773  0.2229 -0.1413
23859W        W39753   9.117   0.071  11.895  0.2137 -0.3460 -0.1696
23860W        W39754  11.831  12.788  11.522  0.3806 -0.1698  0.0436
23861W        W39755  16.044  17.187  15.182  0.1915  0.2771  0.3689
23862W        W39756   4.366   7.186  12.329 -0.3187  0.0113 -0.1966
23863W        W39757   1.040   5.807  12.203  0.2763  0.3037 -0.1365
23864W        W39758   9.132  11.885  13.681  0.1931  0.0213  0.0729
23865W        W39759  12.339   4.007  12.584  0.3104  0.2705  0.0699
23866W        W39760   9.896  15.406  11.239  0.1426  0.0842 -0.2688
23867W        W39761  16.570   6.629   2.275  0.0571  0.2479 -0.1148
23868W        W39762   4.706   8.372   3.074  0.0148 -0.0510  0.1559
23869W        W39763   2.328   8.240  12.740 -0.1887  0.3918  0.1288
23870W        W39764  13.046   3.338  11.424  0.1640  0.0118  0.3364
23871W        W39765   4.240  15.148   1.816  0.2374  0.0350 -0.0824
23872W        W39766  15.840   9.008   1.672 -0.1914 -0.0570 -0.0370
23873W        W39767   9.205   8.943  13.485 -0.4271  0.3517  0.0075
23874W        W39768  14.031   6.231   9.775  0.2726  0.2651  0.2815
23875W        W39769   4.954   8.550   4.180  0.2340  0.0307 -0.1478
23876W        W39770  15.245  13.965  12.985  0.1086 -0.1566  0.2286
23877W        W39771  10.766  14.032  13.356  0.0801 -0.1461  0.0338
23878W        W39772   2.048  12.904  11.577 -0.1997  0.1580 -0.0936
23879W        W39773  16.888   5.889   1.793 -0.3796  0.2214 -0.0736
23880W        W39774  10.495   5.030   0.380  0.0150  0.2422  0.0479
23881W        W39775   4.052   2.950   1.005  0.3238 -0.0593 -0.0501
23882W        W39776  13.848   6.314  11.928 -0.4542 -0.0741  0.2499
23883W        W39777   8.765   1.869  14.720  0.0813  0.1812 -0.0946
23884W        W39778  16.661   0.456   1.531  0.0082  0.3950 -0.5028
23885W        W39779   2.094  11.456   1.985  0.0818  0.0111 -0.1856
23886W        W39780   4.125  17.732  12.549 -0.1129  0.1294  0.3538
23887W        W39781   3.146   8.999  12.517  0.2109 -0.0453  0.0705
23888W        W39782   2.133  17.939   0.638  0.0367  0.1087  0.1111
23889W        W39783   9.039   9.932   0.599 -0.0869 -0.1577 -0.2117
23890W        W39784  15.913   8.066   1.920  0.0925  0.1836  0.2643
23891W        W39785  17.727   1.405  15.125 -0.2408 -0.0470 -0.0080
23892W        W39786   4.446   3.405   0.624 -0.1399 -0.0239 -0.0498
23893W        W39787   9.372   9.760  10.977 -0.2764 -0.0629 -0.2010
23894W        W39788   4.629  12.969   0.567  0.0531  0.1041  0.0223
23895W        W39789  12.079  14.080  13.728  0.0164 -0.3140 -0.0451
23896W        W39790   7.564  13.904   0.220 -0.1260 -0.0311  0.0716
23897W        W39791  12.097   0.748   3.387 -0.1253  0.1771 -0.0930
23898W        W39792   3.999  14.389  10.816  0.0606 -0.0529 -0.0121
23899W        W39793  17.604  11.600  13.890  0.0807  0.1525 -0.2449
23900W        W39794  14.086   5.205  11.551  0.0917  0.2571 -0.0137
23901W        W39795   0.086   3.025   2.010 -0.0320  0.0315  0.4051
23902W        W39796   2.537  10.568   2.715 -0.1945 -0.1579 -0.1421
23903W        W39797   7.175  14.164   3.421 -0.0735 -0.0928 -0.0888
23904W        W39798  12.139  14.212   2.815  0.1137  0.0472  0.0196
23905W        W39799   4.372   9.127  14.975 -0.0846 -0.0967  0.0876
23906W        W39800   3.968   2.366  11.854 -0.0444 -0.0374 -0.3822
23907W        W39801  15.886  16.902   0.865 -0.0752  0.1247  0.1698
23908W        W39802  11.385   6.112  12.637  0.1448  0.4375  0.0393
23909W        W39803  12.927  15.510  12.373  0.2161  0.2264 -0.2755
23910W        W39804   2.650  13.810  10.447 -0.3060  0.0745  0.2346
23911W        W39805   3.555   3.623   4.951 -0.1011  0.4972  0.3922
23912W        W39806   0.318  11.998   0.293  0.1432  0.0948  0.0527
23913W        W39807  17.292  16.260   0.755  0.0656  0.0897  0.2451
23914W        W39808   4.326   9.917  13.536  0.2519  0.1851 -0.1829
23915W        W39809  17.347   2.226  11.774  0.0022 -0.2058 -0.0666
23916W        W39810   3.533   9.701   4.401 -0.1042 -0.4022  0.2530
23917W        W39811   2.088   3.726   0.390  0.2050 -0.3449  0.0009
23918W        W39812  18.174   7.924   0.942  0.2111  0.1612 -0.3668
23919W        W39813  15.643   6.356   4.908  0.0747  0.2329 -0.2771
23920W        W39814   4.476  16.612   0.246 -0.2144 -0.0418 -0.0711
23921W        W39815   5.818   8.203   0.320 -0.0187  0.1092  0.0183
23922W        W39816  14.757  16.001  11.022 -0.1348 -0.3845  0.2350
23923W        W39817  13.170  10.184  11.869 -0.1906  0.2755  0.0213
23924W        W39818  12.480   3.518  14.483  0.0932 -0.0286 -0.3116
23925W        W39819   1.154  14.752   3.085 -0.1596  0.0602 -0.0491
23926W        W39820  16.407   0.131   0.757 -0.0957  0.1210 -0.1639
23927W        W39821  10.968   5.233  10.790 -0.3626 -0.3011 -0.1284
23928W        W39822   2.124  15.154   4.916 -0.2671  0.0372 -0.0260
23929W        W39823   4.051  13.543  14.290  0.0821  0.0895 -0.2132
23930W        W39824   5.722   4.956  13.975 -0.1962  0.1366 -0.1257
23931W        W39825   2.677   3.135   0.432 -0.0506 -0.2352  0.0745
23932W        W39826   9.992   2.086  15.400  0.2508  0.0557  0.0396
23933W        W39827   5.544  14.025  12.996  0.3597 -0.0513 -0.0311
23934W        W39828   3.176   2.966  10.882 -0.0687  0.1184 -0.1913
23935W        W39829  11.113  17.351   2.902 -0.0512 -0.0039 -0.0804
23936W        W39830   4.993   7.818   0.133 -0.1573  0.0897 -0.0213
23937W        W39831   4.819  15.753   2.241  0.0790  0.1076 -0.1829
23938W        W39832  12.396   4.482  11.851 -0.0179  0.0225  0.2936
23939W        W39833  15.650  10.516   4.967  0.0633 -0.0437 -0.2540
23940W        W39834   7.552  12.460   2.587 -0.0289  0.0280  0.0517
23941W        W39835  11.474   2.887  11.634 -0.0274 -0.1852  0.0784
23942W        W39836  18.845  14.022   3.325  0.0560  0.1903  0.0784
23943W        W39837   0.372  16.130   4.080  0.0083 -0.0922 -0.2879
23944W        W39838   9.578   1.971  12.338  0.1984 -0.0109 -0.0005
23945W        W39839  16.755   1.747   2.395 -0.0909 -0.0518 -0.0329
23946W        W39840   9.457   7.434   1.636  0.0306  0.0402 -0.1287
23947W        W39841  18.706  17.766   0.445  0.1407  0.2049 -0.0596
23948W        W39842  17.162   3.828  12.455 -0.1518  0.1724 -0.0622
23949W        W39843  17.956  18.125   5.862 -0.1729 -0.0834  0.1094
23950W        W39844   4.337   1.086  14.751 -0.1179  0.2746 -0.0781
23951W        W39845   0.892   5.294  14.286  0.0312 -0.0504 -0.0746
23952W        W39846  11.838   5.464  11.709 -0.0080  0.2157 -0.3355
23953W        W39847  16.706   6.364  15.438 -0.3139  0.0470 -0.0846
23954W        W39848   9.738   4.681   5.413 -0.3267 -0.0140  0.0022
23955W        W39849   9.419   4.771   3.165 -0.0858  0.0671  0.0789
23956W        W39850  13.640  11.093  10.621 -0.0200 -0.0239  0.2626
23957W        W39851   8.417   9.869   1.407 -0.2123  0.1313  0.0127
23958W        W39852  12.747   4.255   2.686  0.0648 -0.2326  0.1079
23959W        W39853   9.361   3.302  13.728  0.2615 -0.2213  0.1384
23960W        W39854  10.334  13.232   4.377 -0.1792 -0.2169  0.0219
23961W        W39855   2.309  14.057  14.741 -0.1452  0.2698 -0.0624
23962W        W39856   7.091   0.419  13.521 -0.2721 -0.0788  0.0515
23963W        W39857   7.279  10.994  13.954 -0.1582 -0.0554 -0.1415
23964W        W39858   2.487   5.371   2.668 -0.0597 -0.2460  0.1101
23965W        W39859   2.031   9.945   1.003 -0.0874  0.0388  0.1677
23966W        W39860  12.024   4.421   4.786  0.1097  0.1672 -0.0037
23967W        W39861   6.060   8.272  14.418 -0.3878 -0.1458  0.0785
23968W        W39862  11.052   8.134   3.215  0.1890 -0.3414  0.3451
23969W        W39863   4.124   6.879   1.044 -0.0002  0.2739 -0.0546
23970W        W39864  18.099   6.637   3.953 -0.2266 -0.0040 -0.0908
23971W        W39865   4.998  11.974   5.488 -0.2896 -0.1007  0.3466
23972W        W39866   3.912  10.518  14.712  0.0739  0.0682  0.0246
23973W        W39867  11.216  17.418  14.690 -0.1514 -0.1324 -0.1170
23974W        W39868   2.979  10.080   1.978  0.2568 -0.3802 -0.1758
23975W        W39869   1.981  10.605   3.579 -0.0450  0.2031  0.2849
23976W        W39870  10.271  11.705   1.712 -0.3529 -0.0313  0.0059
23977W        W39871  12.882   9.910   5.243  0.1913 -0.0203 -0.2302
23978W        W39872   0.699  15.790  14.523  0.0891  0.0614 -0.1781
23979W        W39873  14.710   4.823   0.379  0.3809  0.0981 -0.0976
23980W        W39874   4.386   0.347   2.189  0.1553 -0.0775 -0.3520
23981W        W39875   5.685  17.296   3.450 -0.1500  0.1913 -0.0698
23982W        W39876   3.467   5.977  15.442 -0.1667  0.3200  0.2868
23983W        W39877   2.112   5.017   1.615  0.0196  0.2880  0.1033
23984W        W39878  15.385  18.718  12.102  0.1097  0.0831  0.2002
23985W        W39879  12.521   2.884   2.450  0.0751  0.2046  0.1077
23986W        W39880   7.010   9.273   4.097  0.0574  0.1665  0.0468
23987W        W39881   6.476   5.140  14.375 -0.2766  0.0928  0.2847
23988W        W39882  14.514   4.871   2.595  0.1913 -0.0456  0.1840
23989W        W39883   0.011   1.991   2.916  0.0968 -0.0507  0.0591
23990W        W39884  13.806   8.376   0.672 -0.0819 -0.1973 -0.1801
23991W        W39885   4.910   8.696   2.698  0.0507  0.3493 -0.2604
23992W        W39886  11.464   5.208   0.588  0.1917 -0.0324 -0.0278
23993W        W39887   8.037  15.633  15.136 -0.2128  0.2460 -0.1288
23994W        W39888  16.560   7.373  11.147  0.5022 -0.3733 -0.2039
23995W        W39889   3.869  16.856  13.540 -0.0569  0.3568  0.0741
23996W        W39890   2.717  10.765  12.055 -0.1969  0.0855  0.2587
23997W        W39891   2.702  14.122   5.603  0.1591  0.0685 -0.0630
23998W        W39892   8.549  17.478  14.111  0.2004  0.3119  0.2379
23999W        W39893  15.934   4.253   1.011  0.1259  0.2404  0.0713
24000W        W39894  11.993  10.597   4.057  0.4190 -0.0474  0.0846
24001W        W39895   6.239  17.222  12.816  0.0583 -0.0357 -0.1128
24002W        W39896   5.317   2.507  12.202  0.1871 -0.3552  0.2883
24003W        W39897   3.156   8.103  12.911 -0.0136  0.3527 -0.0304
24004W        W39898  10.207  13.608   3.574  0.0957 -0.0860  0.2805
24005W        W39899   9.890   3.384  13.928  0.0592 -0.4733 -0.1967
24006W        W39900   9.899  17.710   5.235  0.0055 -0.1407  0.4435
24007W        W39901   3.477  11.175  11.857  0.0481 -0.0120 -0.1557
24008W        W39902   9.009  17.782   2.042  0.0311  0.3583 -0.0355
24009W        W39903   2.915   2.467  11.705  0.0222 -0.0102  0.0646
24010W        W39904   9.772   1.262   1.372  0.0550  0.0328 -0.0628
24011W        W39905   5.346   9.213   4.769 -0.0193  0.0084  0.1793
24012W        W39906   0.722   2.089   0.271 -0.2569 -0.0810  0.2887
24013W        W39907  15.480  14.513  10.166 -0.0092  0.0840 -0.2436
24014W        W39908  11.974  17.359   5.057 -0.1784  0.3273  0.2786
24015W        W39909   8.794  14.031   3.873  0.2999 -0.0324  0.1222
24016W        W39910   3.444   6.414  11.855 -0.0301  0.1493  0.0620
24017W        W39911   1.681  13.967  13.560  0.1077 -0.1841 -0.0750
24018W        W39912   7.863  17.318  10.654  0.0251 -0.1253  0.0806
24019W        W39913  18.149  14.898  14.436  0.1429  0.3627 -0.0828
24020W        W39914  14.952  14.872   0.289  0.0626  0.4137  0.1287
24021W        W39915   4.119   7.715  14.131 -0.1425  0.3316 -0.0285
24022W        W39916  14.631  14.723  14.834  0.1110  0.1796 -0.3445
24023W        W39917  14.018  16.294  12.143  0.0315  0.2560  0.2847
24024W        W39918  15.100  13.466   3.249  0.2145 -0.2014  0.3286
24025W        W39919   9.850  12.626  12.195 -0.0671 -0.2551  0.1660
24026W        W39920  17.019   7.470   4.990  0.1238 -0.0012 -0.4514
24027W        W39921  15.172  11.793  12.412 -0.1886  0.2675  0.1534
24028W        W39922  12.912  18.279   6.180 -0.0006  0.0481  0.0001
24029W        W39923   6.508  10.950  10.114  0.0302  0.0743 -0.3173
24030W        W39924   4.818   0.917   5.556  0.0581  0.1301 -0.1675
24031W        W39925   3.874  10.488   1.195  0.0973  0.0238 -0.2935
24032W        W39926   8.046   6.441   3.916  0.0054  0.3185  0.1261
24033W        W39927  12.894  17.182   4.772 -0.0856 -0.0457 -0.2121
24034W        W39928  17.236   7.654  14.696  0.0306  0.1531 -0.0721
24035W        W39929  18.492  12.696   1.812  0.0587 -0.4480 -0.1169
24036W        W39930   9.709   7.673   2.047 -0.4553 -0.0727  0.1089
24037W        W39931   5.303   3.756  13.132  0.0285  0.0657 -0.0039
24038W        W39932   2.275  11.722   2.392 -0.0325 -0.0179 -0.0611
24039W        W39933  17.185   0.305  10.433  0.0413  0.0219  0.6168
24040W        W39934   2.801   5.969   5.252 -0.2737  0.0296 -0.0347
24041W        W39935   6.871  11.037  11.312 -0.1874  0.3221 -0.2373
24042W        W39936  13.549   3.334  15.225 -0.1188 -0.2454  0.0374
24043W        W39937   5.697   1.434  13.511  0.0213 -0.0107 -0.0082
24044W        W39938  14.624  10.945  14.861  0.1661 -0.3614 -0.0246
24045W        W39939   8.928   6.146  13.719 -0.1440 -0.0870  0.0593
24046W        W39940  17.614   7.473  13.548  0.1698  0.0755  0.3587
24047W        W39941  14.469   1.191  13.384  0.0483  0.0253  0.0057
24048W        W39942   5.794   2.443   1.316 -0.3589  0.2155  0.2385
24049W        W39943   6.359   2.868   3.295  0.1346  0.3591  0.0819
24050W        W39944   7.990  15.289   4.975  0.3655 -0.2184  0.0494
24051W        W39945   5.004   4.053   1.927 -0.0268 -0.0339 -0.3082
24052W        W39946  18.553  14.330  12.321 -0.2469  0.2010 -0.3270
24053W        W39947  15.229  11.980   4.412 -0.2374  0.0496 -0.2440
24054W        W39948  15.810  15.137   5.048  0.1468  0.0065  0.1246
24055W        W39949   8.073   0.785  14.450 -0.0367  0.1029  0.0663
24056W        W39950  17.370   4.133   1.724  0.1451 -0.2472  0.0737
24057W        W39951   9.111  12.550  14.913 -0.1440 -0.0341  0.0750
24058W        W39952  16.069   2.196  10.643  0.1486 -0.2434  0.2224
24059W        W39953  18.331   6.702   0.035 -0.2313 -0.1231 -0.2063
24060W        W39954   9.230   4.705   0.024  0.0213  0.0664 -0.0163
24061W        W39955   6.401   6.511   2.750 -0.0412  0.1748 -0.0540
24062W        W39956  16.267  14.014   2.299 -0.0609  0.1038  0.0363
24063W        W39957  10.072  11.379   2.117 -0.0611  0.1809 -0.1661
24064W        W39958  10.048   4.324   0.535 -0.2650 -0.0135  0.0456
24065W        W39959   5.768   5.809   3.125  0.1141 -0.2854 -0.2707
24066W        W39960   6.966   5.792   2.237  0.0258 -0.1662 -0.1996
24067W        W39961   3.259   2.061   2.704  0.0764  0.1497  0.1332
24068W        W39962   2.756  14.087  14.488  0.1211  0.0816  0.1560
24069W        W39963  14.820  11.830  10.624  0.1019  0.0679  0.0425
24070W        W39964   1.964   7.188  12.348  0.1953  0.0141 -0.2604
24071W        W39965   8.794   0.568   3.330 -0.1907 -0.0693  0.3144
24072W        W39966  17.395  15.098   2.222  0.1155 -0.0608  0.1001
24073W        W39967  10.055   9.868  13.262 -0.1686  0.2922  0.1601
24074W        W39968   0.322   5.461   0.624 -0.1038 -0.2003  0.0458
24075W        W39969  10.505  15.777   2.109  0.0968 -0.2533 -0.0814
24076W        W39970   1.659   6.380   1.630 -0.1657  0.0426 -0.1201
24077W        W39971   1.442   5.423   2.357 -0.0449  0.2585 -0.1380
24078W        W39972   6.712   7.959  14.897  0.1613 -0.1291  0.1511
24079W        W39973   8.537  16.754  13.164 -0.1522 -0.2107 -0.0913
24080W        W39974   1.769   8.035   5.037  0.0688  0.2074  0.0018
24081W        W39975  10.742   9.255   5.050  0.0610  0.0720  0.0200
24082W        W39976   7.758   1.986  14.608 -0.0788 -0.0116  0.0025
24083W        W39977   9.351  14.717   2.040  0.0249  0.0227  0.0559
24084W        W39978   9.277   4.062   1.574  0.2474  0.1850 -0.2213
24085W        W39979   2.304   5.331   2.071 -0.0477 -0.0108 -0.2366
24086W        W39980   9.100   9.567   4.480  0.0856 -0.0215 -0.1628
24087W        W39981   1.123   0.208  12.170 -0.1399  0.0049 -0.2817
24088W        W39982   9.851   7.595   5.964  0.1452  0.0224 -0.0912
24089W        W39983   8.039   4.168   0.810  0.0628  0.3655  0.1382
24090W        W39984  15.588  14.784   4.823  0.1590  0.1375  0.2716
24091W        W39985   2.767  18.382   2.184 -0.1148 -0.1186  0.5176
24092W        W39986  15.336   0.483   1.569  0.0352  0.0833 -0.1659
24093W        W39987   6.531   2.481   1.738 -0.0884 -0.0280 -0.3277
24094W        W39988   6.887   8.934   4.436 -0.0522  0.1326 -0.0675
24095W        W39989   0.341   5.239   4.631  0.1529  0.2201  0.0499
24096W        W39990  12.555  12.415   4.221  0.3337  0.2729 -0.0647
24097W        W39991   0.593  18.281   4.682  0.0455 -0.4717 -0.2431
24098W        W39992  10.277  16.212   0.519  0.2719 -0.1119  0.1961
24099W        W39993  11.136  11.758   2.053  0.1631  0.1158  0.1866
24100W        W39994   6.815  18.003   0.340  0.2146  0.0666 -0.2371
24101W        W39995  14.084   8.258  11.908 -0.0914  0.1845  0.0653
24102W        W39996   6.476   3.013  15.205  0.0092 -0.0902 -0.1466
24103W        W39997  16.411  17.210   5.103 -0.0351 -0.3962  0.1878
24104W        W39998   5.957  11.933   0.506  0.2099 -0.1411  0.1864
24105W        W39999   8.773   3.247   2.520 -0.2338 -0.2774  0.1248
24106W        W40000  13.103   2.447  11.497  0.2799  0.1142 -0.0560
24107W        W40001  11.739  17.001  13.379 -0.1789 -0.2994  0.2174
24108W        W40002   0.734   3.328   3.885  0.0478 -0.0531 -0.1591
24109W        W40003  14.237   4.799  10.882 -0.1692 -0.2658 -0.5469
24110W        W40004   1.721  10.436  11.182 -0.2749  0.0723  0.0952
24111W        W40005  16.482   5.789   1.496  0.0753 -0.1286 -0.0892
24112W        W40006   3.420  10.804   0.271 -0.0376 -0.2337 -0.1560
24113W        W40007  16.446   7.905   2.830 -0.0086  0.2492  0.0156
24114W        W40008   9.899  14.713   6.124 -0.0550 -0.1058  0.2271
24115W        W40009   6.570   1.634  15.453  0.2887 -0.1166  0.0273
24116W        W40010   0.922  18.743   3.602  0.0312  0.0882  0.1119
24117W        W40011  15.006  12.043  11.982 -0.0313  0.0698  0.1765
24118W        W40012  17.747   1.422   1.010 -0.0294 -0.0599  0.2357
24119W        W40013  14.701   8.973   1.421  0.0321  0.0280 -0.3367
24120W        W40014  16.440   6.828   0.420  0.0793  0.0977 -0.1391
24121W        W40015  16.294  16.319   0.112  0.5386 -0.1688  0.0669
24122W        W40016  13.278   5.657   5.913  0.2582 -0.2994 -0.0318
24123W        W40017   6.021  11.402  12.765  0.3845 -0.0883 -0.2858
24124W        W40018   5.454   8.317  12.104  0.1591  0.1500  0.1315
24125W        W40019   0.001   2.242  14.210 -0.1469  0.3852 -0.1530
24126W        W40020   7.203   5.455   3.694 -0.0570 -0.0919  0.0066
24127W        W40021  18.877  16.554  11.431 -0.0117 -0.2921  0.0220
24128W        W40022   9.102  14.827   1.591 -0.2927  0.0612 -0.2225
24129W        W40023   8.123   3.337   3.352 -0.1329  0.1908  0.5194
24130W        W40024  14.485  17.945   1.178  0.0274  0.0640 -0.3062
24131W        W40025   1.541   1.924   2.996  0.2000  0.1758 -0.0782
24132W        W40026   5.969   7.260   0.127  0.0202  0.1890 -0.0446
24133W        W40027   2.431   3.860  11.751 -0.0017  0.0813 -0.2345
24134W        W40028  18.081  10.930  11.057 -0.3050 -0.0386 -0.1352
24135W        W40029   8.193  12.965  15.419 -0.0988 -0.3902  0.2394
24136W        W40030  10.860   2.709  14.452 -0.1937  0.0106 -0.2958
24137W        W40031   7.832  13.731  12.830 -0.0118  0.1793  0.2331
24138W        W40032  16.993  13.007   3.622  0.0810 -0.3948 -0.1369
24139W        W40033  16.052  18.766   0.087  0.3215  0.0721 -0.4468
24140W        W40034   2.617   0.089   5.261 -0.1572  0.1353  0.0741
24141W        W40035  11.234   3.958   0.009 -0.2941  0.1674 -0.2126
24142W        W40036   8.677   4.140   4.647 -0.2346  0.0937 -0.1973
24143W        W40037  14.279  15.057  13.081  0.0382 -0.0056  0.0957
24144W        W40038   0.288  15.330   2.797 -0.0310 -0.1901 -0.0524
24145W        W40039   2.435   4.750   1.353 -0.1476 -0.0254 -0.2432
24146W        W40040  15.924   6.153   3.343 -0.4193  0.0014 -0.0009
24147W        W40041   6.938   3.540   1.501 -0.0058 -0.1559  0.3210
24148W        W40042  16.704   8.593   1.422 -0.3686  0.0270 -0.1608
24149W        W40043  12.939   2.968   3.039  0.0594 -0.0550  0.0241
24150W        W40044  10.563   5.782   3.981 -0.1058  0.2105 -0.0734
24151W        W40045   8.792   6.617  13.283 -0.0840 -0.0873  0.1825
24152W        W40046   2.599   1.788  15.357 -0.0451  0.0562 -0.1112
24153W        W40047   4.287  16.389   1.704  0.0102  0.1774  0.2641
24154W        W40048   5.251   3.287  11.864  0.1658 -0.0083  0.1627
24155W        W40049  13.759   2.585  10.913 -0.0401  0.0127  0.0059
24156W        W40050   3.059   2.707  14.246 -0.1218  0.1490 -0.1015
24157W        W40051   6.426   0.124  11.212  0.2919  0.1612  0.1206
24158W        W40052  15.018  13.052  11.627 -0.2282 -0.1011 -0.2034
24159W        W40053  12.854   0.977  13.609 -0.0430  0.2403  0.1421
24160W        W40054  11.559  14.323   0.321  0.0343  0.4631  0.2328
24161W        W40055   7.538  11.374   1.596 -0.0578  0.2246 -0.0895
24162W        W40056  16.774  17.666   3.923 -0.1554  0.0374 -0.1765
24163W        W40057  15.360  16.280   3.843 -0.2445 -0.2673 -0.2771
24164W        W40058  12.111  11.832   4.136 -0.3669 -0.2115  0.4246
24165W        W40059   1.057  11.775  11.608  0.0175 -0.1282 -0.1195
24166W        W40060   7.263   5.616   1.541 -0.0078 -0.4052 -0.0174
24167W        W40061  15.142   3.645  11.082  0.2001  0.1118 -0.0989
24168W        W40062  15.263  13.816  14.718 -0.0737 -0.3194  0.0062
24169W        W40063  10.323   6.811  15.441  0.2117  0.4118 -0.5711
24170W        W40064  11.841  16.913   1.725  0.4928 -0.1353  0.0582
24171W        W40065  17.204  12.713  11.487 -0.1972 -0.1374 -0.2445
24172W        W40066   6.846  11.366   5.550  0.1557  0.0367  0.1019
24173W        W40067   2.335   8.222  10.759 -0.2150  0.1294 -0.0665
24174W        W40068   3.224  12.064  10.793  0.2114  0.4294  0.0305
24175W        W40069   9.226  10.107   4.298  0.2173  0.0161 -0.0641
24176W        W40070  12.081   9.613   5.323 -0.2394  0.0208  0.2389
24177W        W40071  13.186  12.634  15.079  0.0470  0.0769  0.2078
24178W        W40072   2.470   6.528   4.536 -0.0135  0.0115 -0.0587
24179W        W40073   3.715  14.238  14.748 -0.5013  0.0776 -0.1626
24180W        W40074   5.754   4.085  15.065  0.0355  0.0420 -0.2041
24181W        W40075  12.085   8.709   5.296  0.0855 -0.0554  0.1038
24182W        W40076  11.456   3.191   4.579  0.0452  0.0782 -0.1064
24183W        W40077   9.401   7.984  13.891  0.0985  0.2005  0.1695
24184W        W40078   3.080   8.988  15.159 -0.1687 -0.1850 -0.0874
24185W        W40079  12.574   5.748   2.940  0.1083 -0.0590 -0.2254
24186W        W40080   7.469   2.311   4.766  0.0663 -0.1095  0.0175
24187W        W40081  16.727  14.674   0.916  0.2841 -0.0844  0.3425
24188W        W40082  10.442   6.426   3.687 -0.0380  0.0217 -0.0903
24189W        W40083  16.409  14.183   3.941 -0.0159 -0.0368  0.0939
24190W        W40084  18.499   8.124   0.302 -0.0783 -0.0374  0.0031
24191W        W40085   7.960  18.073  12.414  0.0066  0.0901  0.0911
24192W        W40086   3.998  18.215  11.344 -0.1750 -0.1531  0.0805
24193W        W40087   6.673  11.041  14.657 -0.1192  0.0733 -0.1024
24194W        W40088   4.693   8.545  15.144  0.1955  0.1479  0.0667
24195W        W40089  15.459   7.741   0.741  0.1088  0.3114  0.3316
24196W        W40090   5.010  17.766  12.566 -0.0395  0.0427  0.0622
24197W        W40091  17.034   6.916   2.310 -0.2220 -0.0091 -0.0917
24198W        W40092   8.066  17.311  12.570  0.1237 -0.4212  0.0325
24199W        W40093   8.731  11.726   5.208 -0.3094 -0.1329  0.0600
24200W        W40094   9.666  12.733  14.882 -0.1153 -0.2218 -0.0815
24201W        W40095  15.288  14.652  14.518  0.0822  0.0796 -0.4032
24202W        W40096   3.337   6.139  10.783  0.0025 -0.1504 -0.1906
24203W        W40097  13.190  17.296   3.372 -0.2184  0.1369 -0.1173
24204W        W40098   8.256   6.608  14.032  0.0522 -0.2024  0.4865
24205W        W40099   4.213  12.245   0.833  0.1926 -0.0480 -0.2389
24206W        W40100  10.313   9.255   5.455  0.1975  0.1618  0.0569
24207W        W40101  10.234  18.574   2.520 -0.2755 -0.0039 -0.1422
24208W        W40102   9.735   0.192   4.641 -0.0185  0.3492  0.0449
24209W        W40103   1.845  10.855   1.577 -0.0746  0.0273 -0.0078
24210W        W40104   0.601   7.049   2.686 -0.1471  0.0769  0.0356
24211W        W40105   9.171  11.352  11.482  0.0744 -0.0567  0.1701
24212W        W40106   0.454   5.761   1.211  0.1866 -0.0067 -0.0856
24213W        W40107  11.894  15.424   2.206  0.2564  0.0594  0.0544
24214W        W40108   3.358   1.698   2.326  0.0645 -0.4377 -0.1675
24215W        W40109   9.465  12.619   4.486 -0.0469  0.1358 -0.0886
24216W        W40110  13.504  15.022   0.557 -0.1078  0.0657  0.1502
24217W        W40111  10.065  11.518  13.303 -0.2194  0.2708 -0.0284
24218W        W40112  15.210  18.816  13.864 -0.1069  0.0944 -0.1345
24219W        W40113   8.977   5.767  12.516 -0.4051 -0.1566  0.1262
24220W        W40114   2.671   2.128   5.590  0.0579  0.0548  0.3814
24221W        W40115   1.745  14.756   0.175  0.2466  0.3302 -0.1797
24222W        W40116  10.261  13.732  14.218  0.0856 -0.0208 -0.0781
24223W        W40117   8.135  10.088   5.345  0.0150 -0.0074  0.1187
24224W        W40118  12.430   9.715   5.653 -0.2803  0.1191 -0.1035
24225W        W40119   0.061  13.110   0.304 -0.0248  0.1403 -0.2424
24226W        W40120   8.868  16.138   1.860  0.0537 -0.0603 -0.2366
24227W        W40121  13.854   1.812  11.781  0.0484 -0.3493  0.1437
24228W        W40122  15.394   6.962  14.005  0.0254  0.3546  0.1070
24229W        W40123  10.192   9.560  11.195 -0.2034  0.0049  0.1179
24230W        W40124   2.712   7.949  10.724 -0.2057 -0.1241 -0.1489
24231W        W40125  18.467   3.976   0.769 -0.1177  0.2117 -0.1352
24232W        W40126  18.079  12.855   1.536 -0.1725 -0.0796  0.0339
24233W        W40127  15.230   7.344   4.830 -0.1066 -0.0303  0.0717
24234W        W40128   0.230  11.081   2.802 -0.1433 -0.2542 -0.0114
24235W        W40129   9.642  15.804  12.685  0.5081 -0.1034  0.1814
24236W        W40130   4.966  14.432  12.731 -0.0450  0.1657  0.0570
24237W        W40131   2.015  12.924   1.836 -0.1076 -0.2399 -0.0905
24238W        W40132   6.935  13.732   2.072 -0.1992  0.1492 -0.0479
24239W        W40133   4.876   9.054   0.395  0.0242 -0.0687  0.3138
24240W        W40134   5.830  17.026  14.559  0.4080 -0.0409 -0.1722
24241W        W40135  18.568  14.730  13.894  0.3130 -0.1707  0.0724
24242W        W40136  12.489  12.856   1.296 -0.0419  0.1188 -0.1498
24243W        W40137  14.304   2.359  12.846  0.0031 -0.2483 -0.5157
24244W        W40138  15.467   2.931  12.462  0.4918 -0.4476 -0.0080
24245W        W40139   7.633   9.425   1.636  0.0240 -0.1802  0.1349
24246W        W40140  18.448   5.243  13.639 -0.2082  0.1941 -0.3511
24247W        W40141   6.813  13.287   1.969  0.3741 -0.0463 -0.1942
24248W        W40142   0.754   5.967   1.568 -0.1001 -0.3857  0.0888
24249W        W40143   8.817   1.103  15.179  0.3120 -0.1816  0.0668
24250W        W40144   7.351   5.166  11.286 -0.4844 -0.4366  0.1057
24251W        W40145  17.502  18.766   4.187  0.0081  0.3759 -0.1866
24252W        W40146  12.270  12.601  15.113 -0.1255  0.2344 -0.4106
24253W        W40147  18.024   5.573  12.176  0.0993 -0.0133 -0.0179
24254W        W40148   7.856  11.973  14.493 -0.0020 -0.0736  0.3253
24255W        W40149  14.552   1.394   2.631  0.0822 -0.2900 -0.1207
24256W        W40150  12.552  16.682  12.973 -0.2716  0.0518  0.3156
24257W        W40151  13.068  18.503  11.497  0.4036 -0.2024 -0.1539
24258W        W40152   6.496   4.991   5.418 -0.0382 -0.0093 -0.0292
24259W        W40153   5.892   9.307   4.186  0.0483  0.1767 -0.1699
24260W        W40154  17.261   9.429   0.487  0.1151  0.0418  0.1072
24261W        W40155  17.616   0.047   5.475 -0.1486  0.2025  0.1003
24262W        W40156  17.491   4.030  14.789 -0.1649 -0.0729 -0.0353
24263W        W40157   3.394   1.882   1.757 -0.3069 -0.1214  0.2505
24264W        W40158   5.377  13.102   3.006  0.0563 -0.0681  0.3237
24265W        W40159   5.617   8.179  14.078  0.1237 -0.0685  0.0136
24266W        W40160   9.049  11.409   2.366 -0.2125  0.1087  0.1059
24267W        W40161  13.106   9.780  14.877  0.0935  0.2270 -0.3958
24268W        W40162  17.824   8.558   0.683  0.1778 -0.0374 -0.2198
24269W        W40163  14.226  11.784  11.877 -0.4203 -0.2214 -0.0740
24270W        W40164  12.895   9.863  11.664  0.2703 -0.1671  0.2280
24271W        W40165   1.753   1.285  13.905 -0.0947  0.0827 -0.1045
24272W        W40166   3.699   6.027  11.981  0.1963  0.2608 -0.1293
24273W        W40167  12.203   6.577   5.803  0.1942  0.2115  0.1122
24274W        W40168  10.427  15.581  11.033  0.1701  0.0301 -0.2535
24275W        W40169   4.344   9.594   4.913 -0.1160  0.1842 -0.0648
24276W        W40170   4.644  12.559   2.419 -0.0695 -0.0653 -0.0090
24277W        W40171   0.194  10.587  11.528  0.0226 -0.2118  0.1521
24278W        W40172  17.467   2.652   2.082  0.0017 -0.0136  0.0628
24279W        W40173  15.674  10.662  13.559 -0.0425 -0.2662 -0.0063
24280W        W40174   7.154   5.996   2.672 -0.1361  0.2512 -0.0667
24281W        W40175   0.430  18.341  13.992 -0.2714  0.0055 -0.0498
24282W        W40176  14.893   5.861   0.214 -0.1925 -0.0490 -0.0988
24283W        W40177  11.979  14.133  15.363  0.2113 -0.0304 -0.1772
24284W        W40178  11.053   0.732   3.365 -0.1085 -0.0880 -0.0102
24285W        W40179   8.990   0.882   0.475  0.3126 -0.2851 -0.1451
24286W        W40180   3.605  18.796   3.197  0.2509  0.2802 -0.0433
24287W        W40181   8.052  15.142  14.973  0.3496  0.4035 -0.2137
24288W        W40182   5.586  14.594   4.662  0.0567 -0.2195 -0.1557
24289W        W40183  10.749  11.803   3.259 -0.0313 -0.1216  0.0869
24290W        W40184   8.177  12.907  11.929 -0.2248 -0.0453 -0.1420
24291W        W40185   9.527   6.053  13.886  0.0618 -0.3551 -0.0909
24292W        W40186  15.823  16.547   6.055  0.1264  0.2718 -0.0834
24293W        W40187  14.303   9.322  10.463  0.1386 -0.1385 -0.0220
24294W        W40188  12.522  13.971  11.796  0.2662  0.1942  0.2359
24295W        W40189   0.360   2.179  10.164 -0.3797 -0.1508  0.0549
24296W        W40190  12.780   9.805   4.407  0.0180  0.0563  0.1338
24297W        W40191   2.549   6.547  14.571 -0.1057 -0.1137 -0.1968
24298W        W40192  14.696   9.468  11.289 -0.1016 -0.1819  0.0783
24299W        W40193  14.757  14.118  11.801 -0.0142 -0.0690 -0.0248
24300W        W40194  16.619  10.479  10.443  0.1302 -0.1047  0.2533
24301W        W40195   9.416   8.364  14.841 -0.1563 -0.0161  0.3259
24302W        W40196  13.575   9.055  11.988  0.1874  0.0246 -0.1353
24303W        W40197   5.758  15.264   1.777  0.0670 -0.4529  0.0949
24304W        W40198   1.541   3.055   1.051 -0.0243  0.1215 -0.3180
24305W        W40199   9.530   8.924   0.405 -0.0306  0.0457  0.0979
24306W        W40200   1.232  14.143  14.301  0.1070 -0.1212  0.0711
24307W        W40201   7.595   1.104   0.805  0.2344  0.2038  0.2159
24308W        W40202  14.466   9.048   2.368 -0.0536  0.0651 -0.2439
24309W        W40203   2.713   1.323  12.389  0.3802 -0.5456  0.0450
24310W        W40204  13.995  10.405  11.937 -0.3915  0.3328 -0.1502
24311W        W40205  13.230  10.102  10.856  0.1190  0.1784 -0.0039
24312W        W40206  13.362   4.766  10.913  0.1018 -0.0530  0.0406
24313W        W40207   1.565  12.096   3.001 -0.3074 -0.3595  0.2272
24314W        W40208   3.851   5.857   2.329 -0.3883 -0.3102 -0.2215
24315W        W40209  16.460   8.961  12.897 -0.3361  0.1090  0.1321
24316W        W40210  18.173  10.700   4.849 -0.4997  0.1214  0.0503
24317W        W40211   6.988  10.776  14.350  0.0446 -0.0517  0.0023
24318W        W40212  10.688  14.437   4.332  0.3830 -0.1370 -0.2809
24319W        W40213   1.022   4.154  12.229  0.0413  0.3753 -0.3224
24320W        W40214  14.165  13.670   0.127  0.0732 -0.0372 -0.0176
24321W        W40215   9.524   9.455   0.930  0.1819  0.1516  0.2640
24322W        W40216   9.554   8.748  10.804  0.1189  0.1483 -0.2064
24323W        W40217   8.750  16.956  14.067  0.1800 -0.1374 -0.1230
24324W        W40218   7.013  12.197   1.842  0.0009  0.1682 -0.3047
24325W        W40219   4.793  15.176  11.590 -0.1776  0.0029  0.1084
24326W        W40220   8.494   5.684   0.522 -0.1947 -0.0793  0.1922
24327W        W40221  12.402   9.406  12.860  0.0676  0.0392 -0.0111
24328W        W40222  18.479  16.892  13.648 -0.1749 -0.2159  0.1914
24329W        W40223   7.495   6.516   4.477  0.0433  0.2567 -0.2669
24330W        W40224   8.037   2.142  15.250 -0.5221  0.1755 -0.2542
24331W        W40225  12.683   1.601   2.415 -0.3704 -0.0539 -0.1281
24332W        W40226   9.659   1.205  11.240  0.1082  0.1693 -0.0042
24333W        W40227  10.485   0.121  11.462 -0.0508 -0.1331 -0.0131
24334W        W40228  13.094  16.579   0.349  0.2061  0.2771  0.1955
24335W        W40229   7.427   9.350   5.051  0.3065  0.1290  0.1197
24336W        W40230   1.631   1.334   4.042  0.2083  0.1855  0.0836
24337W        W40231   1.781   6.134   0.939  0.2711  0.2022  0.1590
24338W        W40232  16.016  12.795   0.228  0.1584  0.0790 -0.2096
24339W        W40233  11.322   1.103   1.111 -0.2006 -0.3588  0.3361
24340W        W40234   5.072   4.517  11.575 -0.0988  0.0676 -0.1105
24341W        W40235  10.245   1.523   1.521  0.1066  0.6385  0.4919
24342W        W40236  10.651  15.377   3.463  0.0793 -0.1775  0.0834
24343W        W40237  13.064   8.010   5.620  0.0192 -0.3234  0.1380
24344W        W40238   9.412   7.015   3.297 -0.1203 -0.0885 -0.1574
24345W        W40239   9.457  14.568  12.616 -0.2508  0.1424 -0.0133
24346W        W40240   9.442  16.985  15.311 -0.2371 -0.1994  0.0155
24347W        W40241   8.672  14.919   0.673  0.2175 -0.1190  0.1706
24348W        W40242   0.186  18.158   1.804  0.0323  0.0092 -0.0434
24349W        W40243   8.828  10.042   3.938 -0.3584 -0.0607 -0.0090
24350W        W40244   5.006  13.647   0.509  0.1373  0.2319  0.0064
24351W        W40245   8.166  14.882  12.231  0.4513 -0.2062 -0.1327
24352W        W40246   2.884  15.393  14.573  0.4081  0.0230 -0.0587
24353W        W40247  16.782   3.795   0.447 -0.1357 -0.0682 -0.0504
24354W        W40248   9.552   1.485  10.784  0.0791 -0.1335  0.2911
24355W        W40249   1.376  14.408   2.293 -0.1520 -0.0957 -0.0663
24356W        W40250   3.120   4.932   3.194 -0.0064  0.0741 -0.4754
24357W        W40251   7.367   8.988   2.012  0.0289 -0.1702  0.3288
24358W        W40252  15.753  17.331  12.345  0.0709 -0.2818 -0.0459
24359W        W40253   3.521   4.603   4.818 -0.1440 -0.1043  0.1188
24360W        W40254  17.996   7.107  13.633 -0.0549 -0.1898 -0.1533
24361W        W40255  16.998  15.505  12.384  0.0216  0.1932 -0.1195
24362W        W40256   5.137   8.312  15.129 -0.0445 -0.0856 -0.1031
24363W        W40257   4.705  17.941   0.318  0.0238 -0.1618 -0.1063
24364W        W40258   8.795   2.621   1.932  0.2408  0.1880 -0.1062
24365W        W40259   3.764  12.943  12.171 -0.1902 -0.2683  0.2603
24366W        W40260  18.575   7.548  12.328  0.0379 -0.5222 -0.2366
24367W        W40261  11.183   8.772  12.935 -0.1640  0.0594  0.0881
24368W        W40262   2.698   7.709   1.143  0.1609  0.0372  0.2157
24369W        W40263   1.493  18.578  13.503  0.1406  0.0739  0.2381
24370W        W40264  12.057   9.312   3.094 -0.0120  0.1182  0.0894
24371W        W40265  12.018   0.989   2.309 -0.0226 -0.2489 -0.1570
24372W        W40266  13.664   1.027   1.412  0.1142  0.1137 -0.4314
24373W        W40267   1.865   2.615   0.806  0.0252 -0.2009 -0.1073
24374W        W40268   2.970   6.829   2.260  0.0040 -0.0839  0.4063
24375W        W40269   5.096  13.392   5.049  0.1428 -0.3466 -0.1341
24376W        W40270   7.589   1.817  15.256 -0.0669  0.0507  0.1055
24377W        W40271  11.324   8.077   2.773  0.0913 -0.1128  0.2193
24378W        W40272   3.033  12.134   2.246  0.0152 -0.1090  0.1326
24379W        W40273  12.099   5.572   0.037  0.3149  0.2299 -0.2665
24380W        W40274   0.915   9.087  11.273  0.1677  0.0276  0.1968
24381W        W40275  10.870   0.975  11.494 -0.0559  0.3347  0.0031
24382W        W40276  14.292   0.026   2.304 -0.0962  0.1334 -0.3324
24383W        W40277  13.265  10.574   3.487 -0.2858 -0.3204 -0.1686
24384W        W40278  13.998   9.959   4.343  0.2620 -0.0752  0.2720
24385W        W40279  11.488   5.873  11.836 -0.2499  0.0675  0.1015
24386W        W40280  17.979   4.477  11.507 -0.2220 -0.3230 -0.0896
24387W        W40281  15.524   1.678   0.494 -0.0903  0.1098 -0.1943
24388W        W40282   5.911  11.370  14.643  0.0307 -0.1598  0.0587
24389W        W40283   3.039   3.189  13.163 -0.1327  0.0320  0.1677
24390W        W40284  11.221   1.415   1.888 -0.0843 -0.2055  0.1732
24391W        W40285   0.095   7.376  11.135  0.0666 -0.2791 -0.0197
24392W        W40286   5.387  10.532   1.982 -0.3217 -0.1679 -0.4204
24393W        W40287  12.285  14.248  12.806  0.1600  0.1221  0.0726
24394W        W40288  11.920   9.351   2.582  0.2163 -0.1934 -0.3473
24395W        W40289  18.081  16.657   4.174 -0.1109  0.0595  0.2216
24396W        W40290   0.193   3.940   1.675 -0.1310  0.2338  0.1288
24397W        W40291   0.642   4.931  12.323  0.0117 -0.1622 -0.1111
24398W        W40292  13.162  10.027   2.191  0.3527  0.0824 -0.2168
24399W        W40293  18.642   8.617   0.291 -0.1928 -0.2482  0.0679
24400W        W40294  18.127  13.058  12.580  0.5440  0.1634 -0.2437
24401W        W40295   2.825   7.639   1.918  0.1174 -0.2165  0.0482
24402W        W40296   1.576  17.880  14.835  0.1276 -0.1311  0.0054
24403W        W40297  13.417   0.267   4.527 -0.1808 -0.2159  0.1662
24404W        W40298  12.328   0.622   2.224 -0.1507 -0.0453 -0.0474
24405W        W40299  14.218   3.129   1.545  0.2601 -0.0178 -0.2399
24406W        W40300  11.538   4.874   0.245 -0.0823  0.0933 -0.0867
24407W        W40301  17.624  16.524   2.327  0.0355  0.1814  0.3742
24408W        W40302  16.902  12.448   2.232  0.1212  0.0853 -0.1581
24409W        W40303  12.594   4.805  15.294 -0.3929  0.2339  0.1730
24410W        W40304  17.933   3.610  13.953 -0.2660 -0.0684  0.0715
24411W        W40305   6.855   5.288  11.426 -0.3380 -0.2893  0.1015
24412W        W40306  16.982  17.387  13.757  0.0284  0.0201 -0.0088
24413W        W40307   1.881  11.213   9.855  0.0058 -0.1025 -0.1200
24414W        W40308  16.466  12.437   2.655 -0.2397 -0.0953 -0.1951
24415W        W40309  14.227   0.324   5.423 -0.0706 -0.0939  0.0467
24416W        W40310   8.703  12.843  14.706  0.0546 -0.2309 -0.1724
24417W        W40311  15.824   1.835  10.885 -0.1729 -0.1929  0.0806
24418W        W40312   9.677   4.956  15.456 -0.0044  0.2780 -0.0867
24419W        W40313  12.195   1.674   1.341 -0.0389  0.2034  0.0376
24420W        W40314  14.678   4.793  14.326 -0.0932  0.1140  0.1908
24421W        W40315  14.947  14.870   3.823  0.0662  0.0120 -0.1545
24422W        W40316  13.894   7.381  14.794 -0.1157  0.2913  0.0011
24423W        W40317  15.591  14.161   1.448  0.1124 -0.1619 -0.0731
24424W        W40318  15.629  16.517   2.145  0.1995  0.2962 -0.0000
24425W        W40319   1.324   7.749   0.931 -0.0978  0.1776  0.0916
24426W        W40320  12.521  17.993   4.652 -0.3290 -0.0551  0.1063
24427W        W40321  10.561  17.505  11.566 -0.0030 -0.3194  0.1250
24428W        W40322  10.410   6.460   4.221 -0.0394  0.1344  0.3036
24429W        W40323   0.743   8.764   3.398 -0.0515  0.1096 -0.0872
24430W        W40324  14.796   2.470   1.295 -0.0205 -0.2987 -0.2616
24431W        W40325   8.955   4.108  13.307 -0.2582 -0.0508 -0.1217
24432W        W40326   7.105  14.578  14.497  0.3133  0.2118  0.0178
24433W        W40327   2.563   9.968   2.800  0.1411 -0.1480 -0.0540
24434W        W40328  14.232  14.271   1.449  0.1695 -0.2384  0.0734
24435W        W40329   7.678   1.061  11.825  0.2252 -0.0449  0.2271
24436W        W40330   0.063   5.702  12.238 -0.1009  0.0529  0.1241
24437W        W40331  13.404   5.194   1.470 -0.1781  0.2377  0.0105
24438W        W40332   5.610   9.884  12.256  0.1608  0.0987  0.1347
24439W        W40333   9.167  17.419  13.250 -0.1023 -0.0894 -0.0526
24440W        W40334  16.208   5.880  12.804  0.0435 -0.0485 -0.1726
24441W        W40335   9.717  15.105  10.900 -0.1144 -0.0016 -0.0949
24442W        W40336   8.710   1.373  11.941 -0.1203 -0.0532  0.4079
24443W        W40337  12.972   1.761  14.408  0.1043 -0.2292 -0.1520
24444W        W40338   1.289   3.239   3.841  0.2096  0.3233  0.0201
24445W        W40339  12.073  12.329   4.146 -0.2652 -0.1423 -0.2982
24446W        W40340   4.872   5.578  10.916 -0.2986  0.2330 -0.1815
24447W        W40341   7.347  18.134   9.741 -0.0320 -0.0063 -0.1873
24448W        W40342  13.649  13.491   2.219 -0.1950 -0.1863  0.0246
24449W        W40343  12.334   1.352   0.975  0.1185  0.0480 -0.2072
24450W        W40344  17.050   8.169  11.941 -0.0766  0.1508  0.0590
24451W        W40345  10.053  13.514   1.022 -0.0787  0.2441  0.0285
24452W        W40346  14.671  15.708  11.904 -0.1030  0.1471 -0.1581
24453W        W40347  17.374   1.027   0.959 -0.1308 -0.1817 -0.1723
24454W        W40348  17.186   9.257   5.488  0.2073  0.0881  0.0540
24455W        W40349  16.707   0.967  11.096  0.1496  0.0381  0.1139
24456W        W40350  10.835   0.743  13.580  0.1959 -0.1451  0.1299
24457W        W40351   8.274  17.749   1.279  0.2911  0.1663 -0.1054
24458W        W40352   4.728  15.002   5.170 -0.0554  0.0104 -0.0566
24459W        W40353   8.021   5.180  14.447 -0.1124  0.2795  0.1130
24460W        W40354  13.175  14.951   5.873 -0.0477  0.1884 -0.2052
24461W        W40355  14.925  11.839   2.284 -0.0845  0.0417 -0.0079
24462W        W40356   1.503  13.459   4.948 -0.2092 -0.0155 -0.0282
24463W        W40357   8.787  17.081   3.658 -0.1232 -0.1306  0.2187
24464W        W40358   2.345  17.519   4.140  0.1152  0.0104  0.2474
24465W        W40359  15.968   0.879  13.350 -0.2299 -0.3202  0.0156
24466W        W40360   8.871  13.572  12.261  0.0530  0.1616  0.3144
24467W        W40361  18.870   8.370  14.600 -0.0524 -0.1543  0.2662
24468W        W40362  11.688   8.926   4.911  0.1137 -0.3205  0.2673
24469W        W40363   1.261  15.076   9.979  0.0431 -0.1323  0.0490
24470W        W40364  15.866   6.021  11.882 -0.2035  0.2152 -0.2579
24471W        W40365   9.402  10.498  15.326 -0.1711 -0.0047  0.0813
24472W        W40366  17.451  16.680  11.020  0.1938  0.0342 -0.1835
24473W        W40367  16.116   3.225  13.130 -0.0151 -0.6738  0.3013
24474W        W40368  13.226  13.186   3.977 -0.1638  0.2371  0.1177
24475W        W40369  12.810   4.992   1.927 -0.0335 -0.0539  0.0450
24476W        W40370   4.871  12.407   3.273  0.0096  0.3394 -0.0441
24477W        W40371  14.215   5.358  10.718  0.2845 -0.1693 -0.0180
24478W        W40372   6.252  16.604  15.408  0.0837  0.1717 -0.1950
24479W        W40373  15.519   3.874   4.447  0.0648  0.0874  0.1648
24480W        W40374   0.414  17.113  11.596 -0.1042  0.2010  0.0977
24481W        W40375   0.184   4.562   9.678 -0.2453  0.1466  0.1461
24482W        W40376   4.601   1.716   5.002  0.0851 -0.0611 -0.0718
24483W        W40377  16.081   2.190  14.806 -0.2165 -0.1710 -0.0264
24484W        W40378  15.175  17.572   3.683 -0.0205  0.1726  0.1461
24485W        W40379   4.388  16.271   4.181  0.1548  0.1178 -0.0987
24486W        W40380  12.578  17.319   2.121 -0.0133  0.1255  0.0691
24487W        W40381  15.011  18.852  11.261 -0.0389 -0.0427 -0.3685
24488W        W40382  12.714  16.596   3.267  0.0206  0.0721 -0.1474
24489W        W40383   7.546   5.707   2.549 -0.1967  0.3045  0.2835
24490W        W40384   4.104  13.157  13.226  0.2363  0.0123 -0.0174
24491W        W40385  12.306  10.247   0.033 -0.1731 -0.0683 -0.2642
24492W        W40386  15.669   6.562  11.573  0.1166  0.0757 -0.0035
24493W        W40387   0.385  17.735   0.761  0.1391  0.0779 -0.0693
24494W        W40388  14.902   9.641   1.770  0.3771  0.1099 -0.0385
24495W        W40389   8.015  15.789  12.720 -0.1716  0.0646 -0.0290
24496W        W40390  10.418   8.601   4.469 -0.1302 -0.0715 -0.1574
24497W        W40391   8.758   8.314   5.829 -0.2739 -0.1544  0.2056
24498W        W40392   6.083   8.572   1.160  0.4039 -0.3278 -0.1421
24499W        W40393   2.342  13.413   2.080 -0.4083  0.1108  0.0085
24500W        W40394  11.111   7.346   0.403 -0.1004  0.4832 -0.2829
24501W        W40395   6.315  11.823  12.987  0.4091 -0.1492  0.0413
24502W        W40396   5.268  15.191  13.984 -0.2397 -0.1110 -0.1971
24503W        W40397  14.956   6.399   2.173  0.3500  0.1008 -0.0453
24504W        W40398   1.966  17.015  14.729  0.1679 -0.4079  0.4132
24505W        W40399   7.529   0.031   2.948 -0.0824 -0.0875  0.0294
24506W        W40400   5.839   1.057  12.560  0.0079 -0.1468 -0.0306
24507W        W40401  16.164  14.974  12.736 -0.0458  0.0937 -0.1224
24508W        W40402  17.836   6.905  11.920 -0.0666 -0.1552  0.1313
24509W        W40403  14.698  13.625   3.510  0.2060  0.0730 -0.0787
24510W        W40404  16.982  18.555   1.353  0.2024 -0.3280  0.1460
24511W        W40405   6.629   9.233  14.528 -0.0355 -0.0326  0.1237
24512W        W40406  17.815   5.414  11.701 -0.1253  0.2781  0.0147
24513W        W40407  18.552  10.770  11.080  0.0850 -0.1842  0.0975
24514W        W40408  14.738   5.277   0.698 -0.0204  0.1166 -0.0656
24515W        W40409   8.034  13.373  12.116 -0.1909 -0.0525  0.1019
24516W        W40410   7.629   1.273   3.066 -0.0329 -0.1499  0.0368
24517W        W40411  14.170   9.873   2.546  0.2020 -0.1473  0.2704
24518W        W40412   3.258   0.095  14.173 -0.0216  0.0984  0.0720
24519W        W40413  12.023  11.306  13.021 -0.0336 -0.0062  0.2496
24520W        W40414   5.137   0.307   3.418 -0.0598  0.0593 -0.0129
24521W        W40415  12.316   4.231  13.398 -0.1663 -0.0780 -0.0997
24522W        W40416   4.152  12.623   1.511  0.1079  0.0748 -0.1457
24523W        W40417  17.518   4.328  10.369  0.1402 -0.0184  0.0611
24524W        W40418  10.859  12.988  12.627  0.4658 -0.3019 -0.1567
24525W        W40419  13.258   6.601   3.864 -0.0585 -0.0514  0.0330
24526W        W40420  12.917  12.592   0.039  0.0147 -0.1549  0.2686
24527W        W40421   7.007   4.964  14.971 -0.2777 -0.0543  0.3672
24528W        W40422  17.817  11.980  13.577 -0.0045 -0.3915 -0.0029
24529W        W40423   5.696  18.228  12.857  0.2102  0.1678 -0.1880
24530W        W40424  17.439   4.662   2.876  0.2426  0.0716 -0.2398
24531W        W40425  16.676   2.593  10.852 -0.1507 -0.2228  0.1637
24532W        W40426   8.007   0.142  13.293 -0.1222  0.2163 -0.1573
24533W        W40427   6.974  17.104   1.656 -0.1395 -0.2455  0.0532
24534W        W40428   6.829  13.291  13.760 -0.0601 -0.0023  0.1329
24535W        W40429  17.700  13.233  13.549 -0.1218 -0.4842 -0.2124
24536W        W40430  12.636  12.437  10.500  0.2652 -0.2802 -0.1354
24537W        W40431  13.631   8.423   9.574  0.0411 -0.0149  0.3154
24538W        W40432   8.705   6.375   3.689  0.5179 -0.1874 -0.2118
24539W        W40433   9.445  10.722   3.956  0.0477  0.1268 -0.2165
24540W        W40434  16.273   5.619  13.886 -0.2861  0.1842  0.1675
24541W        W40435   9.986   7.970  12.181 -0.1891  0.1122 -0.1802
24542W        W40436   7.908  14.161  11.518  0.3658  0.1286 -0.0320
24543W        W40437   4.264   3.395   1.118  0.1808 -0.0441 -0.0813
24544W        W40438   9.913   7.376  12.052  0.0604  0.1185 -0.1603
24545W        W40439   8.334  18.209   1.358  0.1402  0.0916 -0.2586
24546W        W40440   2.559  11.673   9.883  0.0026 -0.1749 -0.0231
24547W        W40441  15.452   4.219  11.255 -0.1107 -0.0660  0.2276
24548W        W40442  15.097  15.621  10.931  0.0261  0.1825 -0.1539
24549W        W40443   2.795   4.779  12.487 -0.0257 -0.1493  0.1646
24550W        W40444   1.988  18.173   9.517  0.1110  0.3050  0.3210
24551W        W40445  15.044   9.310   4.178  0.1491 -0.0550 -0.0647
24552W        W40446   0.517   0.014   9.821  0.0163 -0.2727  0.0598
24553W        W40447   1.665  14.365  12.196 -0.1167 -0.1436 -0.2612
24554W        W40448   2.740   6.753  11.131 -0.1888  0.2093 -0.2938
24555W        W40449   4.905  11.082   0.959  0.2278 -0.4060 -0.1361
24556W        W40450  16.223   9.799   1.298 -0.0235 -0.2532  0.0867
24557W        W40451  18.159  13.902   1.797 -0.4304  0.4427  0.0717
24558W        W40452  17.119   3.958   1.264 -0.1703 -0.1757 -0.0877
24559W        W40453  14.236  13.223   2.687  0.1869 -0.0839 -0.0414
24560W        W40454   5.884  13.171  10.853  0.1229 -0.0155  0.3552
24561W        W40455   0.327  15.058   2.401  0.1611 -0.1238  0.2209
24562W        W40456   8.024   9.524   2.981  0.2503  0.2446  0.0489
24563W        W40457   8.353  11.353   6.103  0.0576 -0.0371 -0.1152
24564W        W40458  18.517  15.729  14.385  0.0382  0.0077 -0.0620
24565W        W40459  14.644   8.473   1.279 -0.0708  0.1818  0.1401
24566W        W40460   6.530  11.925  11.887 -0.3454 -0.1895  0.2606
24567W        W40461  14.155  17.118   4.173 -0.1722 -0.0870  0.2892
24568W        W40462   4.176   9.554  14.878  0.2697  0.1064  0.0562
24569W        W40463  18.655  10.391   0.024 -0.1679  0.0723 -0.2610
24570W        W40464   9.106  13.579   6.222  0.2646 -0.4020 -0.0774
24571W        W40465   4.272  10.395  11.805  0.1188 -0.1671 -0.2894
24572W        W40466  15.816  14.821  12.394 -0.2793 -0.1183 -0.1668
24573W        W40467   4.535   1.309  13.986 -0.2123 -0.2593  0.0092
24574W        W40468  12.419   9.261   4.674  0.0196 -0.0365  0.2216
24575W        W40469   4.624  14.638  14.611  0.2186  0.1138 -0.0337
24576W        W40470  18.578  11.084  13.817 -0.2969  0.0588  0.0854
24577W        W40471   9.682  12.283  15.208 -0.0508 -0.0228 -0.1669
24578W        W40472  13.373  18.690  14.850 -0.1178  0.0123  0.1599
24579W        W40473   5.530   5.953   0.051 -0.0712 -0.2408  0.1457
24580W        W40474  12.784  10.406  12.662 -0.1575  0.0127 -0.2583
24581W        W40475   1.009  14.868  15.396  0.0036 -0.3723  0.0335
24582W        W40476   9.124   9.780  14.332 -0.0519  0.0002  0.1870
24583W        W40477  18.125   8.589   0.305 -0.1678  0.1175  0.2709
24584W        W40478  15.662   4.147   2.448  0.0447  0.0165 -0.1636
24585W        W40479  12.278   3.240   4.084  0.2158 -0.3287  0.1674
24586W        W40480   8.707  13.376  12.709 -0.1413 -0.1776 -0.0033
24587W        W40481  14.200  16.702  11.888 -0.0453 -0.0688 -0.1260
24588W        W40482   3.901  11.529   1.303  0.0026 -0.3662 -0.0629
24589W        W40483   5.820  13.179   2.102  0.1823  0.5355  0.1348
24590W        W40484   3.780   3.598   2.411 -0.2216  0.0249 -0.0935
24591W        W40485  12.515   2.241  12.144  0.2383  0.1150 -0.3245
24592W        W40486   3.925  18.231  14.960 -0.0281 -0.1538  0.2886
24593W        W40487  12.092   5.739   1.359 -0.1834 -0.0914  0.0639
24594W        W40488  11.659   1.752   0.573  0.0147  0.2838 -0.0890
24595W        W40489   8.730   4.365  10.663  0.0293  0.2199 -0.0031
24596W        W40490   4.971  14.307   5.590 -0.1188  0.1588 -0.1616
24597W        W40491  17.251   4.597   0.064  0.1435 -0.0666 -0.4686
24598W        W40492   2.607   3.116  14.163 -0.0941 -0.0406  0.0699
24599W        W40493  17.531   5.062  13.840 -0.0897 -0.1585 -0.4372
24600W        W40494   6.913   3.785  11.122 -0.1343 -0.2119  0.4807
24601W        W40495  17.740   4.510  14.675 -0.1682 -0.2321 -0.1574
24602W        W40496  17.550   7.875   2.423 -0.1260 -0.3660 -0.2582
24603W        W40497   9.566   5.373  12.489 -0.2418  0.2105 -0.0091
24604W        W40498  15.350  13.578   2.326 -0.1896 -0.4297 -0.1697
24605W        W40499   0.482  14.359   1.561  0.1484  0.0325 -0.1676
24606W        W40500   4.514   3.511   2.983 -0.1974 -0.0027  0.1004
24607W        W40501  10.988   9.449  15.289 -0.1995 -0.1645 -0.1061
24608W        W40502  11.519   5.017  12.473 -0.0848 -0.0397 -0.0464
24609W        W40503   1.599   4.448   1.575  0.1291 -0.3567 -0.2046
24610W        W40504   4.169   8.058   0.359 -0.2529 -0.1559  0.1833
24611W        W40505   8.816  13.445  14.794  0.0281 -0.1675 -0.0856
24612W        W40506  14.042   8.059   1.813  0.1484 -0.2582  0.0342
24613W        W40507  15.300  13.743   5.641 -0.2755 -0.0941  0.0095
24614W        W40508   1.562   5.570  13.688 -0.2863  0.1059 -0.0720
24615W        W40509   1.789   7.635  12.390 -0.0057  0.1570 -0.0499
24616W        W40510  14.476   8.633   2.110 -0.2956  0.2837  0.0138
24617W        W40511   7.724  17.827   0.132 -0.1364 -0.0300  0.1714
24618W        W40512   0.116  12.116   1.714  0.1534 -0.2346  0.2392
24619W        W40513  11.582   8.490  13.494 -0.2341 -0.0666 -0.0471
24620W        W40514   6.029  17.465   3.052  0.0533 -0.0466  0.0316
24621W        W40515  10.805  12.675  13.950 -0.2231 -0.2749  0.1194
24622W        W40516   5.943  11.321  12.281  0.3410  0.3944  0.1796
24623W        W40517  18.156   6.380  14.039  0.0406  0.2283  0.2777
24624W        W40518   8.623   9.060  11.226 -0.2561  0.0782  0.0045
24625W        W40519   1.455   3.039   0.267  0.1289  0.4750 -0.0978
24626W        W40520  11.890   7.617   4.441 -0.0314  0.0709 -0.0580
24627W        W40521  15.023   1.722  12.922 -0.2927 -0.2676 -0.2338
24628W        W40522   6.157  18.210  12.020  0.0612 -0.1361  0.2737
24629W        W40523   1.060  10.128   4.049  0.0895  0.1124  0.1080
24630W        W40524   9.078  13.424  11.758 -0.1249 -0.1173 -0.1316
24631W        W40525   8.910  18.303  10.761  0.3076  0.1154  0.1157
24632W        W40526   6.007  12.855   5.225 -0.2281 -0.1164 -0.4981
24633W        W40527   4.451  10.580   2.596  0.4432  0.2909 -0.1424
24634W        W40528  10.377  10.351   0.797  0.1635 -0.1500  0.0826
24635W        W40529   1.453  16.678   4.560  0.0440  0.0255 -0.0191
24636W        W40530  12.245  14.424  13.310 -0.1823 -0.3519 -0.4765
24637W        W40531   8.777   6.999  15.132 -0.0411 -0.3731  0.0923
24638W        W40532   5.072   1.798   5.539  0.0290  0.1653  0.1309
24639W        W40533   8.690   7.061   5.192 -0.0061 -0.2567 -0.2170
24640W        W40534  15.224  11.439  11.951 -0.1794 -0.1312 -0.3940
24641W        W40535   2.274   3.331  11.107 -0.1007 -0.1476 -0.3731
24642W        W40536  11.852   9.723   4.053  0.2217 -0.0378  0.1230
24643W        W40537  18.590  16.363   0.743 -0.3525  0.1640  0.0270
24644W        W40538   5.492  17.290  13.039  0.2006  0.1912 -0.3149
24645W        W40539  12.776   3.347   4.302 -0.1957  0.2446  0.1134
24646W        W40540  17.573   8.453   4.861 -0.0952 -0.1431 -0.1778
24647W        W40541   5.042   7.789   2.361  0.0500  0.2365  0.2995
24648W        W40542   8.142  17.349  11.961 -0.3002  0.1205  0.0908
24649W        W40543  12.965   0.880   5.902 -0.0675 -0.1172  0.0058
24650W        W40544   3.281   9.332  12.178 -0.0764 -0.3205 -0.0297
24651W        W40545   8.186  12.669  14.981  0.2237  0.0524 -0.4508
24652W        W40546  14.454   5.475  12.213 -0.3336 -0.0037  0.1382
24653W        W40547   7.964   7.439  12.350  0.1398 -0.1760  0.3518
24654W        W40548   2.969  11.040   2.023 -0.1815  0.0359  0.2435
24655W        W40549   4.588  13.876   0.292 -0.0422 -0.0211  0.2676
24656W        W40550   1.213  18.275   0.788 -0.0066 -0.1635 -0.0883
24657W        W40551  15.483   8.485  13.871 -0.0729 -0.0270 -0.0605
24658W        W40552  12.994   5.546  10.873  0.2780  0.2446 -0.3827
24659W        W40553  14.268   1.467   3.058  0.1070  0.0554 -0.1183
24660W        W40554  10.122  16.587   3.633 -0.0040  0.2434 -0.0400
24661W        W40555  17.302  15.669   3.619  0.0688 -0.1644 -0.1594
24662W        W40556   5.112   6.170  15.276 -0.2114 -0.2071  0.1584
24663W        W40557   0.449   3.732  14.378 -0.1168  0.0934 -0.0453
24664W        W40558  12.756  16.045  13.838 -0.0555 -0.0082  0.0680
24665W        W40559   1.153   3.637   0.401  0.0507  0.0109 -0.1547
24666W        W40560   2.506  13.149   0.403 -0.0733 -0.2160  0.2503
24667W        W40561   8.195  16.240   2.052 -0.0795  0.0871  0.1176
24668W        W40562   6.382   9.145   4.173  0.1007  0.0716  0.0163
24669W        W40563  12.949  11.237   2.242 -0.1789 -0.0716  0.1091
24670W        W40564   4.809  11.994   4.231  0.0535  0.1528  0.2231
24671W        W40565  16.313  14.582  14.514 -0.1076  0.1643  0.3562
24672W        W40566   5.683   0.672   4.221  0.3168  0.1984 -0.1700
24673W        W40567  15.759   2.101   0.456  0.0871 -0.3202  0.0177
24674W        W40568   2.959  14.573   2.617 -0.0791 -0.0778 -0.3330
24675W        W40569  16.637  14.150  10.719  0.6598 -0.0448 -0.0928
24676W        W40570  18.495   4.810   0.330 -0.2841  0.0605 -0.4717
24677W        W40571  13.804   0.377   1.740  0.0423  0.2297  0.2913
24678W        W40572  14.994  17.408  13.736  0.0640 -0.0462 -0.1573
24679W        W40573   7.926   9.633   5.282 -0.2273 -0.0516 -0.2160
24680W        W40574   5.330   3.444   1.457  0.0179 -0.0356  0.1954
24681W        W40575  18.100   7.560   4.506  0.0065 -0.0650  0.1053
24682W        W40576   9.234  18.670  10.905  0.1126  0.0361 -0.2136
24683W        W40577   7.592   8.603   4.278  0.0200 -0.0815  0.2935
24684W        W40578   3.903   9.475   3.646 -0.1403 -0.1378  0.1121
24685W        W40579   5.349  14.197  12.530  0.0317 -0.2324  0.1160
24686W        W40580   5.954   7.039  12.762 -0.0412  0.2877 -0.1474
24687W        W40581   6.633   1.932  11.494  0.0676 -0.3151  0.2372
24688W        W40582   1.114   3.106  14.015 -0.0321 -0.1956 -0.0874
24689W        W40583   7.990   3.061  13.580  0.0372  0.2338  0.1708
24690W        W40584  18.002   9.420   5.475  0.1771 -0.4245  0.3250
24691W        W40585   6.671   1.157   3.789 -0.0830  0.0102 -0.4101
24692W        W40586  18.316  14.045   4.478 -0.1980  0.0285  0.0253
24693W        W40587   4.588   9.008   2.979  0.0029  0.2425 -0.1627
24694W        W40588  10.802  12.970   4.143 -0.1532 -0.2131 -0.0526
24695W        W40589   8.241   1.161  11.806  0.0245 -0.1072  0.1780
24696W        W40590  12.328   3.156  13.018  0.0472  0.0421  0.1266
24697W        W40591   2.449   6.683   0.015 -0.3033  0.0862  0.1863
24698W        W40592   4.982   5.614   1.629  0.1651  0.0127  0.1300
24699W        W40593  10.838   0.387  11.245  0.2606  0.1631  0.1029
24700W        W40594   6.510  13.770  12.897 -0.0636  0.1273  0.1089
24701W        W40595   5.803   9.143   3.454 -0.0488  0.1122  0.0938
24702W        W40596  18.697   8.653  12.904  0.1010  0.0292  0.1998
24703W        W40597  18.758   2.338   9.706  0.0582  0.0999 -0.0423
24704W        W40598  15.335  17.702   0.473  0.2248 -0.1558 -0.0226
24705W        W40599   4.898  11.713   4.855  0.0497  0.0466 -0.0032
24706W        W40600  18.753  10.573  12.077  0.0843  0.2552 -0.2611
24707W        W40601   9.065  12.670  13.926 -0.0254  0.2034  0.4650
24708W        W40602   1.188   9.305  14.774  0.2907 -0.0221 -0.0644
24709W        W40603  12.715   4.012  11.154 -0.0917  0.2472  0.1073
24710W        W40604  12.664   6.956  11.258  0.0355 -0.0830 -0.0477
24711W        W40605   5.337   9.364   2.061  0.1722  0.2258 -0.0748
24712W        W40606  13.679  11.329  12.168  0.1007 -0.0597  0.0803
24713W        W40607   8.284   5.431   1.921 -0.1679 -0.2005 -0.1549
24714W        W40608   2.770  11.225  11.233 -0.0510  0.1202  0.4955
24715W        W40609  10.214   9.153  13.696 -0.1424 -0.1646 -0.2165
24716W        W40610   1.565   4.269   0.948 -0.3256 -0.0598  0.1668
24717W        W40611   4.526  11.965  15.165 -0.0643  0.1302  0.1257
24718W        W40612  16.976   3.735   5.389  0.0715  0.0878 -0.1619
24719W        W40613   9.321   0.172   0.964 -0.1012 -0.0382 -0.1669
24720W        W40614  11.418  14.645   5.952 -0.1950  0.2867  0.3685
24721W        W40615   5.823  17.896  11.811  0.4048 -0.0542  0.0430
24722W        W40616   9.866  10.853  14.561  0.1711 -0.1866 -0.2381
24723W        W40617   4.447   6.525  12.437 -0.0997  0.2698  0.1863
24724W        W40618  11.698   4.176  12.028  0.0884 -0.1100  0.0715
24725W        W40619  14.271  16.415  14.238 -0.2417 -0.0466 -0.1861
24726W        W40620   4.966   3.821  14.325  0.1521 -0.0213 -0.1570
24727W        W40621  14.532   0.778   0.852  0.3052 -0.0202 -0.2480
24728W        W40622  13.176   8.591   4.482  0.1056  0.2008  0.1510
24729W        W40623   4.481  17.475   1.018 -0.0683  0.1262 -0.0185
24730W        W40624   2.824   8.312   5.148  0.1013  0.1267  0.3162
24731W        W40625   7.770  14.144   4.144 -0.1287  0.2737 -0.2605
24732W        W40626   9.595   9.847   3.460  0.1249 -0.4332  0.3038
24733W        W40627  13.416  18.533   4.511  0.2164  0.0523  0.2393
24734W        W40628   8.999   5.002  14.583  0.1372  0.0122  0.3462
24735W        W40629  14.877  12.947  14.644  0.0766  0.0558  0.1562
24736W        W40630   9.657  11.887  14.901 -0.1256  0.2821  0.2405
24737W        W40631   8.522  17.267   1.940  0.2347  0.0740  0.0217
24738W        W40632  13.393   9.313   2.256  0.3116 -0.2593 -0.2462
24739W        W40633   2.113   0.613  12.191  0.0287  0.2320 -0.0610
24740W        W40634  14.170   1.071   2.730 -0.3694 -0.0994  0.1659
24741W        W40635   4.085   3.303  11.134 -0.2734 -0.0772 -0.4540
24742W        W40636   4.050  10.354   4.810  0.1959 -0.1036 -0.1914
24743W        W40637  18.673   5.721   1.334 -0.0774 -0.0241  0.2214
24744W        W40638  16.541   5.568  12.931  0.1346  0.0267 -0.0772
24745W        W40639  11.726   6.763   0.433  0.2011  0.3376  0.2178
24746W        W40640   0.449   9.468  12.638  0.0294 -0.0927  0.3028
24747W        W40641   1.807   4.134  11.082  0.2459 -0.0215 -0.1647
24748W        W40642   4.911  10.841   4.339 -0.1314 -0.0650  0.0854
24749W        W40643   0.629   5.242   2.700  0.1099  0.1154 -0.0712
24750W        W40644   8.299   2.834   3.622 -0.2726 -0.1049  0.1656
24751W        W40645   1.927   6.906  11.670 -0.3238 -0.0525 -0.1558
24752W        W40646   1.306   0.963   4.195  0.0544 -0.1613  0.0992
24753W        W40647  13.255  13.601  14.004  0.1066 -0.2915 -0.0168
24754W        W40648  11.185  11.059   0.178  0.2465  0.0573  0.1077
24755W        W40649   5.552   0.646  12.767  0.0519 -0.2968 -0.3001
24756W        W40650   4.512  18.494   2.660 -0.1262  0.1385  0.1265
24757W        W40651   7.467  14.099  11.868  0.2323  0.0749 -0.1687
24758W        W40652  13.595   7.303  14.377 -0.2729  0.0406  0.0398
24759W        W40653   4.074   1.507  14.663  0.0730  0.5943 -0.0327
24760W        W40654  17.799  16.402   0.566  0.1358  0.2080 -0.0117
24761W        W40655   0.982  11.568   3.616 -0.1020 -0.0816  0.1744
24762W        W40656   7.537  16.372   4.848  0.1700  0.1744  0.2020
24763W        W40657  15.342  15.153   3.704  0.1175  0.2546 -0.1554
24764W        W40658   9.261   6.907  11.798 -0.3624 -0.2820  0.1861
24765W        W40659  14.452  10.405   1.052  0.0587  0.1901 -0.0625
24766W        W40660  15.069   4.343   3.654 -0.0939  0.0405  0.2790
24767W        W40661  10.287  15.517  12.017  0.2657 -0.1192 -0.1933
24768W        W40662  17.507   2.380  14.988  0.2487 -0.2294  0.0218
24769W        W40663   2.194  10.311   2.027 -0.1024 -0.1832  0.3477
24770W        W40664   0.803   7.853  14.493  0.1631  0.2588 -0.0785
24771W        W40665  15.013   4.111  15.033  0.0745 -0.1317 -0.3570
24772W        W40666  17.373  13.718   1.997 -0.1514  0.6226 -0.0096
24773W        W40667  17.835   9.402  12.178  0.0823  0.0820 -0.0282
24774W        W40668  16.638  12.617   3.101  0.0411 -0.1327 -0.0741
24775W        W40669   6.029   2.290  14.695 -0.3532  0.3497  0.1593
24776W        W40670  18.361  12.155   1.521 -0.0623  0.2215 -0.0542
24777W        W40671   1.293  13.932  11.867  0.1997 -0.2368 -0.0982
24778W        W40672  12.490  14.988   3.464 -0.0100 -0.0860 -0.1467
24779W        W40673  15.118  16.811   0.435 -0.3140  0.0436 -0.0480
24780W        W40674   8.061  15.465  11.439  0.0258 -0.1010  0.0432
24781W        W40675  11.173   6.372  13.516  0.0973 -0.1798  0.1325
24782W        W40676   8.964  17.185  11.598  0.1258  0.0098  0.0851
24783W        W40677  15.696   4.868   2.557 -0.0864  0.1486 -0.0429
24784W        W40678  17.966  14.214   3.572 -0.0521  0.2224 -0.1581
24785W        W40679   1.475  16.424   1.866 -0.0133  0.1379 -0.0894
24786W        W40680   0.425  18.270   3.323 -0.0306  0.4004 -0.4068
24787W        W40681  10.126  13.224  15.214  0.4370  0.1021  0.0401
24788W        W40682   4.958   9.377  12.206 -0.1475  0.2314 -0.0438
24789W        W40683  17.122  11.459  15.336 -0.1478 -0.1756  0.0991
24790W        W40684  17.388   0.123   2.903 -0.0809 -0.0545  0.1814
24791W        W40685  18.187  17.006   1.717  0.0896  0.0482  0.2755
24792W        W40686   7.056   0.060   0.492  0.0668 -0.1485 -0.4197
24793W        W40687   4.779   7.046  12.165 -0.0450  0.0917  0.1811
24794W        W40688  16.955   1.550   0.378 -0.2612  0.0905 -0.2225
24795W        W40689   7.604   3.859  10.845  0.0668  0.0764 -0.2675
24796W        W40690   4.670  14.241   3.189 -0.1929  0.1261 -0.4225
24797W        W40691  16.032  12.435   2.956 -0.1991 -0.0824 -0.1814
24798W        W40692  18.730  14.882  14.500 -0.3604 -0.2183 -0.0711
24799W        W40693  12.070   1.848   1.771 -0.3485  0.1452  0.0836
24800W        W40694   6.667  14.513  11.718  0.2331 -0.1534  0.0904
24801W        W40695  11.938  18.316  12.431 -0.4069  0.0280  0.0498
24802W        W40696   7.624   3.321   2.110  0.0137 -0.0436 -0.0377
24803W        W40697  15.138   2.502  12.501  0.0917 -0.2165 -0.1854
24804W        W40698  15.645  10.111   2.250 -0.0459 -0.2431 -0.2917
24805W        W40699   6.835   2.649   0.742 -0.0080  0.1890  0.0425
24806W        W40700   2.254   2.912  14.477  0.2654 -0.0227 -0.2208
24807W        W40701   2.793   5.108   2.247 -0.0166  0.0858  0.0913
24808W        W40702   3.888   9.286   0.415  0.2005  0.0192  0.1242
24809W        W40703   7.083  13.391   1.200  0.0341 -0.0286  0.0501
24810W        W40704  13.181   1.568   2.133 -0.0236  0.0299 -0.2755
24811W        W40705   0.158   4.760  10.519  0.2444  0.1153  0.2235
24812W        W40706   8.577  11.461   2.538  0.4659  0.1138 -0.3218
24813W        W40707   2.165  11.795  14.604 -0.0164  0.1317  0.1788
24814W        W40708  16.190   3.156   5.155  0.3615 -0.1849  0.0760
24815W        W40709  17.895  11.314  12.312 -0.2285  0.1743  0.0770
24816W        W40710  14.454  13.105  14.393  0.3638  0.1416 -0.0325
24817W        W40711  18.596  18.217  11.926 -0.0258 -0.0394 -0.1124
24818W        W40712   5.406  14.919   1.648  0.0103  0.1953  0.0091
24819W        W40713  18.124   3.853  12.941  0.1454 -0.2234 -0.1943
24820W        W40714   1.511  17.858  11.299 -0.1522 -0.1527 -0.0207
24821W        W40715   9.195   3.024   0.774  0.0456 -0.1058 -0.1182
24822W        W40716  14.863   2.729   3.300 -0.0259  0.1053  0.1165
24823W        W40717  14.075   0.491   1.006 -0.1863  0.0307  0.4551
24824W        W40718  12.188   0.210   1.601  0.2827  0.0764  0.1435
24825W        W40719   8.557   0.073   5.029  0.0783 -0.2860 -0.1500
24826W        W40720  13.576   8.220   4.349 -0.0163  0.0317  0.1917
24827W        W40721   7.134  11.157  14.680  0.2358  0.0117  0.1423
24828W        W40722   8.556   2.900  14.721 -0.1456  0.3687 -0.1206
24829W        W40723   4.129  12.109   4.612 -0.0721  0.1320 -0.0839
24830W        W40724  10.949  13.217  14.001 -0.0067  0.0146  0.0715
24831W        W40725   5.285   1.827   2.996 -0.3700 -0.1574 -0.2232
24832W        W40726  17.675   9.261   1.330 -0.0740  0.0774  0.0012
24833W        W40727  16.943  18.048   1.400  0.2979  0.1051  0.0474
24834W        W40728  11.306   7.254   5.151  0.0022  0.1313 -0.0738
24835W        W40729   6.470  16.925  11.843  0.0266 -0.5592 -0.2922
24836W        W40730   9.345   5.901   4.774  0.0295 -0.1654  0.0496
24837W        W40731   0.353  13.604   3.311  0.3372 -0.0645  0.3136
24838W        W40732   5.975  11.676   4.539  0.1871  0.0351  0.0420
24839W        W40733  12.646  15.033   5.728  0.1045 -0.0097  0.0241
24840W        W40734  11.906  13.670  13.267 -0.0566 -0.2231  0.0053
24841W        W40735  16.110   5.508   5.262  0.3565 -0.1308  0.0371
24842W        W40736   0.792   8.538   0.665  0.2825  0.1147  0.2005
24843W        W40737   4.916   1.268  13.050 -0.2487  0.2728 -0.2327
24844W        W40738  14.106  18.628  14.308 -0.2141 -0.0385  0.0585
24845W        W40739   4.766  16.129   3.310  0.2515 -0.0720  0.1579
24846W        W40740   8.046   2.746   1.301 -0.2020 -0.0599 -0.0782
24847W        W40741  16.152  10.454   3.074 -0.4128  0.1710 -0.0243
24848W        W40742  17.934  14.445   3.064  0.0815  0.1094 -0.2056
24849W        W40743   3.426   5.119   5.692  0.1762  0.1161  0.0081
24850W        W40744  13.161   6.283   1.855  0.0832  0.1816 -0.1197
24851W        W40745   5.853   0.890   1.388  0.0359  0.1560  0.2709
24852W        W40746   6.783   0.674  12.127 -0.1000 -0.3072  0.1426
24853W        W40747  10.481  10.012  11.283 -0.1470  0.3689  0.0505
24854W        W40748  12.091  14.875  14.444 -0.2350  0.0841 -0.1130
24855W        W40749   7.295  12.279  13.721 -0.3063  0.0366  0.1663
24856W        W40750  18.598   4.905  14.488  0.1906  0.2271  0.2363
24857W        W40751  14.755   9.585   9.252  0.0609  0.0974 -0.4152
24858W        W40752  10.783   8.600   2.111  0.2989  0.0572  0.1900
24859W        W40753  10.091  14.915   0.453  0.1053  0.2376 -0.0955
24860W        W40754   1.156   4.089   1.678 -0.2244 -0.0863  0.1148
24861W        W40755   7.072  13.407   4.892  0.2388  0.1366 -0.3619
24862W        W40756  12.034   4.205  13.880 -0.3763 -0.4900  0.2866
24863W        W40757  15.104   9.632  14.371 -0.2321  0.1685  0.0680
24864W        W40758   0.198   4.115  13.981 -0.0391  0.0652  0.0948
24865W        W40759  17.143  14.444   0.894 -0.2100  0.2949  0.1820
24866W        W40760  14.240  13.502   2.263 -0.2373  0.0686 -0.0998
24867W        W40761  18.525   9.247  10.439  0.0508  0.1689  0.0010
24868W        W40762   1.997   9.827   9.514  0.0735 -0.0906 -0.4925
24869W        W40763   8.509   2.820   1.487 -0.1917 -0.0481 -0.0569
24870W        W40764   6.880   9.015   2.152 -0.4886 -0.2653 -0.3918
24871W        W40765   1.482  13.204   0.162 -0.1469 -0.3383 -0.2481
24872W        W40766  17.821   2.217  11.967  0.0932 -0.2054 -0.0097
24873W        W40767   4.222   3.442  10.296 -0.0413  0.0266  0.2812
24874W        W40768   6.255  15.501  10.616 -0.1092  0.0860  0.2051
24875W        W40769   2.851  14.271  13.926 -0.1005  0.1590 -0.1756
24876W        W40770   4.573  18.316   5.107  0.2575  0.0548 -0.2636
24877W        W40771  11.006  16.853  13.524  0.1284  0.0906 -0.0132
24878W        W40772   2.578  11.492  14.728  0.1663  0.1916  0.1452
24879W        W40773   2.581   0.305  12.019  0.0642  0.0884  0.0253
24880W        W40774  14.840   6.803   4.811 -0.3116  0.1428  0.1397
24881W        W40775   9.800  16.507   4.939  0.0955  0.1672 -0.1418
24882W        W40776  11.988  15.838   0.995 -0.0765 -0.1311  0.0193
24883W        W40777   3.628   8.821   1.401 -0.0685  0.0604 -0.2762
24884W        W40778   2.992   4.777  12.962 -0.0503 -0.1694 -0.3652
24885W        W40779   7.637  12.193   0.586 -0.0509 -0.0782 -0.0381
24886W        W40780  12.650   2.720  12.847  0.2508 -0.1728  0.0399
24887W        W40781  15.568  10.660   3.826  0.1330 -0.4004 -0.0487
24888W        W40782  10.252   4.399   2.044  0.0841  0.0296  0.0894
24889W        W40783  17.936   2.039   3.237  0.0849 -0.4444 -0.2104
24890W        W40784  10.741  13.735   0.746  0.1410  0.0166  0.0200
24891W        W40785   5.099  14.196  13.877  0.0207  0.1686 -0.0966
24892W        W40786  15.739   0.244   4.914  0.2765  0.1249  0.2152
24893W        W40787   0.310  10.011   1.063  0.0935  0.0802 -0.1422
24894W        W40788  17.110  16.738   5.082 -0.0718  0.0233  0.2607
24895W        W40789   9.370  15.339  11.180 -0.0298 -0.0912  0.0212
24896W        W40790  12.331  17.574  11.827 -0.1696  0.2327  0.0296
24897W        W40791   5.766   8.618   3.731  0.1771  0.1438 -0.0839
24898W        W40792  14.719  10.804   3.115 -0.3008  0.1927 -0.1067
24899W        W40793  12.007  18.620   1.628 -0.1338  0.0251 -0.0381
24900W        W40794  14.728   0.402   1.097  0.0512 -0.3799  0.1929
24901W        W40795  16.278  12.522  11.593 -0.0978 -0.2452 -0.1448
24902W        W40796  16.033  17.669  13.264 -0.2655 -0.4155 -0.0470
24903W        W40797  11.974  17.264   4.504  0.1104  0.3583  0.3873
24904W        W40798   6.365   5.341   1.171  0.1428  0.0958  0.2124
24905W        W40799  17.814   8.477   3.253  0.0870 -0.0626  0.0858
24906W        W40800   2.406   3.591   1.733 -0.0106  0.2395 -0.2742
24907W        W40801  18.845  15.874   4.092 -0.3331 -0.1220  0.0697
24908W        W40802  15.211   0.876   0.417 -0.2714 -0.1623  0.1373
24909W        W40803   0.342   9.454   4.172 -0.1491  0.3085 -0.1311
24910W        W40804   3.366  17.149   1.708  0.3956 -0.0461 -0.2061
24911W        W40805   6.412   5.913  12.545 -0.2027 -0.0001 -0.0489
24912W        W40806  11.247   9.353   5.727  0.1839 -0.0527 -0.0175
24913W        W40807  16.208  10.911   1.070  0.2833 -0.3933 -0.1645
24914W        W40808   0.776  18.756  14.763  0.0041  0.1149  0.1207
24915W        W40809   0.742  18.787   4.933  0.1089  0.0903 -0.1346
24916W        W40810   0.994  16.622   2.771  0.2872  0.1467 -0.2540
24917W        W40811  13.555  17.541  14.616  0.1475  0.1111 -0.1534
24918W        W40812   8.376  11.991  14.264  0.5125  0.2823  0.3768
24919W        W40813   5.582  18.530   2.127 -0.0694 -0.0311 -0.0818
24920W        W40814   2.757   5.883  11.545 -0.0103 -0.2402 -0.1427
24921W        W40815   8.897   7.349  12.076  0.2779  0.1642  0.2415
24922W        W40816   6.863  15.352   0.218 -0.2938 -0.3189 -0.3006
24923W        W40817  17.922  15.412  14.277  0.0284 -0.6858  0.2358
24924W        W40818  17.786   5.884   0.316 -0.1225  0.4200  0.2473
24925W        W40819  13.021   8.442   4.925  0.0945  0.1564 -0.0705
24926W        W40820  16.478   6.943   4.559  0.0462  0.1264  0.3968
24927W        W40821   7.507  17.595   4.160  0.0123  0.0554  0.1864
24928W        W40822  13.893  18.654   1.951 -0.1528  0.1682 -0.1975
24929W        W40823   2.801  14.424   3.097  0.5229 -0.1826  0.0683
24930W        W40824   7.761  13.126  15.122 -0.0924 -0.1181  0.0589
24931W        W40825   0.921  12.957  14.897  0.2351  0.1478 -0.3353
24932W        W40826   4.426  17.858   4.876 -0.0365  0.0827 -0.0962
24933W        W40827  16.716  11.488   3.678  0.0896 -0.0294 -0.0257
24934W        W40828  10.092  18.869  10.088 -0.1407  0.2058 -0.1173
24935W        W40829   2.321   1.992  12.676  0.1593 -0.1485 -0.0202
24936W        W40830  17.315  14.166   5.161 -0.2054 -0.0662 -0.1597
24937W        W40831  10.155   7.442   3.824 -0.1354  0.1034  0.3072
24938W        W40832  16.033   9.336   1.218 -0.0671  0.0338 -0.0622
24939W        W40833   8.243  13.168   2.748 -0.0588  0.4813  0.0386
24940W        W40834   3.901  15.954   1.461 -0.0271  0.0890  0.2465
24941W        W40835  16.578   0.641   9.925  0.0996 -0.0359 -0.3252
24942W        W40836   8.204  11.739   2.723 -0.0490 -0.0807  0.0883
24943W        W40837   1.079   1.401  12.553  0.1836  0.1028  0.2528
24944W        W40838   9.515   4.567  10.773  0.0278 -0.2041 -0.3407
24945W        W40839   6.354  17.330  11.052  0.0635 -0.0175 -0.1655
24946W        W40840   7.158  17.315   5.331  0.0746 -0.3825  0.3513
24947W        W40841   5.943  18.498   2.874 -0.0053 -0.1461  0.0206
24948W        W40842  15.712   2.316   4.421 -0.0764 -0.2795 -0.1409
24949W        W40843  17.274   8.078  10.961 -0.3950  0.0587  0.1575
24950W        W40844   4.241   1.273   5.353 -0.4996  0.1398  0.1774
24951W        W40845   0.278   0.350   4.541 -0.0920 -0.0647  0.0905
24952W        W40846   0.499   3.734   1.188  0.3320  0.2259 -0.0345
24953W        W40847   8.084  18.511  10.195 -0.1791  0.2301 -0.2482
24954W        W40848   0.966   9.402  12.392 -0.0579 -0.1385  0.1200
24955W        W40849   8.284   2.854  10.907 -0.1299  0.0994  0.1514
24956W        W40850  10.619  12.160  14.090  0.1799  0.0928 -0.0088
24957W        W40851  17.973   3.175   4.565  0.0599 -0.0314  0.0276
24958W        W40852   4.373  14.961  14.396 -0.3180 -0.0367 -0.2195
24959W        W40853   4.417   6.752   2.337 -0.2156  0.0500  0.1495
24960W        W40854   6.007   8.765  15.225 -0.0336 -0.1733 -0.0414
24961W        W40855   9.448  17.494   9.899 -0.0286 -0.0499 -0.1896
24962W        W40856   2.298  12.835   4.151  0.1317 -0.1239  0.1261
24963W        W40857   4.821   2.143  11.326 -0.0280  0.0462  0.0527
24964W        W40858  10.090  14.579   4.381 -0.0810  0.1136 -0.0712
24965W        W40859  15.288   1.574   4.886 -0.1807 -0.2234 -0.1259
24966W        W40860  18.861   8.955  13.347 -0.0126  0.1987  0.2021
24967W        W40861  17.847  10.568  11.677  0.0026  0.1147  0.3499
24968W        W40862   9.547  13.884   4.506  0.3999 -0.0140 -0.0329
24969W        W40863   8.921  15.068   1.167  0.0875  0.5306 -0.0225
24970W        W40864  18.374   9.199  14.614 -0.2755 -0.2597  0.0639
24971W        W40865   2.487   0.716   0.258 -0.2519  0.1654 -0.2499
24972W        W40866   8.664  12.127   0.629 -0.0669  0.0897  0.1330
24973W        W40867   9.419  11.456  13.559  0.1397 -0.1412  0.0456
24974W        W40868   2.160   6.984   1.770  0.0414  0.1491 -0.1405
24975W        W40869   9.460  13.717  10.675  0.1170 -0.1146  0.0243
24976W        W40870  18.206  17.398   4.749  0.0365 -0.0264  0.2013
24977W        W40871  13.562  11.920   5.126  0.2654  0.1451 -0.1489
24978W        W40872   3.814  12.936   1.624 -0.3288  0.1050  0.1205
24979W        W40873   8.940   4.979   2.142  0.0422 -0.1971  0.0360
24980W        W40874   4.077   9.540  10.501 -0.0830  0.3463  0.3764
24981W        W40875   9.478   5.058   5.825 -0.1730 -0.0325 -0.2015
24982W        W40876   0.206  11.191   2.312  0.0989 -0.3344 -0.0637
24983W        W40877  17.562  13.258   3.533 -0.2415 -0.1557  0.1031
24984W        W40878   4.511  13.439  14.485  0.3056  0.1947 -0.2722
24985W        W40879   3.691  12.083  11.034  0.1519 -0.1020 -0.1138
24986W        W40880   0.648  12.783  10.163 -0.1031 -0.0651  0.0878
24987W        W40881  16.341   7.428  15.066 -0.0851  0.1017  0.1563
24988W        W40882  11.982  12.623  14.710  0.1323  0.0391 -0.3345
24989W        W40883   5.955  13.347   0.427 -0.4531  0.1938 -0.1167
24990W        W40884   6.015   7.767  14.011  0.4496  0.1309  0.1147
24991W        W40885   4.496   7.147   1.332 -0.3174  0.1044  0.0284
24992W        W40886   8.926  14.594   4.966  0.0322 -0.2648  0.2110
24993W        W40887   3.193  17.430   2.947 -0.3353  0.1794 -0.0349
24994W        W40888  10.105   6.105  11.986  0.0988  0.1086 -0.1360
24995W        W40889   7.322  13.230   2.088 -0.1200  0.0212  0.1198
24996W        W40890   2.532   3.172  13.701 -0.1337  0.0374 -0.2940
24997W        W40891  14.207  17.739   3.461  0.5237 -0.2900  0.1431
24998W        W40892   7.512   5.278   1.253  0.1113 -0.2048  0.1097
24999W        W40893  13.274  11.588  13.362 -0.0559  0.2204 -0.4993
25000W        W40894  11.653  11.410   2.738 -0.0732  0.1559 -0.2161
25001W        W40895   8.187   2.780  13.238 -0.3387  0.2511 -0.1581
25002W        W40896  16.843   3.007  10.641  0.1000 -0.1453 -0.1034
25003W        W40897   8.884  18.301   0.239 -0.1502  0.1694 -0.0128
25004W        W40898  10.517   2.214   0.013 -0.2340 -0.3897  0.4801
25005W        W40899  12.424  13.065   2.821 -0.2178 -0.2310  0.1357
25006W        W40900  11.341   6.171   5.007 -0.1042 -0.2582 -0.1328
25007W        W40901   5.095  11.743   0.547  0.1557  0.0496 -0.2626
25008W        W40902   8.511  18.276  15.380  0.3365  0.1871 -0.0257
25009W        W40903  17.491  10.005   3.732 -0.1791 -0.4008  0.2630
25010W        W40904  10.137   3.425  14.395 -0.1797 -0.0838  0.0249
25011W        W40905   1.055   3.268   4.261 -0.0625 -0.4349 -0.3811
25012W        W40906   1.004   7.361  11.461  0.0162 -0.2125  0.0612
25013W        W40907   6.163  11.202   4.502 -0.1398 -0.0741  0.2639
25014W        W40908  15.059  15.300  12.766  0.2168  0.3021 -0.1717
25015W        W40909  17.174  10.675  14.221  0.1441  0.2039  0.0849
25016W        W40910  15.135  18.289   5.750  0.1641  0.2832 -0.0049
25017W        W40911   6.924  17.378   0.230 -0.0660  0.5308 -0.0291
25018W        W40912   6.543  14.103   4.656  0.2138  0.2512  0.3966
25019W        W40913   3.125   5.326   3.524 -0.0204  0.3633 -0.0408
25020W        W40914  15.297   3.629  12.952  0.2174 -0.0083  0.0106
25021W        W40915   2.927   0.247   1.042 -0.3840  0.1133  0.2186
25022W        W40916  13.136   7.236  11.239  0.3186  0.3357  0.0797
25023W        W40917   2.668  10.406   2.259 -0.0733  0.1399 -0.0812
25024W        W40918  16.625  13.561   4.664 -0.1405 -0.1009 -0.0092
25025W        W40919   0.807   0.039  12.851  0.0471 -0.3020  0.0145
25026W        W40920   5.063  10.405   3.949  0.1144  0.0047 -0.3155
25027W        W40921   7.318   5.761  13.798 -0.0384 -0.2333 -0.2978
25028W        W40922   3.065   4.468   0.238 -0.2855 -0.1683  0.3021
25029W        W40923  11.391   7.432  15.481 -0.3197  0.0387  0.0749
25030W        W40924   2.886   8.884   0.715 -0.1673 -0.1451 -0.0724
25031W        W40925   5.208  14.879  15.235 -0.0095  0.1091  0.1649
25032W        W40926   8.906   3.052   1.153 -0.1102  0.0898 -0.1368
25033W        W40927   8.253   5.143   2.837  0.0284 -0.1967 -0.0751
25034W        W40928   9.690   8.402   3.253  0.1507  0.1348 -0.2353
25035W        W40929  13.261   4.471   0.332 -0.2675 -0.0211 -0.1828
25036W        W40930   7.235  15.797  12.812  0.1805 -0.0538 -0.2496
25037W        W40931  17.933   7.164  14.578  0.0191  0.1861 -0.1688
25038W        W40932   0.283  13.702  11.297  0.0390 -0.2064  0.1462
25039W        W40933   4.381  13.701  15.338  0.3457 -0.1219  0.2383
25040W        W40934  14.661   6.560   3.558 -0.2198 -0.0898  0.1348
25041W        W40935  18.747  11.080   1.971  0.1439 -0.0084 -0.1212
25042W        W40936   4.433  10.894  11.897 -0.1566  0.0320 -0.2798
25043W        W40937  13.228   7.804  13.674  0.0867 -0.1351 -0.0007
25044W        W40938   3.440  18.841  15.315  0.0184 -0.2733  0.2045
25045W        W40939   4.695  15.149  14.000 -0.1420  0.1267 -0.1510
25046W        W40940   6.747   8.853   0.239 -0.1032  0.0075  0.0048
25047W        W40941   8.841   5.970   4.977  0.3043  0.0491 -0.2108
25048W        W40942   5.234  12.217   4.096 -0.1421 -0.1922 -0.2586
25049W        W40943  13.331  17.573   1.677  0.1175 -0.2618 -0.0118
25050W        W40944  16.307  15.504   3.541  0.0868  0.0529  0.1278
25051W        W40945   1.303  18.096  13.627  0.2822 -0.3047  0.1095
25052W        W40946   5.602   0.730  11.270 -0.0571  0.0635  0.0196
25053W        W40947   0.604   2.274  13.099  0.0946 -0.0732  0.0160
25054W        W40948   9.587   6.727   4.381  0.2758 -0.1815 -0.0518
25055W        W40949  14.536   5.804  11.475  0.2219 -0.1201 -0.1977
25056W        W40950  18.127  14.753  12.169 -0.0758  0.0663 -0.1697
25057W        W40951   4.813   4.666  11.993 -0.1143  0.0925 -0.0282
25058W        W40952   1.081   8.730   5.353 -0.2020  0.1348  0.4234
25059W        W40953  15.861  17.689   1.923 -0.0668  0.1043  0.1912
25060W        W40954   6.812   6.418  13.890  0.2057  0.1862  0.0687
25061W        W40955  12.616   8.220   1.031  0.1106  0.1735 -0.0009
25062W        W40956   8.529   7.006  14.125  0.1254 -0.0762  0.2721
25063W        W40957   0.921   3.651  10.813  0.2846 -0.2853  0.0163
25064W        W40958   0.537   7.111   5.358  0.2996 -0.0369 -0.3297
25065W        W40959  16.895   6.121  10.570 -0.1381  0.0811  0.0593
25066W        W40960  17.871   8.515  15.076  0.0836 -0.0959 -0.2770
25067W        W40961  10.664   8.978  14.025 -0.2005 -0.1133 -0.2085
25068W        W40962   6.836  11.961   4.903  0.1552  0.0752  0.1871
25069W        W40963  10.285  17.466   1.288  0.0016  0.0122 -0.1759
25070W        W40964  12.739   2.227  14.611  0.2280  0.3017 -0.4442
25071W        W40965   4.861   2.856   2.224  0.3876  0.3605  0.0954
25072W        W40966   9.948  18.780  12.290 -0.3369 -0.2136  0.2364
25073W        W40967  17.379   9.172   9.894 -0.3753 -0.3842 -0.1665
25074W        W40968   0.735   9.465   2.684 -0.0693 -0.1667 -0.2102
25075W        W40969  15.642   1.421  11.185 -0.1939  0.2079  0.2050
25076W        W40970  15.309  10.382  13.130 -0.0264 -0.2487  0.1348
25077W        W40971   5.268  17.594  14.427 -0.0436  0.1875 -0.1503
25078W        W40972   0.906  11.414  11.842 -0.0106  0.3108 -0.0726
25079W        W40973  12.298   2.867   5.087 -0.0154  0.0097 -0.3107
25080W        W40974   6.603  15.752  14.824  0.1760 -0.0652  0.0568
25081W        W40975  10.244   4.201  14.908 -0.3432 -0.1407 -0.2194
25082W        W40976  16.872  16.184   0.225 -0.1225  0.0432  0.2053
25083W        W40977   7.090   8.772   3.289 -0.5048  0.2127 -0.0852
25084W        W40978  18.218   2.165   3.676 -0.0188  0.1019 -0.1102
25085W        W40979  11.236  17.298  13.304 -0.1082  0.1420 -0.2981
25086W        W40980   7.229   2.243  15.375  0.1168 -0.1543 -0.1944
25087W        W40981  17.815  11.325  11.810 -0.0146  0.6504 -0.1204
25088W        W40982   9.258   9.895   0.067 -0.0970 -0.2070  0.0077
25089W        W40983   4.547   2.913   0.705 -0.2615  0.1965  0.4869
25090W        W40984   9.337   5.914  15.474  0.3291  0.0133  0.1750
25091W        W40985   6.801   8.582   1.688 -0.1698  0.1409 -0.3472
25092W        W40986  18.283   0.391  15.368 -0.2425  0.0114  0.0650
25093W        W40987  11.254   1.449   0.179  0.1300 -0.0253 -0.1399
25094W        W40988   0.804  15.288   2.426  0.0293  0.1037 -0.2060
25095W        W40989   2.981  10.591   3.735  0.1971  0.1452  0.1136
25096W        W40990  13.729  16.062  15.225  0.2216 -0.2656 -0.0531
25097W        W40991   8.445   8.923   4.837 -0.0832  0.2569 -0.0649
25098W        W40992   3.002   6.156  13.347  0.1897 -0.1758  0.0636
25099W        W40993  10.115   2.823  12.594  0.2180 -0.0033  0.0712
25100W        W40994   5.307   8.404   3.545  0.1377 -0.2558 -0.1894
25101W        W40995   2.274  18.347   3.134  0.0769 -0.0543 -0.1005
25102W        W40996   7.429   1.903   0.266 -0.1809 -0.0474 -0.0460
25103W        W40997   8.758  16.372   4.247  0.2336  0.0191  0.1420
25104W        W40998   1.968   8.366  13.620  0.2482  0.0755 -0.2304
25105W        W40999   0.534  14.588   0.813 -0.0454  0.0346 -0.0492
25106W        W41000   4.744  17.486  13.748 -0.0189  0.0227  0.0384
25107W        W41001   7.241   0.910  15.013 -0.1321 -0.1106 -0.2102
25108W        W41002  15.027   0.898  13.922  0.1150  0.0720  0.0177
25109W        W41003  11.201   6.437   3.295  0.0287  0.2221 -0.1302
25110W        W41004  10.682   8.875   2.999  0.0523  0.1725 -0.2663
25111W        W41005  10.673   5.965   1.372 -0.0188  0.1011  0.1217
25112W        W41006  13.482  18.822   5.543 -0.2087  0.2635  0.2052
25113W        W41007   2.536   7.172  15.283  0.3115 -0.3086  0.0378
25114W        W41008   8.354  12.984  11.423  0.0342 -0.1428 -0.1893
25115W        W41009   9.432   5.406   0.127 -0.2020 -0.1622 -0.2914
25116W        W41010   7.343   7.517  11.880  0.3724  0.2094  0.0003
25117W        W41011   4.659   0.511   0.318  0.2374  0.3404  0.2713
25118W        W41012  15.890  12.170  12.681 -0.1738 -0.0925  0.1650
25119W        W41013   8.205  18.749   5.235  0.1874  0.2505  0.0535
25120W        W41014  16.800   2.694   2.782  0.0554  0.1517 -0.0248
25121W        W41015  12.470  16.821   2.095  0.1167 -0.5245 -0.0885
25122W        W41016   7.512  18.645   5.210 -0.1818  0.2406  0.2048
25123W        W41017   2.701  18.304   0.022 -0.0647 -0.2048  0.3430
25124W        W41018   8.843  16.585   3.642  0.0413 -0.2392 -0.4097
25125W        W41019   1.808   3.170  14.521  0.2483 -0.1766  0.1089
25126W        W41020   4.094   5.965  13.679  0.0344 -0.0149  0.1759
25127W        W41021   6.654  17.896   2.731 -0.0693 -0.2001  0.3710
25128W        W41022  17.938   1.931   1.736 -0.1686 -0.1079 -0.4794
25129W        W41023   9.586   7.605   0.541 -0.2887  0.0337  0.1693
25130W        W41024   6.574   8.078   3.527 -0.1908 -0.0086 -0.2206
25131W        W41025   8.013  18.306  13.920  0.2983  0.1943 -0.0548
25132W        W41026   0.924  18.123  13.985 -0.1399 -0.3050  0.1295
25133W        W41027   8.867  10.867   0.638 -0.0280 -0.1074  0.1141
25134W        W41028  16.681   3.455  12.591 -0.1635 -0.1331 -0.1051
25135W        W41029   2.312  12.387   9.398 -0.0149 -0.1697 -0.0237
25136W        W41030  12.230  14.985  12.577  0.2536 -0.2569  0.1222
25137W        W41031   5.861  10.718   0.384 -0.0516 -0.0810 -0.0091
25138W        W41032  10.991  14.066  11.610  0.3001  0.0842  0.1076
25139W        W41033  11.909   2.961   3.895 -0.0874 -0.0292 -0.1680
25140W        W41034   8.772  18.599  12.742 -0.0779 -0.0043 -0.2741
25141W        W41035  14.731  16.300  15.342  0.0517  0.2075  0.2875
25142W        W41036   6.886   4.990   2.686  0.0845 -0.3669 -0.1019
25143W        W41037   0.173  11.519   3.343 -0.3420 -0.2695  0.0620
25144W        W41038  11.230   5.333  15.340  0.3000  0.1352 -0.2427
25145W        W41039  16.872   3.215   2.970  0.1052  0.1432  0.0103
25146W        W41040   1.374   9.744  11.040  0.2469 -0.4278  0.0132
25147W        W41041   0.249  13.546   0.741 -0.1249 -0.4137 -0.0274
25148W        W41042  16.520   3.554   1.592  0.1815 -0.2617 -0.3668
25149W        W41043   9.640  15.015  12.411 -0.2233 -0.0213  0.0705
25150W        W41044   7.596   6.483   0.748  0.0271 -0.0650 -0.2268
25151W        W41045  17.012   7.082   0.697 -0.3999  0.3161 -0.0785
25152W        W41046  14.902   3.249   3.071 -0.2537 -0.2656 -0.0150
25153W        W41047  10.376   3.871  14.599 -0.1302 -0.0668 -0.2472
25154W        W41048  15.988   8.336  15.461 -0.0655 -0.0192  0.3181
25155W        W41049  17.062   7.199  13.471  0.1239  0.0387 -0.1051
25156W        W41050  17.009   0.785  15.171  0.0224 -0.1087 -0.0916
25157W        W41051   2.669  14.022  13.520 -0.1856 -0.0287 -0.1560
25158W        W41052  13.008   4.572  15.117 -0.2668 -0.2814  0.4191
25159W        W41053   6.468  18.653  12.654  0.0093  0.0799 -0.2919
25160W        W41054   9.540   6.027   3.569 -0.3189 -0.2603 -0.1438
25161W        W41055   0.681   3.061   2.536  0.0464  0.0175 -0.1192
25162W        W41056   9.431   6.641   0.149  0.2266 -0.1449  0.0707
25163W        W41057   6.132  15.426  12.437  0.0324  0.0229  0.0465
25164W        W41058  10.851  14.033   4.119  0.0382 -0.0531 -0.4601
25165W        W41059   1.017   9.780   3.161  0.0532  0.0110 -0.2159
25166W        W41060   5.005   3.934   5.545 -0.5876 -0.2875  0.0111
25167W        W41061  16.104   4.140  12.495  0.0429  0.1731  0.0235
25168W        W41062   6.651   3.595   0.460 -0.0762 -0.0705 -0.0654
25169W        W41063  17.343  18.341  15.389 -0.0460  0.1745  0.2524
25170W        W41064  12.294  18.605   5.223  0.0126  0.4337 -0.1348
25171W        W41065   1.060  18.077   2.511 -0.2934 -0.4262  0.0953
25172W        W41066  13.643   0.456  14.127 -0.0923 -0.2319 -0.2864
25173W        W41067  11.106  11.109  12.290  0.1678 -0.0729 -0.3180
25174W        W41068  10.763  18.611  13.188  0.2252  0.3360 -0.1857
25175W        W41069   4.822   2.446  12.850  0.1228 -0.1631  0.1545
25176W        W41070   2.009  15.278   3.798 -0.0659  0.2725 -0.0135
25177W        W41071  11.845   7.518   2.202 -0.0361  0.0982  0.0719
25178W        W41072   6.485   2.504  14.942 -0.1597  0.3432 -0.4652
25179W        W41073   6.972  13.244   3.589 -0.0566  0.0311 -0.1153
25180W        W41074  15.946   9.762  14.116  0.0868 -0.1558 -0.0058
25181W        W41075  15.904  10.879   1.973 -0.2335  0.2692  0.0230
25182W        W41076  14.690  11.956  13.696 -0.5227  0.0426 -0.4225
25183W        W41077   4.453  10.876  14.542  0.1810  0.1993  0.0051
25184W        W41078  15.581   6.250   0.294 -0.2756  0.2637  0.1282
25185W        W41079   2.058   9.241  14.468 -0.0048 -0.0528  0.1439
25186W        W41080  18.553   3.393  13.683 -0.0759  0.0403 -0.0221
25187W        W41081  14.713  16.768  11.509  0.1354 -0.2068  0.2334
25188W        W41082   9.233   3.980  12.396 -0.1630  0.0529  0.1579
25189W        W41083   0.180   6.844  12.281 -0.2428 -0.1288 -0.0484
25190W        W41084  17.961   9.554   4.821 -0.0231 -0.2400  0.2542
25191W        W41085  18.419  12.799   9.799  0.2548 -0.2935  0.1087
25192W        W41086  14.357  12.580  14.156 -0.1775 -0.0816  0.0877
25193W        W41087  10.471  17.271  12.169  0.1018  0.0644 -0.1074
25194W        W41088  11.126  14.526   4.505 -0.1919 -0.3237 -0.2355
25195W        W41089  15.765  12.182   1.426 -0.0122 -0.2141 -0.0922
25196W        W41090   2.870  13.032  13.957  0.2877 -0.0201  0.1441
25197W        W41091   6.573  11.671  15.215 -0.0645 -0.2504 -0.0950
25198W        W41092   5.696   0.407   1.357  0.0226 -0.2650  0.3175
25199W        W41093   4.278  11.266   1.568  0.1891  0.2404 -0.2649
25200W        W41094   3.048   2.308   5.909  0.2830 -0.3275 -0.0299
25201W        W41095  13.486  13.705  11.848 -0.0294 -0.0698  0.1716
25202W        W41096  11.803   5.433   3.615 -0.4585 -0.1082  0.3570
25203W        W41097  17.162  12.145  14.297 -0.0057  0.0969  0.1176
25204W        W41098  15.731   1.396   0.946  0.1777  0.0062  0.0989
25205W        W41099  18.733   1.769   1.936  0.0362  0.2279  0.2401
25206W        W41100  13.054  16.380   0.847  0.0844 -0.2834  0.1415
25207W        W41101  12.067  14.678   3.517 -0.1207 -0.0847  0.0422
25208W        W41102   7.537   8.971  14.776  0.3224  0.0679  0.1505
25209W        W41103  13.527   7.156   5.041 -0.0169 -0.2481  0.0882
25210W        W41104   2.413  13.778  12.039 -0.0608 -0.0231  0.4576
25211W        W41105   0.599   6.231   1.080  0.1958  0.2144  0.0468
25212W        W41106  13.728  18.379  14.490 -0.2157 -0.3011  0.0093
25213W        W41107   1.521   9.581  15.087 -0.1150  0.1245  0.1995
25214W        W41108   1.572  18.777  15.177  0.3621 -0.0060 -0.0924
25215W        W41109   4.151  11.500  14.350  0.1229  0.3313  0.2924
25216W        W41110  14.458  13.997   2.243  0.1330 -0.1102  0.0500
25217W        W41111   9.090  17.911  10.568  0.0143  0.1090 -0.1186
25218W        W41112  15.226  17.138   4.391  0.0248  0.2433  0.0204
25219W        W41113  13.669   2.667   0.272 -0.0951 -0.1056  0.1506
25220W        W41114   2.067   9.151  12.590 -0.1512 -0.1716 -0.1747
25221W        W41115  10.793   3.117   4.576  0.0929  0.1589 -0.1442
25222W        W41116   8.616  15.436   6.327  0.0624  0.1326 -0.0832
25223W        W41117   1.549   2.652  15.204  0.1794 -0.0851 -0.0080
25224W        W41118  14.609   9.627  12.156 -0.2126 -0.1228  0.2206
25225W        W41119  14.980  15.713  11.385  0.1828  0.0643 -0.0117
25226W        W41120   8.069   9.123  12.198  0.2744  0.0961  0.0919
25227W        W41121   6.478  17.405  11.557 -0.3913 -0.0044 -0.1004
25228W        W41122   1.253  18.117  14.392  0.0735 -0.0613  0.2001
25229W        W41123   6.728   2.108  15.248 -0.1555 -0.3635  0.1727
25230W        W41124  16.160   3.447  14.071 -0.3675  0.0889  0.3829
25231W        W41125  10.242  12.842   4.076  0.0080  0.2747 -0.1619
25232W        W41126  13.552  15.802   3.713  0.0841  0.2272 -0.1107
25233W        W41127   5.825   0.873   2.714 -0.0611  0.2126 -0.1673
25234W        W41128   3.057   8.027  11.096  0.0148 -0.4142  0.2321
25235W        W41129   0.888  17.959   4.253 -0.0425 -0.0847  0.2692
25236W        W41130   9.394  11.642   1.058 -0.1451  0.3710  0.1086
25237W        W41131   5.357  14.164   2.748 -0.2266  0.2099  0.1228
25238W        W41132  17.032  16.935  11.315 -0.0700  0.1138  0.2732
25239W        W41133   1.623   0.737  11.906  0.0618  0.0741 -0.1112
25240W        W41134   3.829   4.914   1.864 -0.0896 -0.0259 -0.0561
25241W        W41135  18.272  16.331  15.288 -0.4198 -0.0122  0.0427
25242W        W41136   8.860  17.848  13.989 -0.0229  0.0946 -0.0126
25243W        W41137  11.556   8.859  13.832 -0.0759  0.1555 -0.0209
25244W        W41138  10.770   4.171  12.779 -0.3448 -0.0312 -0.1643
25245W        W41139  14.950   2.712  11.437 -0.2440 -0.2053  0.0640
25246W        W41140   5.290  10.276  10.563  0.0793 -0.0758  0.1278
25247W        W41141  18.737   0.146   4.346  0.4112 -0.1313 -0.0978
25248W        W41142   8.099  12.984   4.625 -0.1708  0.0461  0.0289
25249W        W41143   5.043   2.898   0.856  0.1279  0.0489  0.0713
25250W        W41144   6.164   6.111  14.324  0.3703  0.0312 -0.0933
25251W        W41145   9.518   6.494   2.601  0.1447 -0.3889  0.0765
25252W        W41146   8.042  15.362  13.668  0.1537 -0.0472  0.2563
25253W        W41147   1.617  12.402   4.090 -0.1839 -0.0176 -0.1387
25254W        W41148   3.140   8.413   1.441 -0.0556  0.0926 -0.0730
25255W        W41149   7.919  10.009  11.828  0.2942  0.1374 -0.2118
25256W        W41150   4.047  12.741   2.981 -0.1357  0.0151 -0.0573
25257W        W41151   4.888  18.691  11.776 -0.2663 -0.0466 -0.1911
25258W        W41152   2.870  11.442   0.894 -0.0375  0.2216 -0.1708
25259W        W41153   2.372  10.937   3.343 -0.0499 -0.1648 -0.0893
25260W        W41154  10.396  17.086  11.726 -0.2390 -0.0872 -0.0607
25261W        W41155  15.400  10.421   1.925  0.2563 -0.1220  0.0375
25262W        W41156   4.621   7.012   4.034 -0.0472  0.3703 -0.2639
25263W        W41157  17.605   2.516  13.597 -0.2195  0.0989  0.1560
25264W        W41158   9.093  12.910   4.728 -0.0738 -0.0985  0.3412
25265W        W41159   1.040   7.056  11.857 -0.1839  0.0268  0.2971
25266W        W41160   8.998   6.835  12.336 -0.0381  0.0835 -0.0295
25267W        W41161   6.791   3.234  14.601 -0.2235  0.2357 -0.0937
25268W        W41162   3.347  14.344  11.968 -0.2468  0.0578 -0.2266
25269W        W41163   9.348   3.920   4.502 -0.0125 -0.2099 -0.1413
25270W        W41164   0.034  17.374   1.250 -0.0706  0.0795  0.0485
25271W        W41165   4.015  14.539  12.704 -0.0856  0.1708 -0.0319
25272W        W41166   6.684   5.301  14.909  0.1586  0.1720 -0.4371
25273W        W41167  13.322  17.696   2.164 -0.1608  0.1865  0.2745
25274W        W41168  10.314  18.027  13.983 -0.1042  0.0821 -0.0571
25275W        W41169  11.347   6.768   2.609 -0.2016 -0.0678 -0.0991
25276W        W41170  14.181   8.613   2.549 -0.0719 -0.0529 -0.0683
25277W        W41171   5.128   0.991  12.582 -0.0378  0.0772 -0.1024
25278W        W41172  14.311   2.221  13.962  0.0586 -0.0795 -0.2852
25279W        W41173  12.689   5.630   5.140  0.1178 -0.0647  0.0266
25280W        W41174   3.864   7.168   2.849 -0.0223 -0.3555  0.1513
25281W        W41175  14.981  12.299  12.401 -0.2690  0.2620  0.1927
25282W        W41176   0.776  16.970  13.064  0.3684  0.1142 -0.3081
25283W        W41177   5.472   9.577   0.654 -0.1384  0.1199  0.0855
25284W        W41178   7.366   7.801   0.064  0.0231 -0.3719 -0.0941
25285W        W41179  10.212   9.189  11.709  0.2447 -0.1081 -0.3280
25286W        W41180   2.588   7.059  14.240 -0.0303  0.0893  0.1745
25287W        W41181   9.596   3.766  13.808  0.2280 -0.1480 -0.0854
25288W        W41182   9.889   4.331   2.983 -0.2534 -0.1206  0.5255
25289W        W41183   0.772   4.383   3.085  0.2489  0.1560  0.0242
25290W        W41184  18.101   9.567  14.005 -0.0679  0.2207  0.0239
25291W        W41185  13.925   6.021  11.534 -0.0404  0.1672 -0.0124
25292W        W41186  16.510  14.253   3.270 -0.1951 -0.2399 -0.1036
25293W        W41187   5.726   8.501   2.820 -0.2651  0.1714 -0.1589
25294W        W41188  18.313   5.197  11.592  0.1542  0.1349 -0.2429
25295W        W41189  18.676  17.806  13.229  0.0953 -0.2185  0.0091
25296W        W41190  14.028   2.867   1.148  0.1220  0.1778  0.1951
25297W        W41191  10.357  13.864  11.698 -0.1142  0.3153 -0.3200
25298W        W41192  12.318   2.071   2.121 -0.2453  0.1849 -0.1953
25299W        W41193   3.974  14.105  11.251  0.2066 -0.1046  0.1133
25300W        W41194   9.151   1.839   0.085  0.0289 -0.0307 -0.2627
25301W        W41195  15.775  12.418  11.546 -0.2525  0.0151 -0.0312
25302W        W41196  12.689  11.082  15.235 -0.2843  0.1863  0.1750
25303W        W41197  10.386   6.984   2.440 -0.0598  0.2423 -0.1610
25304W        W41198  16.710  14.888  11.904  0.2237  0.0393  0.1853
25305W        W41199   4.626  15.448   4.798 -0.3099  0.0794  0.0990
25306W        W41200  16.419   4.990  14.430  0.5279  0.0995 -0.0035
25307W        W41201  12.563  13.202  12.205 -0.3300  0.2161  0.1954
25308W        W41202  12.264   3.299   1.976 -0.1787  0.1778  0.1711
25309W        W41203   3.674  10.615  10.569  0.1162 -0.0374 -0.1281
25310W        W41204   2.689   3.099  11.975 -0.3922  0.0088  0.1259
25311W        W41205  10.943  14.215  14.115  0.3787 -0.0146 -0.1940
25312W        W41206   9.502  14.473  11.214  0.0461 -0.0495 -0.0273
25313W        W41207  12.174   3.700   1.630  0.2141 -0.1107 -0.0160
25314W        W41208   6.573   1.161   3.114  0.1445 -0.2061  0.1228
25315W        W41209  11.080  10.501   2.549 -0.1882  0.1700 -0.1239
25316W        W41210  12.409   5.505  13.400 -0.2224  0.0463 -0.3323
25317W        W41211   0.712   4.512   3.571 -0.1183  0.2459 -0.0211
25318W        W41212  11.112   2.983  10.804  0.2826 -0.0419  0.5835
25319W        W41213   5.013  13.894   2.976  0.1368  0.0372  0.5162
25320W        W41214  10.021  14.412  13.580 -0.3308  0.0076  0.0844
25321W        W41215  10.469  18.450   4.872 -0.2394  0.0225 -0.2422
25322W        W41216  18.311  17.938  10.939 -0.1208  0.0557  0.3729
25323W        W41217   1.210   6.140  11.856 -0.1550 -0.0106 -0.1815
25324W        W41218  11.629   0.935  11.068  0.1067  0.0521  0.0558
25325W        W41219   3.304   3.043   1.631  0.0633 -0.1035  0.0357
25326W        W41220   7.770  17.643  11.003 -0.3195  0.0515 -0.0279
25327W        W41221   5.543   1.931  13.426  0.3877 -0.0620 -0.0670
25328W        W41222   8.508   3.988  13.167  0.3154 -0.1634  0.1186
25329W        W41223  18.231   1.327   2.635  0.0506  0.0859 -0.1356
25330W        W41224   2.076   0.903  11.684 -0.0276 -0.4999  0.1075
25331W        W41225   5.572   9.592   3.751 -0.1967  0.0568  0.0049
25332W        W41226   2.205   8.902  11.359  0.2397  0.2664  0.0124
25333W        W41227   0.287   1.093   1.292 -0.0358 -0.0682 -0.2605
25334W        W41228   4.205  14.866  10.839  0.2261 -0.0401  0.1990
25335W        W41229   7.405   2.407   3.841  0.3959  0.0934 -0.1851
25336W        W41230  13.544  18.838   3.225 -0.2940  0.1081  0.3733
25337W        W41231  17.709  14.786  12.583  0.0588  0.1538 -0.0696
25338W        W41232   3.704  14.861   3.975 -0.0972 -0.1796  0.1729
25339W        W41233  11.260  14.623   5.036 -0.3771  0.1191  0.1247
25340W        W41234   1.346  16.992  13.278 -0.1726  0.2340 -0.1298
25341W        W41235   6.601   6.374  12.477  0.0618 -0.1566 -0.1585
25342W        W41236  10.462   1.732   5.588  0.2662 -0.2013 -0.0880
25343W        W41237   4.107   8.753  15.103 -0.0462 -0.1062  0.0267
25344W        W41238   4.786  17.513  11.298 -0.0012  0.2727  0.2274
25345W        W41239  11.301   4.523  11.123 -0.3276  0.3798 -0.2178
25346W        W41240   8.193   6.880   2.447  0.1825 -0.5696  0.0097
25347W        W41241   2.203  18.344   0.262 -0.0487 -0.1341  0.0095
25348W        W41242  12.675   2.521  14.967 -0.2077 -0.1212 -0.1025
25349W        W41243  17.977   3.608   1.992 -0.0278 -0.1399 -0.0122
25350W        W41244   6.725  11.625  10.714 -0.1021  0.0759  0.4891
25351W        W41245  14.548  12.026   3.443 -0.5873 -0.1654 -0.2444
25352W        W41246  10.558   2.661   1.807 -0.0070  0.1928  0.1349
25353W        W41247   6.281  18.122  11.546 -0.0496 -0.1635 -0.0609
25354W        W41248  17.627   6.828   1.388 -0.1664 -0.1041  0.1863
25355W        W41249   0.046  12.568  13.316 -0.0285 -0.0808 -0.0741
25356W        W41250  15.921   9.650   3.488 -0.1993 -0.4061  0.0593
25357W        W41251   4.395   2.130  10.598  0.1083 -0.0528  0.0515
25358W        W41252   2.688   6.960  12.686  0.2095  0.1252 -0.1113
25359W        W41253   7.916   8.598   4.717 -0.1375  0.0429  0.1207
25360W        W41254   2.490   7.109   0.304  0.3602 -0.3732  0.2058
25361W        W41255   7.218  15.331   4.571  0.0001 -0.0662  0.0207
25362W        W41256   3.662  16.159   4.081  0.3449  0.0134 -0.1868
25363W        W41257  15.873   7.128  13.893 -0.3542 -0.2149  0.1501
25364W        W41258  16.586   3.049   3.738  0.1274 -0.1222 -0.0253
25365W        W41259  15.843  11.369   3.357  0.2992  0.3422 -0.3284
25366W        W41260  12.317  16.310   2.004 -0.0855  0.1203 -0.2374
25367W        W41261  13.568  11.595   3.552  0.3238  0.1089  0.3280
25368W        W41262  15.709  17.311   1.078  0.1444  0.0041  0.0314
25369W        W41263   5.515   1.621   4.450 -0.1572  0.4109  0.0794
25370W        W41264  14.483   0.426   0.537  0.2978 -0.0896  0.1803
25371W        W41265  13.328   7.113  13.963  0.0795 -0.1132  0.0688
25372W        W41266   6.925   6.468   2.658 -0.0918  0.4159 -0.0390
25373W        W41267   3.283   0.548   4.815  0.0655 -0.0046  0.3043
25374W        W41268  12.729   3.496  13.906 -0.1216 -0.0567 -0.0272
25375W        W41269   7.642   9.927   3.906 -0.0756 -0.2749 -0.1419
25376W        W41270   0.910  16.806   2.310  0.1457  0.2022  0.1285
25377W        W41271   7.468  18.180   4.845  0.2200  0.1609 -0.0736
25378W        W41272  13.575  18.207   2.802 -0.0423  0.0593  0.0238
25379W        W41273  16.809   5.860   2.363  0.2482  0.0227 -0.0094
25380W        W41274  16.789   7.840  13.803 -0.3462  0.2634 -0.0071
25381W        W41275  10.223   5.521  13.236 -0.1453 -0.0737  0.3579
25382W        W41276   9.886   4.934   4.172  0.0493 -0.1982  0.1800
25383W        W41277  17.868   8.920   4.214 -0.0239  0.2608 -0.0331
25384W        W41278  12.662  13.718  12.234 -0.0184 -0.5114 -0.1030
25385W        W41279   7.644   0.044   1.423 -0.0382  0.0404  0.0782
25386W        W41280   4.342  12.289  14.744  0.1108 -0.1012 -0.0539
25387W        W41281   1.077   0.753   1.663 -0.0970 -0.0540  0.0433
25388W        W41282   2.809  15.501   3.363 -0.2542  0.0792 -0.0799
25389W        W41283  11.692   8.078   4.561 -0.0282  0.1456 -0.2304
25390W        W41284   1.330  13.890  12.777  0.0361 -0.0816  0.0288
25391W        W41285   3.331  10.981  12.708 -0.3256 -0.0428 -0.2890
25392W        W41286   6.699   3.960  14.060  0.1688 -0.2986 -0.1370
25393W        W41287  13.993  15.574   2.714  0.1877  0.1598 -0.1027
25394W        W41288   4.959   0.411   2.020 -0.1809 -0.1512  0.1990
25395W        W41289   2.490   5.869   1.949  0.2977 -0.1154  0.2572
25396W        W41290  15.334   3.723  14.909 -0.1052  0.0604  0.2616
25397W        W41291  12.839   2.535   1.723  0.4135  0.2772 -0.0015
25398W        W41292   0.508   0.598  10.906 -0.1749 -0.0395  0.0846
25399W        W41293   0.500  11.761   3.695 -0.2168 -0.2386  0.0189
25400W        W41294   4.116  13.477  11.319  0.2139 -0.1237 -0.1776
25401W        W41295  11.963   4.475   1.001 -0.0327  0.1238 -0.0568
25402W        W41296   1.237  16.971   0.550  0.0069  0.0230  0.2171
25403W        W41297   3.279   5.893   2.638  0.0743  0.0708  0.0376
25404W        W41298  14.029   8.560   4.799 -0.0962 -0.0340 -0.1407
25405W        W41299   9.980   0.635   4.439 -0.1596  0.1556  0.0688
25406W        W41300   5.336  13.581  12.830 -0.1218  0.1504  0.1191
25407W        W41301  16.224   2.682   1.498  0.2256  0.2709 -0.1673
25408W        W41302   2.907  13.698  12.204 -0.0524  0.1587 -0.3536
25409W        W41303  14.530   7.771  12.539  0.0212 -0.1082  0.0315
25410W        W41304  14.784   1.781   5.204 -0.0106  0.2639  0.0565
25411W        W41305   1.096  17.284   1.077  0.2115  0.1155  0.0215
25412W        W41306   9.701   1.372   5.016  0.0309 -0.0109  0.1662
25413W        W41307   8.865  12.271  13.497 -0.2821 -0.2894 -0.0187
25414W        W41308   9.488  11.235   2.008  0.0428  0.1052 -0.1751
25415W        W41309  18.123   0.064   3.824  0.2211  0.3087  0.0316
25416W        W41310   8.142  10.145  12.634  0.1347  0.2872 -0.1555
25417W        W41311  11.468   2.207   0.677  0.1604 -0.1808  0.1759
25418W        W41312   2.402   6.697   2.185  0.2133 -0.1093 -0.0856
25419W        W41313   2.638   1.081  12.934 -0.2586 -0.0651 -0.0267
25420W        W41314   6.249   9.533   1.768  0.0727 -0.3220 -0.0253
25421W        W41315   9.357   0.744  12.365  0.0251  0.2554 -0.4319
25422W        W41316  10.960   6.364   0.049  0.1810 -0.1234  0.0449
25423W        W41317   0.397  12.728   2.981  0.3649  0.0321  0.0834
25424W        W41318   9.246   7.351   2.396 -0.1594 -0.1062  0.2549
25425W        W41319   5.308   9.590  11.029  0.0557 -0.2053  0.1331
25426W        W41320  11.027  15.453   1.246  0.3172 -0.0598 -0.2576
25427W        W41321   5.561  18.745  12.938 -0.0631 -0.0499  0.1878
25428W        W41322   2.444  14.697  15.184  0.1955  0.1323 -0.2490
25429W        W41323  18.209  17.964   5.401 -0.2126 -0.0682  0.1218
25430W        W41324   4.602  12.250   4.640  0.3844  0.3502  0.0857
25431W        W41325  18.796  17.101   5.906  0.1119 -0.0600 -0.0853
25432W        W41326  10.706  10.635  10.824  0.0243 -0.0843  0.0023
25433W        W41327  13.719   6.599  14.817 -0.3728  0.1846  0.0636
25434W        W41328  10.773  13.141   3.542 -0.2010 -0.2732 -0.0640
25435W        W41329  13.158   0.212   1.905  0.3218  0.1516  0.0801
25436W        W41330   8.351  16.319  13.354  0.0333 -0.5285 -0.1276
25437W        W41331   9.740  16.024   5.452 -0.1208  0.0845 -0.0172
25438W        W41332   4.035  14.750   4.992  0.1674 -0.0658  0.2167
25439W        W41333  11.666   6.050   0.091  0.1192 -0.0549  0.3131
25440W        W41334  11.074  15.377   2.687  0.2132  0.0849 -0.1638
25441W        W41335   0.133  13.342   4.320 -0.1148  0.0640 -0.0870
25442W        W41336   6.403   2.113  14.405 -0.2762 -0.3946  0.1600
25443W        W41337  13.644   6.556   5.562  0.0576 -0.1028  0.0912
25444W        W41338  14.109   8.940  13.112 -0.0594  0.0709 -0.1987
25445W        W41339   2.937  11.202  11.877 -0.0406 -0.2282  0.0237
25446W        W41340  15.829  18.174  11.782 -0.2115  0.2844  0.0540
25447W        W41341  15.143  18.110  10.854  0.4046  0.1816 -0.2718
25448W        W41342  10.583   8.350   5.480  0.0480  0.1560 -0.0842
25449W        W41343   6.731  15.865   5.180  0.0769 -0.0027  0.2680
25450W        W41344  10.159  18.470   0.119  0.0970 -0.0427 -0.0958
25451W        W41345   9.372   6.918  15.236 -0.0699  0.0744 -0.1150
25452W        W41346  18.063  18.161   1.921  0.1303  0.0998 -0.6361
25453W        W41347  16.563  11.143   0.315 -0.2726 -0.0112  0.2891
25454W        W41348  18.642  13.734  15.126  0.5168  0.1806  0.1577
25455W        W41349  10.167  16.723   4.552  0.2099 -0.0060 -0.0163
25456W        W41350  12.229  14.215   3.406 -0.1098 -0.3969 -0.0848
25457W        W41351  14.773   4.709   1.420 -0.0454 -0.0909  0.0695
25458W        W41352   3.294   3.301  11.321  0.0370  0.3045  0.2127
25459W        W41353   6.354  14.454   2.529 -0.0688  0.1187  0.2740
25460W        W41354  16.708  17.033  12.039 -0.2143 -0.0557  0.2785
25461W        W41355  18.698   0.753   4.531  0.1667  0.2200 -0.1123
25462W        W41356  14.450  11.176  13.700 -0.0559 -0.2967 -0.2498
25463W        W41357   5.377  16.764   4.930  0.2913  0.2209  0.1437
25464W        W41358  13.054  18.647   2.056  0.0595  0.2214  0.1788
25465W        W41359  11.772   0.040  10.382 -0.1582  0.1476 -0.1017
25466W        W41360   4.220   8.673   5.253 -0.2036  0.1043  0.1696
25467W        W41361   8.627   0.529   0.440 -0.2429 -0.0556 -0.2777
25468W        W41362  17.813  18.045   0.890  0.2220 -0.0078 -0.0967
25469W        W41363   5.172   1.077   9.502  0.0752 -0.1600 -0.1223
25470W        W41364  11.263   4.303  10.619  0.0375  0.1231  0.2627
25471W        W41365   2.401   5.348  12.350 -0.0647 -0.0359  0.0356
25472W        W41366   3.370   6.817   3.521  0.2551 -0.0880 -0.1186
25473W        W41367   6.987  16.893  12.106  0.1891  0.1284  0.1795
25474W        W41368   7.173   6.186  12.877 -0.2472  0.4457 -0.1212
25475W        W41369  15.561  10.075   4.494 -0.0140 -0.0213 -0.3419
25476W        W41370  12.959  18.188   1.571 -0.0542  0.0788 -0.1458
25477W        W41371  12.489  17.431   1.326  0.0894 -0.1224  0.1013
25478W        W41372  17.701   7.567   5.042 -0.1550  0.1019  0.3283
25479W        W41373  11.532   0.657   4.298 -0.2589  0.2003  0.0488
25480W        W41374   9.687  18.466  11.989 -0.3797 -0.1779  0.0892
25481W        W41375  12.051   4.621   0.397 -0.0820  0.1377  0.3006
25482W        W41376   3.112   1.230  10.881 -0.0348  0.0105  0.0060
25483W        W41377   2.649  14.438   0.182 -0.2196 -0.3034  0.0865
25484W        W41378   4.619   4.875  15.050 -0.2693 -0.0784 -0.3490
25485W        W41379   1.367   9.689   0.265  0.2014 -0.0564  0.1898
25486W        W41380  15.732  17.043  12.928  0.2383  0.1800 -0.0205
25487W        W41381  15.300   4.863   2.099 -0.0598 -0.0712 -0.0474
25488W        W41382   3.286   2.636   4.950  0.2585  0.2277 -0.0895
25489W        W41383  15.849  14.403  12.063  0.1195  0.1427 -0.1893
25490W        W41384  15.765   4.861  13.426 -0.0837  0.3232  0.2801
25491W        W41385  12.010  10.680   0.130 -0.3229 -0.2402 -0.1411
25492W        W41386   0.205   0.595  12.400 -0.0991  0.0310  0.2174
25493W        W41387  13.008   4.293   4.713 -0.2036  0.2371  0.2473
25494W        W41388   9.526  15.897   9.690 -0.0674  0.1919  0.2344
25495W        W41389   7.765  15.044   2.076 -0.2312  0.1091 -0.0896
25496W        W41390   9.689  15.145   4.002 -0.1610 -0.0515  0.2470
25497W        W41391  18.059   7.183   4.088  0.0927 -0.0984 -0.0920
25498W        W41392  17.956  17.137  14.190  0.2635  0.0641  0.1479
25499W        W41393   1.674  14.728   2.066 -0.0342  0.0356  0.1317
25500W        W41394  15.395  13.664  15.159  0.1420 -0.2656  0.0048
25501W        W41395   4.846  13.171   5.412 -0.1577  0.0871 -0.0635
25502W        W41396  13.004   2.825  15.148 -0.0093  0.1346 -0.0035
25503W        W41397   1.661  16.543   5.698 -0.1926 -0.0426 -0.1310
25504W        W41398   5.402   9.829   2.104 -0.2121  0.3206  0.1143
25505W        W41399   0.961  10.087   4.559 -0.2341  0.2411  0.1096
25506W        W41400   5.406  15.201  12.648  0.1093 -0.0078 -0.0687
25507W        W41401   8.904   1.315   2.333 -0.0008  0.3892  0.0013
25508W        W41402   1.803  16.649   3.831  0.0128 -0.0610 -0.0240
25509W        W41403   2.589  16.324   0.209  0.0235  0.0232  0.1729
25510W        W41404  10.979   8.702   3.320  0.6202 -0.2549  0.3531
25511W        W41405   4.066  14.277  13.881 -0.1772 -0.2481  0.0352
25512W        W41406   1.883   9.022   1.634 -0.3067  0.0219  0.2846
25513W        W41407   3.821   9.209   2.279  0.3457 -0.2659 -0.0439
25514W        W41408   9.831  13.173  14.770 -0.3298  0.0754  0.3964
25515W        W41409   1.961  16.417   3.315 -0.2239 -0.0407 -0.1306
25516W        W41410  10.157  15.168  13.155 -0.1633 -0.0293 -0.3837
25517W        W41411  10.788  10.147   5.764 -0.2218  0.2412 -0.3123
25518W        W41412  10.333   2.424  11.848  0.0630  0.2892 -0.0468
25519W        W41413   4.806  13.007  15.267  0.2902 -0.0113 -0.1906
25520W        W41414   0.177   2.779  11.772 -0.4459 -0.0895  0.2041
25521W        W41415  15.314  13.136  15.372 -0.0340 -0.1234 -0.2849
25522W        W41416  17.730   6.744   2.991 -0.2835  0.1430 -0.1239
25523W        W41417   5.106   7.816  12.536 -0.0367 -0.0679  0.2093
25524W        W41418  14.601   7.629  11.008  0.1100 -0.0821 -0.0373
25525W        W41419  14.849   1.255   0.470 -0.1393 -0.0003 -0.1420
25526W        W41420  14.395  15.718   2.422 -0.0688 -0.0089 -0.1561
25527W        W41421   7.209  14.933   3.357 -0.1156 -0.2048  0.0230
25528W        W41422  11.542   7.738  13.466  0.5027 -0.1590 -0.1110
25529W        W41423  15.519  18.279   4.478 -0.2219 -0.2240 -0.0061
25530W        W41424   4.989  16.568   3.321  0.1147  0.1947 -0.0162
25531W        W41425  18.023   6.039   3.631  0.1598  0.1260  0.1698
25532W        W41426   2.277   1.411   5.248  0.0248  0.0533 -0.3046
25533W        W41427   5.237   9.255  11.788  0.2292 -0.1584 -0.0410
25534W        W41428   8.684  12.713  13.538  0.1165  0.0524 -0.2441
25535W        W41429   5.153   5.283   0.117  0.2413 -0.1461 -0.0967
25536W        W41430  12.768   7.705   1.151 -0.0595 -0.0873 -0.2134
25537W        W41431  17.477   2.537   0.129 -0.1781 -0.0428 -0.0918
25538W        W41432  15.808   8.969   0.813 -0.2763 -0.1616  0.1491
25539W        W41433  15.048  16.552   4.893 -0.1737  0.3017 -0.0838
25540W        W41434  11.405   1.052   5.586  0.1638 -0.1177 -0.0166
25541W        W41435   7.093   1.355  10.930 -0.1015  0.3019 -0.0221
25542W        W41436  10.811   0.822   4.241  0.0684  0.0236 -0.3061
25543W        W41437   8.301  12.730   0.380 -0.2762  0.0143 -0.1277
25544W        W41438  16.979  17.688   0.857  0.0755 -0.1217 -0.0684
25545W        W41439   3.509   9.488   2.544  0.0843 -0.0556  0.2226
25546W        W41440  18.520  17.655  14.260 -0.3109  0.0996  0.1790
25547W        W41441  17.679  15.817   1.821 -0.1589 -0.1662  0.1154
25548W        W41442   5.605  18.024   1.533  0.2013 -0.3297  0.0816
25549W        W41443   6.826   2.868  14.901  0.1741 -0.3090 -0.1364
25550W        W41444   7.108  15.687   2.029  0.2457 -0.0465 -0.0854
25551W        W41445   1.940  11.048  13.958 -0.1532  0.0267  0.1357
25552W        W41446   8.588  14.391  11.502  0.0852  0.2499 -0.0047
25553W        W41447   0.090  13.190   3.463  0.0499  0.1375 -0.2286
25554W        W41448   0.359  17.568   5.162  0.0885  0.0332 -0.0721
25555W        W41449   4.189   1.346   4.098 -0.0383 -0.0857  0.4093
25556W        W41450   9.323   8.056   2.400 -0.0903 -0.3200 -0.0030
25557W        W41451   9.153   5.665   1.340 -0.1140 -0.1353 -0.3268
25558W        W41452  12.641  17.986   0.234 -0.2032 -0.1144  0.1975
25559W        W41453   3.552  18.259   3.274  0.1767  0.2631  0.2695
25560W        W41454   9.153   3.591  10.589  0.1372 -0.1188  0.0886
25561W        W41455  18.800  14.814   4.927 -0.0296 -0.0402 -0.4358
25562W        W41456   2.539   0.974   1.281 -0.1145  0.3346 -0.0294
25563W        W41457   1.119  17.359  13.462 -0.1298  0.3251  0.2053
25564W        W41458   9.482  18.549   1.872 -0.0927 -0.1202 -0.0318
25565W        W41459  18.098   7.596   0.133 -0.1250 -0.0785 -0.0204
25566W        W41460  16.592  11.484  15.450  0.1279 -0.3668  0.0912
25567W        W41461   7.347  11.675   1.914 -0.0379 -0.1530 -0.1221
25568W        W41462  13.151  18.351  11.048 -0.0281  0.1575  0.2149
25569W        W41463  16.666  10.240   2.160  0.0976 -0.1147 -0.0731
25570W        W41464   9.330   0.040  10.493 -0.0628  0.1487 -0.5380
25571W        W41465   5.730  12.788   2.813  0.0456 -0.0880  0.0070
25572W        W41466   1.037   6.679   0.999 -0.0395 -0.5745 -0.3007
25573W        W41467   8.459  13.535   3.835 -0.2339 -0.0063  0.4471
25574W        W41468   1.469   5.221   3.620 -0.0578 -0.1995  0.1679
25575W        W41469   2.708  12.934   3.893  0.1257  0.1266  0.2707
25576W        W41470   2.024   0.679   1.328 -0.0923  0.1523  0.0724
25577W        W41471   7.157   0.094   1.415 -0.0619 -0.0138 -0.0369
25578W        W41472  14.366   4.459   9.592  0.0653 -0.1377 -0.1066
25579W        W41473  12.025   6.064  12.732 -0.2142  0.2675 -0.1191
25580W        W41474   4.791  15.769  14.976 -0.0175  0.3490  0.2066
25581W        W41475   5.401   7.972   0.699  0.1286 -0.4230  0.0427
25582W        W41476  13.063  15.165   0.869 -0.1340 -0.1785 -0.2612
25583W        W41477   2.805  17.645  11.100 -0.1736 -0.1183  0.0676
25584W        W41478   1.007   4.481  15.409 -0.6271 -0.0988  0.1172
25585W        W41479   5.860   5.954   0.903  0.0488 -0.1964 -0.0872
25586W        W41480  14.262  13.844   4.080  0.2241  0.0485  0.1262
25587W        W41481   7.400   0.127  11.465 -0.2919 -0.1018 -0.0737
25588W        W41482   6.220  16.110  11.735 -0.1882  0.1852  0.0926
25589W        W41483   4.888  17.916   3.338  0.2028  0.0275  0.0560
25590W        W41484  12.479  10.093  10.260  0.0773  0.3412  0.2447
25591W        W41485   8.875   0.442   2.759  0.3042  0.0799  0.3097
25592W        W41486  13.528   1.755   5.440  0.2436 -0.1074 -0.1081
25593W        W41487   7.801   5.364  12.083 -0.1118 -0.1026  0.0416
25594W        W41488   2.512   1.844   0.848  0.1161 -0.1586  0.0192
25595W        W41489  16.211   5.058   3.842  0.1387  0.2707  0.0234
25596W        W41490  11.292   3.469   0.827 -0.0949  0.0093 -0.1278
25597W        W41491   3.548  12.736   3.376 -0.0133  0.1712  0.1918
25598W        W41492   6.754  17.471  14.639 -0.1321 -0.0212  0.3029
25599W        W41493  10.202  13.739   6.133 -0.0516  0.2199  0.1490
25600W        W41494   3.262  11.323  12.301  0.1187 -0.2557  0.2393
25601W        W41495   0.839   4.858   1.200 -0.1637  0.2499  0.1853
25602W        W41496   0.617  15.769   3.798 -0.2415  0.0606 -0.0941
25603W        W41497  10.614  14.362   9.606  0.0856 -0.2266  0.3369
25604W        W41498  10.303   7.678   1.817  0.0149 -0.0217  0.0997
25605W        W41499   4.847  10.140   1.214 -0.1485  0.1940  0.0748
25606W        W41500   5.230   0.162  11.099 -0.0705  0.0284 -0.2497
25607W        W41501   0.930   0.043   4.075  0.0750 -0.0186  0.0523
25608W        W41502   7.557   4.103   3.560  0.1267  0.2564  0.2486
25609W        W41503  12.263  10.759  12.949  0.1572 -0.1765 -0.0535
25610W        W41504   3.781  12.352  12.256 -0.1419  0.0170 -0.1638
25611W        W41505  16.991   1.268   0.802  0.0202  0.0723 -0.1063
25612W        W41506  18.832  12.053  13.587  0.0357 -0.0936  0.1243
25613W        W41507  11.827  12.963   1.991 -0.1286  0.1938 -0.3247
25614W        W41508   0.445  16.990  13.726 -0.0112 -0.1039 -0.3083
25615W        W41509   1.602   7.824   9.237  0.1579 -0.2413  0.1129
25616W        W41510   1.143  16.199   2.979 -0.0777 -0.3480 -0.1893
25617W        W41511   0.745  16.470  13.281  0.1061  0.0826 -0.0059
25618W        W41512   9.100   5.507   0.519  0.1204 -0.2290 -0.1515
25619W        W41513   7.491  13.538   2.535  0.0411  0.5806  0.0771
25620W        W41514   3.959   4.550   4.324 -0.1097 -0.2533 -0.2695
25621W        W41515  17.422  13.819   3.967  0.2585 -0.1794  0.0164
25622W        W41516   3.263   2.686  11.252 -0.0014 -0.1319  0.2382
25623W        W41517  16.600  16.586   5.214 -0.0515 -0.3217  0.1572
25624W        W41518  15.057   4.510  13.879  0.3915 -0.1699 -0.0808
25625W        W41519   8.108   7.535   3.036 -0.1642 -0.0220  0.2628
25626W        W41520   8.566   1.195   2.688  0.1045 -0.0650  0.1276
25627W        W41521  10.252   0.441   0.485 -0.1094  0.3218 -0.2109
25628W        W41522  12.544  11.760  14.467  0.2601  0.0317 -0.2000
25629W        W41523  12.771   8.493  11.314  0.0862 -0.2581  0.5403
25630W        W41524  17.526   2.228   0.743  0.0994 -0.2135  0.1678
25631W        W41525  17.771  11.802  12.112  0.0152 -0.4923  0.0503
25632W        W41526   5.795   3.531   3.075  0.0430  0.2594  0.0853
25633W        W41527  16.623  14.369   1.585  0.0314 -0.0100  0.0225
25634W        W41528  12.095   4.381   1.564  0.0448  0.0266 -0.2448
25635W        W41529   2.941   3.112   1.275 -0.1153  0.2308  0.0848
25636W        W41530  14.179  16.568  11.127 -0.2327  0.0904 -0.1201
25637W        W41531   8.034  11.343   0.747  0.5035 -0.0931 -0.1648
25638W        W41532  17.745  18.093   5.367 -0.1732  0.0214 -0.0279
25639W        W41533   5.632   9.824  15.488  0.0017  0.0461  0.2588
25640W        W41534   0.759  16.096  14.911  0.0635 -0.1471 -0.1769
25641W        W41535  14.038   0.907  13.405  0.0205  0.2549  0.0208
25642W        W41536   7.002   6.540  14.959 -0.0506 -0.0022 -0.2501
25643W        W41537   3.209   3.557  15.467  0.2009  0.0830 -0.0737
25644W        W41538   4.833  16.359   2.121  0.0446 -0.1483  0.0571
25645W        W41539  17.066   7.231  14.028 -0.1256  0.1003  0.2745
25646W        W41540   6.942  13.071   0.381  0.0724  0.0126 -0.0025
25647W        W41541   1.043  18.377  13.206 -0.0532 -0.1704 -0.0956
25648W        W41542  17.250  11.009   3.112 -0.0903 -0.2327  0.1274
25649W        W41543  12.683  14.015   3.585 -0.2276  0.0416 -0.3984
25650W        W41544  11.410   1.459  12.869 -0.0852 -0.1429 -0.0587
25651W        W41545  17.378  11.307   0.914  0.0256  0.4351 -0.0005
25652W        W41546   4.523   6.855  15.161  0.1621 -0.1113 -0.1022
25653W        W41547  17.208  10.600  13.383 -0.4063 -0.4968 -0.0546
25654W        W41548   2.178   6.869  14.677  0.4245  0.0362 -0.0530
25655W        W41549   4.703  12.865  11.362  0.1285  0.0451 -0.0677
25656W        W41550  18.022   3.042   3.144 -0.2448  0.1224  0.2932
25657W        W41551  18.136   7.051   3.159 -0.5889 -0.2609  0.0400
25658W        W41552  13.789   9.055   3.653 -0.0879 -0.2094 -0.0631
25659W        W41553   4.866   1.828  13.904 -0.1024  0.2801 -0.1475
25660W        W41554  10.835  13.605   3.458 -0.2034  0.3610 -0.0455
25661W        W41555   7.094  12.406   4.816  0.1955  0.4622 -0.2036
25662W        W41556   6.145  10.981   0.082 -0.1491 -0.0503  0.2172
25663W        W41557  18.040   5.333  12.595 -0.2557 -0.2286  0.3132
25664W        W41558   8.394   9.262  13.598 -0.1201 -0.0342  0.1170
25665W        W41559  13.621   9.050   1.324  0.0887  0.1059 -0.1690
25666W        W41560   2.181   5.821  13.229  0.0045 -0.2405 -0.0119
25667W        W41561  17.568   4.648  13.559  0.0091  0.2159  0.1309
25668W        W41562  13.035  18.858  15.284 -0.0658 -0.2122 -0.3897
25669W        W41563   4.196   9.844  12.340 -0.3140  0.3151 -0.3763
25670W        W41564  18.243   6.119  10.322  0.1260 -0.0564 -0.0445
25671W        W41565  14.087  12.939   0.993 -0.0758 -0.1161  0.0475
25672W        W41566   0.287   4.688   1.191 -0.1395  0.2469  0.0378
25673W        W41567   9.632  12.563  11.728  0.2779 -0.2629  0.1446
25674W        W41568  17.088   6.446   1.106  0.0695 -0.2923  0.0032
25675W        W41569  12.701  12.341   1.019  0.0672 -0.1585  0.0520
25676W        W41570  16.204  17.431  11.660  0.3843  0.1360 -0.5632
25677W        W41571   7.348   1.942  13.103  0.0305  0.1207 -0.0020
25678W        W41572   8.200  14.049  12.545  0.2360 -0.3982 -0.1233
25679W        W41573  16.664  17.075  15.252  0.0500  0.2565  0.2128
25680W        W41574  10.923   3.980   9.714  0.0852  0.1447 -0.0757
25681W        W41575  15.341   0.188   1.120  0.2857 -0.0010  0.3097
25682W        W41576   3.221  17.194   0.262  0.0407 -0.0220 -0.2163
25683W        W41577  16.275   2.906  15.423  0.1600 -0.2723 -0.0206
25684W        W41578  16.817  18.126  11.767 -0.2523  0.3845  0.1264
25685W        W41579  10.662  12.084   5.889 -0.0147  0.0465  0.1648
25686W        W41580  10.648  16.338   0.263  0.1163  0.0296 -0.1037
25687W        W41581   0.675  11.347   3.923 -0.1593  0.0338 -0.2396
25688W        W41582   5.024  18.212  10.634 -0.0886 -0.2742 -0.4488
25689W        W41583  10.469   2.244   0.961  0.0741 -0.2299 -0.1359
25690W        W41584  17.807  18.573   1.695  0.0784  0.0687 -0.0875
25691W        W41585  17.782   3.071  12.045 -0.0674 -0.2379  0.1995
25692W        W41586  10.482  13.948   3.809  0.0906 -0.0062  0.0739
25693W        W41587   8.707  12.001  13.090  0.1886 -0.2264  0.1119
25694W        W41588  13.961  16.307  14.696 -0.1382  0.0966  0.2183
25695W        W41589   5.413   2.749  14.459  0.0170 -0.0194  0.0772
25696W        W41590  12.760  13.007  13.119 -0.3098 -0.0791  0.1159
25697W        W41591  15.423   9.766   3.573 -0.0449  0.1512 -0.2695
25698W        W41592   8.868   6.112  14.519 -0.1735  0.3080 -0.1907
25699W        W41593   1.942  10.837   0.119 -0.1709 -0.1652 -0.2156
25700W        W41594   4.313  17.502   1.547  0.0074  0.0465 -0.0900
25701W        W41595  17.204   6.396   3.046 -0.1730 -0.1405  0.0789
25702W        W41596  18.354   5.693   2.929 -0.1325  0.2162  0.0300
25703W        W41597   1.181   1.184  14.421  0.1471  0.1156 -0.0820
25704W        W41598  18.055   2.165  13.042 -0.1232 -0.0228 -0.1130
25705W        W41599  13.556   5.151  12.985 -0.1119 -0.0234  0.1125
25706W        W41600   3.656  10.265  11.178  0.5489 -0.0012  0.2056
25707W        W41601  18.553  11.099   0.539 -0.2325 -0.2833 -0.0551
25708W        W41602  12.871   7.677   5.261  0.0246  0.0508 -0.0146
25709W        W41603  14.847   7.535   1.540 -0.2522 -0.0212  0.0227
25710W        W41604  15.039   4.210  11.787  0.0850  0.0920 -0.2091
25711W        W41605  18.832   2.474   0.412  0.1178  0.0270 -0.0893
25712W        W41606   0.312  15.437  14.422  0.1770 -0.1305  0.0028
25713W        W41607   0.664   6.534   4.658 -0.1521 -0.0988  0.0191
25714W        W41608  14.834  16.380   0.429  0.0759  0.0792 -0.1733
25715W        W41609  17.354   3.339  15.396  0.1983  0.3226 -0.0320
25716W        W41610   5.689  15.261   0.813 -0.2074  0.1244  0.5041
25717W        W41611   1.205   7.273   2.867 -0.1579 -0.1547 -0.1114
25718W        W41612  11.610   4.811   1.705 -0.2066  0.1272 -0.6031
25719W        W41613   4.083   4.950   2.673 -0.3012 -0.0775 -0.0780
25720W        W41614   5.590   0.456   4.949  0.1100 -0.0842  0.1675
25721W        W41615   9.029  14.457  10.560 -0.1089 -0.0462 -0.0642
25722W        W41616   8.591   8.680  10.583  0.2576 -0.0955  0.4134
25723W        W41617  16.407   0.063  11.831  0.0898 -0.1367  0.1788
25724W        W41618   9.474   9.179  14.831  0.1714  0.1431 -0.4529
25725W        W41619  18.101  16.586  14.110  0.0107  0.3008  0.0329
25726W        W41620   3.045   8.737  10.336  0.1704 -0.0827  0.1109
25727W        W41621  17.235  15.898   5.068  0.3697  0.1724  0.0540
25728W        W41622  11.825  14.131  13.125  0.0758 -0.0835 -0.1214
25729W        W41623   1.488  17.334   0.253  0.0106 -0.1475 -0.0117
25730W        W41624  12.804  15.585  13.974  0.1966  0.3026  0.2935
25731W        W41625   1.048   6.582  13.398  0.2759  0.0755 -0.0247
25732W        W41626   4.728  13.534  12.657  0.0959  0.1685  0.0576
25733W        W41627  14.161   7.385   1.154  0.0941  0.2046  0.1476
25734W        W41628   8.473   5.472  11.036  0.1146  0.2676  0.2314
25735W        W41629   0.195  16.484   4.469  0.2639 -0.1661  0.3687
25736W        W41630   2.501   6.382  11.418  0.0735 -0.1622  0.1857
25737W        W41631   1.805  16.132  13.102 -0.3059 -0.1924 -0.0767
25738W        W41632  13.553   2.207  14.084  0.0868 -0.1966  0.1306
25739W        W41633  12.299   3.768   4.981  0.2017 -0.1983  0.1524
25740W        W41634   6.004  17.586  11.367 -0.0180  0.0175 -0.2699
25741W        W41635  10.614   0.510   3.208 -0.0873 -0.1417 -0.2974
25742W        W41636  18.742  12.300   4.231 -0.1258  0.1687 -0.1318
25743W        W41637   7.880   9.071   0.256  0.1184 -0.1850  0.0024
25744W        W41638   5.654   4.715   2.035  0.0539 -0.0828 -0.0138
25745W        W41639   5.061  18.024  13.670  0.1755  0.0908 -0.0013
25746W        W41640  18.102  16.031   0.316 -0.2683  0.2027  0.0711
25747W        W41641  14.842  15.900   6.312 -0.0757 -0.3350  0.3588
25748W        W41642   2.648   6.253   3.391 -0.0062  0.0442 -0.0864
25749W        W41643   6.165  11.198  10.391  0.0300  0.0784  0.2686
25750W        W41644   7.788   8.180  12.509 -0.0639 -0.0026 -0.2684
25751W        W41645   8.216  16.121  14.386  0.0106  0.1221  0.3212
25752W        W41646   1.012  12.521  13.294  0.1906 -0.2442  0.0662
25753W        W41647   0.992   2.004   0.773  0.2770 -0.0514  0.1330
25754W        W41648  18.637  10.968   2.490 -0.1141 -0.2242  0.1185
25755W        W41649   0.878   2.759  13.059 -0.3224  0.1367  0.0312
25756W        W41650  12.729   0.875  14.199 -0.1615  0.1051  0.0107
25757W        W41651   1.662  15.387  14.354 -0.1285  0.0758  0.1450
25758W        W41652   5.773   7.405  14.263  0.3395 -0.1804 -0.1031
25759W        W41653  16.921   3.360   0.609  0.1256 -0.2430 -0.0899
25760W        W41654  11.250  18.266   5.925 -0.1438  0.3962  0.0932
25761W        W41655  10.383  16.865   3.233  0.1481 -0.1027 -0.0335
25762W        W41656   0.514  15.096  10.450 -0.1237 -0.1451 -0.1045
25763W        W41657  15.230   0.177   4.902  0.0132  0.1008  0.1515
25764W        W41658   9.745   1.760  11.924 -0.1648 -0.4783 -0.0017
25765W        W41659  15.729  12.471   3.349  0.2376  0.3092 -0.1650
25766W        W41660   0.577   0.771   1.885  0.0737 -0.1535  0.0122
25767W        W41661  15.938   0.063   1.911  0.1812  0.2590 -0.0368
25768W        W41662  18.214  10.847   1.438  0.0816 -0.1855 -0.1872
25769W        W41663   4.219   7.981   1.718  0.0871 -0.1103 -0.2174
25770W        W41664   4.563  14.563  12.406  0.0930 -0.2422  0.0935
25771W        W41665  11.694   1.810  13.117  0.1513  0.1611  0.2671
25772W        W41666  14.482   5.697   0.425 -0.0482  0.0021 -0.1825
25773W        W41667   6.054  10.112   3.420 -0.1022  0.1443  0.1940
25774W        W41668   8.062   0.435   0.410  0.1589  0.2324 -0.0427
25775W        W41669  18.358  12.918  12.169 -0.0783 -0.0066 -0.1077
25776W        W41670  12.854  10.652  15.159  0.3220 -0.0760  0.0621
25777W        W41671   5.027   9.332   2.885  0.0808 -0.0129  0.0218
25778W        W41672  17.137  17.149  14.298 -0.0510 -0.4830 -0.3301
25779W        W41673  14.319   6.271  12.303 -0.2975 -0.0039  0.3876
25780W        W41674   1.838   7.383  14.015 -0.2089 -0.2198 -0.0933
25781W        W41675  13.339  16.653  14.529  0.0180 -0.2921  0.0496
25782W        W41676   3.537   5.366  10.549 -0.0231 -0.0213 -0.1304
25783W        W41677  15.874  12.364   3.794  0.2184 -0.0485 -0.3985
25784W        W41678   1.350   4.578  13.069  0.2039  0.1168 -0.0448
25785W        W41679  11.299  18.822   0.783  0.0248  0.0896  0.2075
25786W        W41680  17.588   8.750   5.957 -0.0811  0.2443 -0.0036
25787W        W41681  13.773   1.944   0.064  0.0145 -0.0321 -0.0904
25788W        W41682  14.108  11.966   3.726  0.1188 -0.1203  0.0586
25789W        W41683   9.004  18.876  11.408  0.0399 -0.0422  0.2830
25790W        W41684   6.028  17.195   1.925 -0.1079 -0.1251 -0.3125
25791W        W41685  13.486   4.919   5.130 -0.0068  0.0269 -0.0860
25792W        W41686  15.899   8.806   0.019 -0.0417  0.0901 -0.0852
25793W        W41687  14.693  12.882  10.782  0.1985 -0.1326  0.0511
25794W        W41688  14.503  17.351   3.797 -0.0457 -0.0755  0.2248
25795W        W41689   1.972   4.321   1.254  0.0152  0.4411  0.1289
25796W        W41690   8.793  10.054   1.846 -0.5211 -0.1334  0.3061
25797W        W41691  18.760  11.043  14.657  0.0014 -0.1200  0.0897
25798W        W41692  14.123   6.793   3.309  0.0748  0.0952 -0.0844
25799W        W41693   3.745  11.020   2.913 -0.0688 -0.5748  0.1181
25800W        W41694   8.370   7.180   3.938  0.0833  0.0145  0.3772
25801W        W41695   6.964  12.823   5.561  0.4186 -0.0340 -0.3215
25802W        W41696  15.516  16.456  12.965  0.3814  0.1124  0.3421
25803W        W41697  17.609   9.616   3.404  0.0251  0.1017  0.2251
25804W        W41698   9.303  17.551   4.557  0.1353 -0.1389 -0.1397
25805W        W41699   1.482   8.397  12.425 -0.1228  0.0236 -0.4088
25806W        W41700   0.352   6.200  14.355  0.1204  0.1335  0.0756
25807W        W41701  11.455   4.214  14.541  0.0866  0.1632  0.0298
25808W        W41702   6.515   7.866   1.578 -0.0907 -0.0133  0.2659
25809W        W41703   2.254  16.033  11.286 -0.1833 -0.0756  0.0891
25810W        W41704  16.822   5.475  10.033 -0.0022  0.0274 -0.0227
25811W        W41705  10.831  12.100   2.364 -0.0262  0.1874 -0.1534
25812W        W41706  16.612  16.405   1.972  0.3841  0.0822 -0.2125
25813W        W41707   1.079  13.460  11.966  0.0957  0.0556  0.4145
25814W        W41708   2.135  15.259  11.295  0.0596 -0.0563 -0.1286
25815W        W41709  12.922   9.246   0.801 -0.0894 -0.3355 -0.1299
25816W        W41710  15.575  11.854  12.187  0.1718 -0.3004  0.0948
25817W        W41711  13.738   4.121  13.178  0.1997  0.0384 -0.1842
25818W        W41712  14.799  11.703  14.936  0.1777 -0.1222  0.3822
25819W        W41713   7.696   1.377   2.263 -0.0079 -0.2176  0.0265
25820W        W41714  18.221  14.512   5.138 -0.0312 -0.0461 -0.2012
25821W        W41715  11.135   9.100   3.651 -0.4008 -0.1646  0.0111
25822W        W41716   0.208   8.092   3.390 -0.0665  0.2193  0.1032
25823W        W41717  14.283   7.681  14.986  0.0790  0.3314  0.1764
25824W        W41718   7.575   6.225   2.388 -0.0825 -0.1246 -0.1095
25825W        W41719   6.190   5.525   0.746  0.1328  0.2560  0.2928
25826W        W41720  15.879  17.270  11.259 -0.1003 -0.1115 -0.0731
25827W        W41721  14.750  11.691   4.315 -0.0813 -0.1328 -0.0393
25828W        W41722   2.688   4.952   0.152 -0.2514 -0.2194 -0.0716
25829W        W41723  13.910   2.440   3.198  0.2815  0.0449 -0.2670
25830W        W41724  16.004  15.039   0.374 -0.3793 -0.4568 -0.0093
25831W        W41725  13.537  14.998  15.103  0.0706  0.0811 -0.1728
25832W        W41726   3.109  18.219  11.810 -0.2684 -0.1221 -0.3541
25833W        W41727   3.027  18.051   1.908  0.1345  0.3319  0.0189
25834W        W41728  10.562  10.577   2.521  0.0061 -0.0754 -0.1017
25835W        W41729   7.424   2.430   1.950 -0.0434  0.0602  0.1638
25836W        W41730   0.826  18.109  10.947 -0.0397  0.0480 -0.3406
25837W        W41731  14.401   9.555  10.046 -0.1630  0.1983  0.1618
25838W        W41732  16.241   7.504   0.599 -0.1661 -0.0255  0.0451
25839W        W41733   6.396  14.000   1.753 -0.3811 -0.1247  0.3307
25840W        W41734  18.482  16.226   4.143  0.2428  0.1633  0.2394
25841W        W41735  15.427   9.729  13.858 -0.2657 -0.3470  0.0421
25842W        W41736  18.434   3.593  13.230 -0.1119  0.0868 -0.0706
25843W        W41737   4.553   7.688   1.254  0.2391 -0.1999  0.1179
25844W        W41738   0.442  10.129  10.660  0.0438 -0.0452  0.0011
25845W        W41739  13.007   8.695   0.432 -0.0385  0.0008  0.3128
25846W        W41740   3.007  14.930   0.756 -0.4012 -0.1709 -0.0388
25847W        W41741  11.045   3.890  12.467 -0.0340 -0.0616  0.6222
25848W        W41742   8.572  16.006   1.027 -0.2828  0.1593 -0.1887
25849W        W41743   6.857  11.802   0.123  0.0571  0.0239 -0.2067
25850W        W41744   1.330  12.934  13.337  0.2619 -0.1455 -0.0895
25851W        W41745  16.617   8.906   4.914 -0.1555 -0.0652 -0.0445
25852W        W41746  12.366   2.742  13.322  0.1358 -0.0276  0.0520
25853W        W41747   1.197   8.096  14.641 -0.0712 -0.0663  0.0564
25854W        W41748   4.417   1.791  11.475  0.2094  0.0315  0.2236
25855W        W41749   2.757  15.417   2.894 -0.0866 -0.3571 -0.1292
25856W        W41750  12.825   4.081  12.566 -0.1343  0.1201 -0.0038
25857W        W41751  16.264  16.708   4.293  0.1300 -0.2038 -0.4520
25858W        W41752  17.454   8.798   1.687 -0.1097  0.2292 -0.0192
25859W        W41753   7.396  13.650  13.899  0.2183  0.1013  0.3311
25860W        W41754   4.432  12.740   3.308  0.0257 -0.3040 -0.1740
25861W        W41755  13.442   5.270   3.788 -0.1699 -0.2891  0.2698
25862W        W41756   4.039   5.495  10.660 -0.0128 -0.0032  0.1750
25863W        W41757  18.451  14.940   5.333 -0.0780 -0.1580 -0.0238
25864W        W41758  17.621  11.408  15.427 -0.0288 -0.1882  0.0590
25865W        W41759   8.650   7.956   1.074 -0.1321  0.0480  0.0906
25866W        W41760   0.621  10.031   2.205 -0.2841  0.3124  0.0929
25867W        W41761  15.174   6.266   1.039 -0.0381 -0.0998 -0.1615
25868W        W41762   9.402   5.538   1.738  0.0011  0.1114 -0.0923
25869W        W41763  18.607   8.625  14.270  0.3454 -0.0746  0.0910
25870W        W41764  18.774  14.382   2.830 -0.1124  0.1099  0.0733
25871W        W41765  11.707  15.778  11.737  0.0327 -0.2487 -0.2598
25872W        W41766  13.019   0.520  13.348  0.0310  0.3216 -0.3437
25873W        W41767   8.244   8.967   1.567 -0.1924 -0.1058 -0.1140
25874W        W41768  18.304  18.579   2.802 -0.0609 -0.1753 -0.3363
25875W        W41769  17.574   5.023   3.285 -0.0035 -0.4520  0.0720
25876W        W41770  13.802  10.860  11.074  0.0327  0.2626  0.4729
25877W        W41771   5.473  18.006   4.195 -0.0237  0.0682 -0.1746
25878W        W41772   0.305   4.500  10.135 -0.2108  0.4190 -0.2693
25879W        W41773   6.973  14.482   9.899 -0.0924 -0.1865  0.0095
25880W        W41774   0.797  12.244  11.450 -0.3480  0.2688  0.0325
25881W        W41775   0.146   3.770   2.577  0.0171  0.2266  0.0333
25882W        W41776  15.085  11.441  13.331  0.0998 -0.0457  0.0293
25883W        W41777   5.600   8.454   2.007 -0.0306 -0.2130 -0.1018
25884W        W41778  15.800   0.157   1.434 -0.1929 -0.2957 -0.0337
25885W        W41779  14.998   3.719  14.225 -0.0209  0.3084 -0.2678
25886W        W41780  12.111   5.729   6.011 -0.1936  0.3562  0.2293
25887W        W41781  10.424   0.427   4.319 -0.0268 -0.0609 -0.1191
25888W        W41782  12.670   9.964  12.583 -0.3651  0.3373  0.1650
25889W        W41783  11.317   0.939   0.113  0.0559  0.2484  0.0687
25890W        W41784   4.466   4.834   4.290 -0.1959  0.0822  0.0242
25891W        W41785   9.586   1.787  14.498 -0.3360  0.0847  0.0255
25892W        W41786   4.143  14.698   1.862  0.1898 -0.0895 -0.1822
25893W        W41787  13.115  12.515  10.404  0.0604  0.1468  0.1162
25894W        W41788   0.245  17.314  14.889  0.1815 -0.1067  0.1037
25895W        W41789   0.642   0.388  11.299  0.0235  0.2204 -0.0049
25896W        W41790   1.801  10.380  10.518  0.1046  0.3708  0.1588
25897W        W41791   4.797  18.093   2.883 -0.1408  0.0598  0.2803
25898W        W41792  15.340  13.579  13.324  0.0165 -0.1507 -0.0617
25899W        W41793   0.251   8.965   4.279  0.0388 -0.3254  0.0596
25900W        W41794   0.274  17.332   4.710 -0.1909  0.0027 -0.1301
25901W        W41795  15.811   2.299   2.360 -0.2206  0.0879  0.1923
25902W        W41796   6.564  14.197  14.759 -0.0372  0.0445 -0.0688
25903W        W41797   6.481  12.675   1.177  0.2778  0.0153  0.1628
25904W        W41798   5.033   6.224   3.350 -0.0084  0.2285  0.0101
25905W        W41799   6.285   6.485  13.920  0.1039  0.2697 -0.0127
25906W        W41800   3.877  12.744  11.680  0.2807 -0.3194 -0.0849
25907W        W41801  15.799  10.062   5.746 -0.1137 -0.0495 -0.1834
25908W        W41802  11.445  14.357   1.886  0.0074 -0.0098 -0.0845
25909W        W41803  15.632  12.097  13.517  0.2154 -0.2373  0.0430
25910W        W41804   2.305   9.595  10.919  0.1684  0.1443 -0.0967
25911W        W41805  14.197  18.763   5.007  0.1960  0.0586  0.0361
25912W        W41806   4.537  16.794   3.125  0.2316 -0.0972  0.0391
25913W        W41807   1.653   9.859   3.963 -0.0261 -0.0243 -0.0503
25914W        W41808   7.545  10.692   0.949  0.3988  0.4490 -0.2086
25915W        W41809  15.391  10.081  10.642  0.0766 -0.3672 -0.2031
25916W        W41810  17.959  12.481   5.039 -0.0916 -0.0189  0.0358
25917W        W41811   3.587   2.632  14.469  0.1784 -0.1618 -0.0354
25918W        W41812  16.505   2.599   1.010  0.2931  0.0074 -0.0413
25919W        W41813   8.375  17.845  11.873 -0.1013  0.0306  0.1499
25920W        W41814   4.582   6.098  13.890  0.1119  0.2780 -0.1369
25921W        W41815   5.764   9.372   0.303  0.0957  0.1297  0.0065
25922W        W41816  14.038  14.056  11.167  0.1116  0.0093 -0.1100
25923W        W41817   8.523  15.233  15.178  0.2524 -0.3190 -0.0022
25924W        W41818   1.192   3.199   0.699  0.1015 -0.0829 -0.0302
25925W        W41819   1.932  15.301   3.293 -0.2535  0.1349 -0.3290
25926W        W41820   0.812   6.089  12.765  0.0848  0.0038 -0.1256
25927W        W41821  15.232   3.304  12.013  0.2068 -0.1871  0.2066
25928W        W41822   6.724   2.283   4.415  0.0822 -0.1140  0.0592
25929W        W41823  15.784  17.961  15.094 -0.3070 -0.0673  0.1030
25930W        W41824   8.860  11.064   4.715 -0.0697  0.2581  0.1266
25931W        W41825  18.487  12.298   0.597 -0.1575  0.0127 -0.0498
25932W        W41826   2.111   0.103   2.156  0.1066  0.0345  0.3834
25933W        W41827  10.186   8.500  11.394  0.2446 -0.0984  0.1478
25934W        W41828   5.955   8.747  14.732  0.1134  0.1325 -0.0755
25935W        W41829  10.359  18.251  11.457 -0.1522 -0.0299  0.4275
25936W        W41830   5.263   1.247   0.088 -0.0029 -0.3085 -0.1500
25937W        W41831   4.781  12.982  13.348  0.0231  0.2518  0.3087
25938W        W41832   8.014  18.844   2.836 -0.0863  0.4644 -0.1218
25939W        W41833  11.365   8.963  10.882 -0.1430  0.3949  0.1866
25940W        W41834   6.363  14.868   0.180 -0.1177  0.0720  0.2828
25941W        W41835  14.379  11.177   0.004  0.2883  0.1200  0.0726
25942W        W41836   1.942   6.653   3.083  0.1536 -0.3038 -0.1015
25943W        W41837   6.109  14.329   4.599  0.1940 -0.0640 -0.0703
25944W        W41838  14.402   8.930   4.945 -0.0065  0.1607  0.1264
25945W        W41839  13.807   9.487   1.211  0.2237 -0.0560  0.0246
25946W        W41840   4.130  18.609   2.993  0.0275 -0.2506 -0.3518
25947W        W41841   2.802  17.368  13.086 -0.0125 -0.2577  0.1573
25948W        W41842   0.329   4.327   4.631 -0.1486 -0.0254  0.1021
25949W        W41843  17.669   7.253  15.481  0.1013  0.1961  0.2529
25950W        W41844  10.235   1.906  11.725 -0.0262 -0.0509  0.1824
25951W        W41845   3.999   6.120  14.999  0.0278 -0.1217 -0.0196
25952W        W41846  16.699   5.948  13.765 -0.0593  0.2082  0.0344
25953W        W41847  14.716   1.936  15.378 -0.0071 -0.1553 -0.1402
25954W        W41848  14.454   2.332  15.284  0.1446 -0.2682 -0.0385
25955W        W41849  15.788   8.019  10.992 -0.0039  0.1937 -0.2824
25956W        W41850   7.759  14.559   1.366 -0.0712  0.1644 -0.1487
25957W        W41851  13.081  18.129   2.148  0.1157 -0.4452  0.0797
25958W        W41852  16.441  12.887  13.317 -0.2294  0.0018 -0.2794
25959W        W41853   4.288   1.869  13.053 -0.0630  0.3026  0.0378
25960W        W41854   0.012   6.191   3.594 -0.0262 -0.1950 -0.2376
25961W        W41855  12.219   0.286   4.846  0.2005 -0.1955  0.0432
25962W        W41856  10.424  16.645   2.689  0.3743 -0.0802  0.0326
25963W        W41857   6.182   4.804  10.815 -0.4050  0.0623  0.0836
25964W        W41858  12.273   8.038   0.593 -0.1531 -0.0415  0.0233
25965W        W41859  13.627   8.122   1.576 -0.3084 -0.0844 -0.1292
25966W        W41860   6.714   9.356   0.099 -0.1855  0.1775  0.1025
25967W        W41861  14.678  14.276   5.360 -0.0622  0.0732 -0.2571
25968W        W41862  18.632   1.198   0.977 -0.1149  0.4863 -0.2319
25969W        W41863   2.158  13.506   4.837  0.0718  0.0844 -0.3528
25970W        W41864  10.471  15.077  14.434  0.1818  0.2462  0.1274
25971W        W41865  14.661  13.442   1.886  0.1696  0.0181 -0.3570
25972W        W41866  16.197  11.848   0.640  0.3589  0.0435  0.0391
25973W        W41867   2.238  11.248  11.049 -0.3229 -0.1793 -0.3530
25974W        W41868   1.702  16.053   1.594 -0.1811  0.6087  0.1174
25975W        W41869  17.446   6.566   4.219 -0.0207 -0.1872  0.1847
25976W        W41870   2.520  14.581   1.289  0.0725  0.2074  0.1244
25977W        W41871  11.068   8.664   1.259 -0.1196 -0.0529  0.1900
25978W        W41872   7.972  14.557  12.987  0.1598  0.1503 -0.0203
25979W        W41873  17.334   6.744  14.264 -0.1325  0.2235  0.0023
25980W        W41874   4.294  13.820   2.268  0.0751  0.0926 -0.1230
25981W        W41875  15.288  15.394  14.073 -0.1953  0.1548  0.1123
25982W        W41876  17.114  11.562  14.833  0.0319  0.1361  0.2373
25983W        W41877   4.542  17.225   2.872 -0.1588  0.0800  0.4668
25984W        W41878  15.294  18.424   3.975  0.0904  0.2214  0.1473
25985W        W41879   9.235   7.226  10.993 -0.1547  0.0493 -0.2110
25986W        W41880  17.647  16.160  11.093 -0.0303  0.1257  0.0210
25987W        W41881   7.521   8.893   4.815 -0.3028 -0.2343 -0.2811
25988W        W41882   1.454  18.631   2.473  0.0561  0.0436  0.1064
25989W        W41883  12.079   1.995  12.891 -0.0584  0.0273 -0.0924
25990W        W41884  17.803  17.282   1.660  0.0470  0.0141  0.1668
25991W        W41885   3.446  16.134   1.636  0.1400 -0.1473  0.2106
25992W        W41886   3.506   3.012   4.544  0.1254 -0.1632 -0.2728
25993W        W41887   6.659  15.180  13.175 -0.1202 -0.1464 -0.0470
25994W        W41888  14.415   2.982   4.042 -0.0410 -0.1557 -0.0438
25995W        W41889  11.386   3.724  14.393 -0.0337  0.1768 -0.4314
25996W        W41890   0.859  10.235  12.121 -0.0461  0.0439 -0.0297
25997W        W41891  16.403  10.335  13.589 -0.1822 -0.1807 -0.1340
25998W        W41892  13.146   9.541   3.986 -0.0884 -0.1628  0.3311
25999W        W41893  11.843   9.988   9.521  0.1786 -0.3031 -0.0815
26000W        W41894   8.548   5.994   3.254  0.1258 -0.2739 -0.1966
26001W        W41895  12.372   9.116  12.329  0.0022 -0.1220 -0.0128
26002W        W41896  18.355   8.233   1.253 -0.0339  0.3967  0.2822
26003W        W41897   6.806   1.784  10.883 -0.0770  0.1766  0.2529
26004W        W41898  18.779  10.831  14.191  0.1696 -0.0906 -0.1893
26005W        W41899  12.655   7.223   0.986  0.0073 -0.1334 -0.1799
26006W        W41900   6.096   7.986   3.736 -0.1458  0.1073 -0.3640
26007W        W41901  10.941  17.330  12.319  0.1292 -0.0367 -0.0604
26008W        W41902  15.983  13.182   5.802  0.3716  0.2270 -0.2211
26009W        W41903  17.117   6.959  11.660  0.0945  0.0009  0.0327
26010W        W41904  18.754   3.296  11.840 -0.1720 -0.1155 -0.0054
26011W        W41905  18.108  12.747   0.185  0.4421 -0.2951 -0.0670
26012W        W41906  18.866  12.936   1.067  0.2001 -0.1290 -0.2015
26013W        W41907   6.485   3.751   1.333 -0.0888  0.3409  0.3420
26014W        W41908   8.029   4.245   3.499  0.0347 -0.0054 -0.0847
26015W        W41909   3.746   6.104   3.501  0.0409 -0.4647  0.3115
26016W        W41910   8.539  15.909   3.914  0.2745 -0.1160  0.0837
26017W        W41911  13.927  13.022  10.208 -0.0959  0.0900  0.0063
26018W        W41912  17.527  16.085  13.548 -0.2310  0.0629  0.0620
26019W        W41913  15.011  18.363  12.032 -0.0091 -0.2263 -0.2522
26020W        W41914  16.302   3.020   3.289 -0.1428  0.0559 -0.2122
26021W        W41915  13.285   8.304   3.879 -0.0769  0.1108 -0.0942
26022W        W41916   4.395  15.857  11.929 -0.1670  0.1466 -0.1407
26023W        W41917  18.411   2.939  11.108  0.3628  0.2242 -0.0801
26024W        W41918  15.024  13.660  14.294 -0.2183 -0.1519  0.1981
26025W        W41919  11.685  18.176   4.717 -0.3433 -0.3453  0.1379
26026W        W41920   5.434  15.445  11.614 -0.2925 -0.1093  0.1296
26027W        W41921   5.720  15.741  15.489 -0.4661  0.0164  0.4162
26028W        W41922   2.576  13.368   5.173  0.0842  0.0162 -0.0018
26029W        W41923   3.439   8.325  12.101 -0.4359  0.0428 -0.1025
26030W        W41924   2.077   5.021  11.119  0.1477 -0.0755  0.2380
26031W        W41925  16.935   8.933   3.959  0.1546  0.2520  0.0785
26032W        W41926  14.027  15.120  15.279  0.0238  0.3652 -0.2737
26033W        W41927  17.923  11.430  13.383  0.0815  0.2060  0.0096
26034W        W41928   1.737  12.998  13.599  0.0544 -0.0560 -0.3883
26035W        W41929  10.165   4.739   3.521 -0.6439 -0.0662  0.1751
26036W        W41930   8.052  13.767   5.471  0.0764 -0.0200  0.0665
26037W        W41931   4.975  14.532   5.105  0.1866 -0.3543  0.2136
26038W        W41932   2.285  15.258   2.900 -0.1645  0.0340  0.0101
26039W        W41933   8.044   9.525  11.782 -0.0718  0.0611  0.2356
26040W        W41934   3.696   9.035   3.808 -0.1200  0.1361  0.0628
26041W        W41935   4.126   4.714  12.574 -0.0145 -0.1299  0.1406
26042W        W41936  12.042  14.966  13.424  0.1143 -0.2010 -0.1216
26043W        W41937   2.782  13.848  14.925  0.1541  0.1234  0.0247
26044W        W41938   9.881   5.183   1.237 -0.1189  0.1270  0.0096
26045W        W41939   0.329  12.674   3.458 -0.1917  0.0830  0.2390
26046W        W41940  12.284   0.754  11.058 -0.1998 -0.0278  0.0040
26047W        W41941  11.630  18.851   0.214  0.0282  0.3806  0.2909
26048W        W41942  15.367   7.614  11.310  0.1516 -0.1522 -0.0900
26049W        W41943   2.301   7.881   1.325  0.0382 -0.0416  0.1894
26050W        W41944   9.677  11.110   3.080  0.0102 -0.0563  0.0990
26051W        W41945   2.522   4.071  10.566  0.0564  0.3972  0.2208
26052W        W41946  14.720  13.222  12.380 -0.0307 -0.0605 -0.1584
26053W        W41947  12.801   9.201   2.674 -0.3594 -0.0167  0.6055
26054W        W41948   6.234   1.581   3.242  0.1068 -0.3889 -0.2031
26055W        W41949   4.841  17.871   5.103  0.0824  0.1873  0.1742
26056W        W41950   3.717   4.473  10.739  0.3474 -0.1295 -0.0767
26057W        W41951   2.243   6.093   3.753  0.3012 -0.2615 -0.2440
26058W        W41952   8.886  11.119   1.387 -0.2974 -0.0529  0.0461
26059W        W41953  16.969  10.544   2.421  0.1088  0.0318  0.1499
26060W        W41954   4.839  12.866  13.944 -0.0612  0.0669 -0.0965
26061W        W41955  11.028   9.679  12.938  0.1584  0.0159 -0.0647
26062W        W41956   1.374   1.386  13.558  0.0262  0.0018 -0.3370
26063W        W41957  13.201  13.923  12.161  0.2528 -0.1728 -0.0856
26064W        W41958  11.514  17.080   3.499  0.1254  0.1064 -0.0605
26065W        W41959  12.492   9.131   1.081 -0.0768  0.1985 -0.0884
26066W        W41960  13.645  10.672  14.757 -0.0991 -0.0860  0.2333
26067W        W41961  10.667   7.103  11.463  0.1425  0.1259  0.1029
26068W        W41962   5.759   9.520   9.669  0.2186 -0.0346 -0.2257
26069W        W41963  14.708  14.351  13.128 -0.2552  0.0095  0.0961
26070W        W41964   2.126  11.842   5.137  0.3131 -0.1020 -0.3377
26071W        W41965   5.867   9.610  14.252  0.3610 -0.0513  0.2078
26072W        W41966  12.884   0.728  14.707  0.2326 -0.2263 -0.0546
26073W        W41967   7.685   1.673   1.820 -0.1393  0.0606  0.0334
26074W        W41968  16.662   9.956  13.530 -0.2527  0.1184 -0.2547
26075W        W41969  14.243   2.518   1.486  0.0522 -0.0621 -0.3379
26076W        W41970   5.351   8.423   2.429  0.0814 -0.0538  0.2296
26077W        W41971  18.197  17.481   3.753  0.0540 -0.0457  0.0417
26078W        W41972   1.959  15.286  12.664  0.1008  0.3642  0.3466
26079W        W41973  12.505  15.682  12.199  0.1963 -0.2499  0.0692
26080W        W41974  14.768   4.220  13.192  0.0067  0.1205  0.0791
26081W        W41975   6.610  12.883  14.843 -0.1780 -0.0905 -0.0669
26082W        W41976   5.375  13.151   4.649  0.1962  0.0504 -0.1411
26083W        W41977  16.176  11.889  12.407 -0.3110  0.2222  0.0255
26084W        W41978   3.778   3.213  11.838  0.0078  0.0061 -0.1356
26085W        W41979   9.053  15.968   1.160  0.1179  0.2079  0.0808
26086W        W41980   6.368   2.942  11.336  0.1621 -0.2661  0.4156
26087W        W41981   5.175  14.921  13.069  0.0332 -0.2189  0.0986
26088W        W41982  14.828   5.853  14.362 -0.2291 -0.2974  0.1405
26089W        W41983   9.914  17.721  13.977  0.2285  0.4395 -0.1785
26090W        W41984   0.441  17.629  12.794  0.0779  0.2636 -0.0833
26091W        W41985  14.047   4.385   2.750 -0.2902  0.0877  0.1651
26092W        W41986   1.377  14.035   3.675 -0.1410  0.1693  0.1032
26093W        W41987  14.806   0.981   2.370  0.0690  0.0691 -0.1101
26094W        W41988   0.865   3.255  13.062 -0.1580 -0.1835 -0.3086
26095W        W41989   5.830  12.900  11.539 -0.0785  0.2735  0.0595
26096W        W41990   7.670  18.636   2.537 -0.0487  0.1550  0.3868
26097W        W41991   4.737  15.626   3.321  0.3723 -0.1425 -0.1937
26098W        W41992  15.093   1.711  13.900 -0.0216 -0.0720  0.0334
26099W        W41993  10.940   4.939  11.186  0.0681  0.2140 -0.2105
26100W        W41994  16.800   3.549   0.020 -0.1195 -0.1659 -0.0275
26101W        W41995  17.923  13.532  13.992 -0.0637 -0.0973  0.1762
26102W        W41996   0.677   6.966  14.549  0.1047 -0.1452 -0.1079
26103W        W41997  11.545   0.642   6.167  0.0211  0.0977 -0.2728
26104W        W41998   3.747   8.584   3.047  0.2627 -0.1574  0.3276
26105W        W41999   2.721  14.101   1.108 -0.0299 -0.4495  0.0701
26106W        W42000  15.430   8.941  11.450  0.1532  0.0420 -0.2415
26107W        W42001  11.149   8.865   0.416  0.0989  0.2428  0.1350
26108W        W42002  10.296   2.795  14.642 -0.1504  0.0520 -0.1360
26109W        W42003  11.845   0.472   5.790 -0.1062  0.1242  0.3195
26110W        W42004  15.956   7.316   3.828 -0.0390 -0.1342  0.1085
26111W        W42005   5.826   7.289  15.110 -0.0017  0.1479  0.0779
26112W        W42006  11.891  17.739   4.326 -0.0563 -0.0510 -0.0676
26113W        W42007  13.466  17.184  11.961 -0.1196  0.1517  0.1098
26114W        W42008  18.651  15.436  11.859 -0.1224  0.2219  0.2061
26115W        W42009   6.944  14.183  13.141 -0.1974  0.2347 -0.2643
26116W        W42010   2.366   3.751   5.438 -0.1585 -0.2223  0.3164
26117W        W42011   6.512  17.219  13.209 -0.0773 -0.3134  0.0599
26118W        W42012   1.679  13.284   2.104 -0.0465  0.0351  0.2313
26119W        W42013  14.194  14.039  12.126 -0.0886  0.2986 -0.1924
26120W        W42014   4.955  10.586   5.082  0.2347  0.0762  0.0514
26121W        W42015   7.524  13.950  10.595 -0.0949  0.2945 -0.0386
26122W        W42016   8.248  18.328  14.938 -0.0081  0.1527  0.2290
26123W        W42017  12.213   2.511   2.499  0.0396  0.0799  0.0458
26124W        W42018  17.080   2.189  10.598  0.2840  0.2871  0.2364
26125W        W42019   0.043   4.965  13.439  0.0160 -0.0782  0.0273
26126W        W42020  18.694   3.219   3.436 -0.1528  0.0895 -0.0358
26127W        W42021   2.268   1.323  12.520 -0.1528  0.1136 -0.1006
26128W        W42022   5.237  16.636   2.888  0.2643  0.3889 -0.0042
26129W        W42023  17.759  17.789   1.741 -0.3309 -0.1669 -0.2223
26130W        W42024   3.781   8.673   0.882 -0.3847  0.0581  0.1062
26131W        W42025  16.836  17.202   3.110 -0.0209  0.0357 -0.0145
26132W        W42026  10.411   9.124   1.999 -0.0349  0.0938 -0.1756
26133W        W42027   5.363  15.571   4.227 -0.1574  0.2065 -0.0075
26134W        W42028   5.663  10.267  14.411 -0.0448  0.0310  0.0915
26135W        W42029   3.954  10.094  10.344  0.0285  0.0782 -0.1351
26136W        W42030   3.905   5.940   9.775  0.0024  0.1026 -0.1588
26137W        W42031   5.437   3.681  12.681 -0.1369 -0.2975  0.1847
26138W        W42032   7.888   7.726  11.893 -0.1481 -0.1487 -0.1731
26139W        W42033  16.486   1.182   3.041 -0.3844  0.1034 -0.0695
26140W        W42034  13.706  10.306   1.844 -0.3208 -0.4057  0.0728
26141W        W42035   9.111   0.473  14.337 -0.5600 -0.3070 -0.1032
26142W        W42036   1.922   4.631  11.845 -0.2077  0.0411  0.2253
26143W        W42037   1.844   1.214   0.698  0.0743  0.1696  0.2710
26144W        W42038  14.257  15.189   2.947 -0.0693 -0.1443  0.2993
26145W        W42039   8.370  14.614  11.105 -0.2825 -0.0573  0.1825
26146W        W42040   1.816  10.037  13.023  0.1470 -0.1300 -0.1119
26147W        W42041  10.595   2.034  14.378 -0.1557 -0.0783 -0.1115
26148W        W42042   4.840  15.861   4.951  0.0232  0.0947 -0.1931
26149W        W42043   6.794   3.681   0.952 -0.0147 -0.1056 -0.0508
26150W        W42044  13.685  11.143   0.765 -0.0263  0.5456  0.0604
26151W        W42045   0.401   2.489   9.153  0.1457  0.1946 -0.0353
26152W        W42046   9.744   0.692   2.990  0.1707 -0.0086 -0.0486
26153W        W42047   4.843   4.669   4.638  0.0388 -0.1511 -0.2740
26154W        W42048   7.701   0.536  14.241  0.4765 -0.2634 -0.0741
26155W        W42049  16.921  15.905  12.111  0.0717 -0.1033  0.0090
26156W        W42050  14.069  17.541   3.879  0.1051  0.0361 -0.0453
26157W        W42051  15.204   8.419  10.491  0.1167  0.1334 -0.4767
26158W        W42052  14.359   7.306   1.621  0.0023 -0.2219 -0.2107
26159W        W42053  17.411   1.651  10.669 -0.0911  0.0961 -0.0440
26160W        W42054   4.803  16.790  10.818  0.2916  0.0684 -0.0764
26161W        W42055   8.096   4.327  12.380 -0.3662 -0.0246  0.2412
26162W        W42056   0.325  13.689   2.850  0.0091 -0.1594 -0.0680
26163W        W42057   5.025   6.499  12.087 -0.1138  0.0217  0.1666
26164W        W42058   0.423  13.141  14.616 -0.3282 -0.0866  0.1227
26165W        W42059  17.184   5.624   0.872 -0.1327  0.4366 -0.0008
26166W        W42060  13.234   3.632  13.748 -0.1253  0.1490  0.1888
26167W        W42061   8.037  18.442  10.843 -0.2015 -0.1923 -0.2457
26168W        W42062   4.570   8.856   3.477  0.0759  0.1087 -0.0661
26169W        W42063   4.370  13.623   1.181  0.2670  0.3365  0.0126
26170W        W42064   2.785  10.256   0.846  0.2745  0.2153  0.1277
26171W        W42065   1.535  17.683   3.645 -0.0522 -0.3342  0.0691
26172W        W42066  13.463  12.924   4.378 -0.2929 -0.0414 -0.2499
26173W        W42067  10.784   0.273  12.332  0.3514  0.1213 -0.1835
26174W        W42068   0.331   3.287   0.188  0.0196 -0.4741  0.0367
26175W        W42069  17.153   7.621   4.498 -0.1712 -0.1780  0.0918
26176W        W42070  18.561  14.649   0.431  0.3122 -0.0551 -0.0835
26177W        W42071  17.746   4.858  12.275  0.9139  0.2542  0.0159
26178W        W42072  14.372   0.108   4.471  0.1325 -0.0720 -0.0891
26179W        W42073  13.641   6.094   0.159  0.0850  0.2487 -0.3055
26180W        W42074   9.952   7.209   1.281  0.1590  0.0030 -0.2936
26181W        W42075  18.829   4.127  15.173 -0.3297 -0.0739  0.0530
26182W        W42076  10.306  14.377   1.665  0.2152 -0.0371  0.0884
26183W        W42077  13.546  11.087  14.457 -0.1916  0.0395 -0.2185
26184W        W42078  17.559   5.742  11.503 -0.0487 -0.2997  0.2455
26185W        W42079  14.303  15.197   1.123  0.4798 -0.0047 -0.2022
26186W        W42080   8.667   2.983   0.661 -0.2434  0.2276  0.0331
26187W        W42081  12.331   3.952  14.780  0.0766  0.0854  0.0759
26188W        W42082  11.539   2.578   0.360  0.0493 -0.0452 -0.2903
26189W        W42083  14.789   2.036   0.896 -0.3903 -0.2766 -0.1169
26190W        W42084   6.804  16.324  15.091  0.3527 -0.3711 -0.5283
26191W        W42085  15.794   9.021   4.657 -0.0296  0.1992  0.2180
26192W        W42086   6.021   5.656   3.737 -0.2091 -0.0547 -0.2149
26193W        W42087  15.377   6.277  10.758 -0.1730 -0.4549  0.1234
26194W        W42088  15.631   0.801   2.693  0.1870 -0.0715  0.1977
26195W        W42089   7.828   2.122   0.579 -0.1543  0.0043 -0.0161
26196W        W42090  10.128   5.918   3.739  0.1970  0.0020 -0.0822
26197W        W42091   8.624  13.880   0.071 -0.0875  0.0367 -0.2304
26198W        W42092  11.570  13.821  12.716  0.2446 -0.3541  0.0075
26199W        W42093   8.724  13.111   0.680 -0.1346 -0.2177 -0.2415
26200W        W42094  18.651  17.307   2.643 -0.1001  0.1220  0.2874
26201W        W42095   2.607  11.974   1.998  0.1686 -0.0829 -0.0743
26202W        W42096  17.150  16.347  14.258  0.0813  0.1955  0.0290
26203W        W42097  15.922  15.402  12.568  0.1744  0.0199 -0.0154
26204W        W42098   0.846  12.490  14.633  0.0218  0.1395  0.0485
26205W        W42099   2.868   1.464   2.524 -0.2028  0.2478  0.2286
26206W        W42100   4.365  10.631   9.574  0.1992  0.1842  0.0654
26207W        W42101   5.681  12.882   3.891 -0.1768 -0.3279 -0.3542
26208W        W42102  10.814  17.870   2.184  0.1052  0.0881  0.0631
26209W        W42103  11.275  11.723   3.088  0.2575  0.0244  0.0580
26210W        W42104   9.973  10.096  14.604  0.0969 -0.1923 -0.0272
26211W        W42105   3.731  11.047   5.134  0.4274 -0.3024  0.1451
26212W        W42106  18.719   2.076   0.731  0.0642 -0.0043  0.0996
26213W        W42107  11.054   7.309   1.485 -0.0868  0.3916  0.3710
26214W        W42108   1.562   4.260  11.609 -0.1725 -0.1122  0.0713
26215W        W42109   8.277   7.935   5.585  0.1573 -0.1963 -0.0649
26216W        W42110  15.447   8.871  12.005 -0.1402 -0.0713 -0.5240
26217W        W42111   2.228  17.775  11.378  0.0118  0.2729  0.0485
26218W        W42112  13.716  12.997   3.941 -0.0520  0.1176 -0.2154
26219W        W42113  16.743  13.348  11.473 -0.0611 -0.0474 -0.1984
26220W        W42114   0.096  12.406  14.093 -0.3558 -0.0004  0.1930
26221W        W42115  14.043  14.860  11.734  0.2178  0.2062 -0.2965
26222W        W42116  12.028  11.074  14.059  0.4155 -0.0936  0.2920
26223W        W42117   6.204   5.093  13.772 -0.0350 -0.0057  0.2677
26224W        W42118   2.255   7.717   2.040  0.0545 -0.2652 -0.1540
26225W        W42119  11.601   6.956  15.441  0.0119  0.0722  0.0273
26226W        W42120  16.631  15.924  15.321  0.0633 -0.2695 -0.0921
26227W        W42121  11.512   8.119  13.975 -0.1295 -0.1637  0.0191
26228W        W42122   4.794  14.708   3.254 -0.0105 -0.0493  0.0138
26229W        W42123   8.144  16.985   1.736  0.1061 -0.1058 -0.1123
26230W        W42124  18.548   6.408  10.959 -0.0372 -0.1371  0.0968
26231W        W42125   5.216   1.526   0.489 -0.0317  0.2877 -0.1747
26232W        W42126   3.941   7.317  10.566  0.0410  0.1695 -0.2863
26233W        W42127   2.002  18.075   3.522  0.0746 -0.1355  0.0421
26234W        W42128  13.774  11.967   3.313 -0.0904  0.1106  0.0526
26235W        W42129   5.320  16.636   2.388 -0.0327 -0.3342  0.1635
26236W        W42130   9.114   7.153   5.001 -0.1837  0.0646 -0.2675
26237W        W42131  13.414   2.008  12.705 -0.0129  0.6945 -0.0706
26238W        W42132  11.769   3.947  13.553  0.0051  0.2121  0.1053
26239W        W42133   5.128  13.317   3.643  0.1078  0.0529  0.1015
26240W        W42134  18.657  17.250  14.822  0.0882  0.0488 -0.3133
26241W        W42135  15.415  13.408   0.588 -0.1501 -0.1365 -0.0874
26242W        W42136   7.488   9.002  12.987 -0.0047  0.1004 -0.3406
26243W        W42137  12.338  16.539  12.010 -0.3980  0.1867  0.0619
26244W        W42138  11.710  18.372   5.213 -0.2652 -0.1627 -0.0695
26245W        W42139   7.629   9.839  13.366  0.0449 -0.0381  0.3485
26246W        W42140  17.784  16.968  14.981  0.0668 -0.3186 -0.0820
26247W        W42141   6.309   2.427   0.530 -0.3014  0.0057 -0.0106
26248W        W42142   0.139  11.031   0.196  0.2164 -0.0451  0.1593
26249W        W42143   2.314   5.268  13.566  0.0902 -0.0169  0.1266
26250W        W42144   3.618   7.503   1.363 -0.0327  0.3858  0.0795
26251W        W42145  13.342   3.590   5.760 -0.1812  0.0212  0.0228
26252W        W42146  18.738  13.692   3.731  0.1988  0.2008 -0.1544
26253W        W42147   9.098   1.226   4.175 -0.3802 -0.0323  0.3324
26254W        W42148   7.938  17.663  14.072  0.2163 -0.1603  0.0974
26255W        W42149   3.961   1.329   3.034 -0.3338  0.1917  0.1043
26256W        W42150   8.164  14.451  14.384  0.2323  0.0638 -0.3180
26257W        W42151   4.925   8.990  15.073  0.3829  0.0941  0.1226
26258W        W42152  16.604  13.779  11.107  0.0327  0.0112  0.1507
26259W        W42153   0.235   9.374  13.547 -0.1558 -0.1480 -0.2833
26260W        W42154  14.009   6.618   5.182 -0.0368  0.4019 -0.3360
26261W        W42155  17.809   8.723  11.948 -0.1000 -0.0371  0.0952
26262W        W42156   6.349   0.819  12.427 -0.1551  0.0138  0.1707
26263W        W42157   8.190  11.075   3.898 -0.3678  0.2246 -0.3580
26264W        W42158   6.303  16.843   2.322  0.1316 -0.1369  0.1764
26265W        W42159   0.051   8.492  13.589  0.0577  0.3232  0.0179
26266W        W42160   6.508   9.775  13.256 -0.1739 -0.2941  0.1058
26267W        W42161  17.336   3.621   3.926 -0.0068 -0.1681 -0.1507
26268W        W42162   1.035   8.740  15.432 -0.0060  0.0700 -0.1315
26269W        W42163  14.501   7.298  14.685  0.1830  0.0761 -0.2044
26270W        W42164   7.013  18.881  14.894 -0.2521  0.1724 -0.1223
26271W        W42165  12.087   6.609  11.375  0.1821 -0.0712 -0.2007
26272W        W42166   2.485  15.097   0.761  0.0515  0.0770 -0.1508
26273W        W42167   2.094  11.373   4.721 -0.1893  0.3138  0.0165
26274W        W42168  16.488  16.302   0.677  0.2562  0.3863  0.1637
26275W        W42169   0.049  17.740   4.887  0.1139  0.1638 -0.0893
26276W        W42170  16.886   2.941  11.274  0.0300 -0.1119 -0.2246
26277W        W42171   7.214  15.940   4.761 -0.0943 -0.0290  0.2669
26278W        W42172  14.725   9.165  10.161  0.0227  0.1464  0.1230
26279W        W42173   7.542  14.139   1.237  0.0738  0.2182  0.2168
26280W        W42174   7.828   5.516  11.523  0.0993 -0.2298  0.1969
26281W        W42175   8.473   1.996   2.106 -0.2037  0.1774 -0.1612
26282W        W42176   9.749   0.915  12.647  0.0730 -0.0444 -0.1471
26283W        W42177  10.981  17.613   5.265  0.0760  0.2176 -0.2627
26284W        W42178   9.267   9.290  10.915  0.0624 -0.0382 -0.0885
26285W        W42179   1.645  15.341  11.556 -0.3746  0.2539 -0.1309
26286W        W42180  16.574  13.935   1.880  0.1887 -0.1384  0.0552
26287W        W42181   1.747  18.256  13.043 -0.0959  0.2395 -0.2200
26288W        W42182   7.556  16.242   1.379 -0.1945  0.4938 -0.2259
26289W        W42183   9.469  10.184   2.170 -0.3024  0.0420 -0.0621
26290W        W42184   0.146   0.483  13.843 -0.1309  0.3601  0.1461
26291W        W42185  10.278  16.007   3.457  0.0819 -0.2157  0.1051
26292W        W42186  14.094  10.406  12.422 -0.0362 -0.1414  0.1554
26293W        W42187   3.908   9.425   4.665 -0.1438  0.0396 -0.0055
26294W        W42188  16.536  13.017   5.312  0.0160 -0.2620  0.0415
26295W        W42189  12.720   7.976  15.330  0.1191  0.3684 -0.0943
26296W        W42190   5.117   5.030  11.790 -0.0431 -0.2265  0.2982
26297W        W42191   4.687   5.499  12.488  0.2656 -0.1344  0.1552
26298W        W42192  18.435  12.594   2.920  0.2463 -0.2055  0.2106
26299W        W42193   5.009  10.334   4.473  0.1708 -0.2843  0.0734
26300W        W42194  10.905  15.384   4.381  0.1523  0.1066  0.0388
26301W        W42195   1.895  17.598   4.371 -0.2831  0.0977  0.0424
26302W        W42196  14.076   5.128   3.388 -0.0670  0.0314  0.1662
26303W        W42197   3.787  15.753   0.455  0.0409 -0.2761 -0.0513
26304W        W42198   7.023  12.756  14.543  0.0866  0.1544  0.0680
26305W        W42199   6.288   8.055  11.792  0.0301  0.0799 -0.1285
26306W        W42200  13.616   5.690   1.429 -0.3692  0.0337  0.0015
26307W        W42201   8.491   7.778   2.788  0.1412 -0.0978 -0.0505
26308W        W42202  15.021   4.243  12.293  0.0725 -0.0342 -0.1544
26309W        W42203   6.918  16.984   4.783  0.0412  0.1118  0.0564
26310W        W42204  15.164   5.546   0.739  0.0043  0.1496 -0.1990
26311W        W42205   8.098  17.044  15.167  0.2604 -0.0503 -0.0865
26312W        W42206   0.852   2.538   1.857 -0.0261  0.0572 -0.0419
26313W        W42207   8.425   3.602   1.838  0.2343 -0.2125  0.1884
26314W        W42208  18.382   8.588   1.605 -0.1482  0.2940 -0.1624
26315W        W42209   4.089   8.721   3.419  0.0694 -0.0445  0.2802
26316W        W42210   6.290  13.843  13.768 -0.0153 -0.3323 -0.2067
26317W        W42211  15.129  17.691   2.665  0.1070 -0.1733  0.1375
26318W        W42212   4.567  13.858   9.975  0.2676 -0.2194 -0.2470
26319W        W42213  13.771   1.875   0.634 -0.1541 -0.3319 -0.2286
26320W        W42214   9.599   0.148   1.933  0.0387 -0.0796  0.2637
26321W        W42215  12.770  10.250   1.910  0.1787  0.1630 -0.1476
26322W        W42216  12.735   0.819   4.130  0.5352 -0.2266 -0.0158
26323W        W42217   1.917  14.364  14.903  0.0760  0.1011 -0.2914
26324W        W42218   9.528   8.556   2.409 -0.0245  0.0658 -0.0727
26325W        W42219   4.178  10.693   4.416  0.2360  0.5148  0.0190
26326W        W42220   8.552  11.495   1.432  0.0081 -0.1218 -0.0309
26327W        W42221   4.005  13.973  12.411  0.0716  0.0910  0.3934
26328W        W42222   6.495   2.718   2.436 -0.1887  0.1670  0.1832
26329W        W42223  14.799  18.124   2.510  0.4471 -0.1160 -0.1152
26330W        W42224  18.791   3.073   2.900 -0.0861 -0.0274  0.1180
26331W        W42225  14.442  17.649  12.489 -0.2628 -0.0275 -0.1224
26332W        W42226  11.993  16.904   3.762 -0.2257 -0.1205 -0.2641
26333W        W42227   9.190   2.530  13.105 -0.1627 -0.3344  0.2041
26334W        W42228  16.010  15.227  13.640 -0.1071 -0.0925  0.1801
26335W        W42229  14.955   6.049  10.963 -0.2370 -0.1678 -0.0413
26336W        W42230  13.390   8.159   0.537  0.1373 -0.3668  0.1142
26337W        W42231  11.072  18.373   5.434  0.0353  0.1907 -0.0779
26338W        W42232  13.832  10.464  15.137 -0.0102  0.1283 -0.2785
26339W        W42233   4.117   9.165   5.385 -0.1203 -0.2917  0.0841
26340W        W42234  15.697   6.426  15.246  0.0980 -0.4223  0.1249
26341W        W42235   7.195  12.836  13.782  0.2015 -0.0515 -0.1334
26342W        W42236   6.877   2.606  14.469 -0.0601  0.2770 -0.0216
26343W        W42237   0.532   5.308   3.679  0.2718 -0.1528 -0.1699
26344W        W42238   8.273  12.196   4.385  0.1770  0.1529  0.1317
26345W        W42239   0.724  18.456  12.276  0.3697 -0.0020 -0.0788
26346W        W42240  12.533  10.984   3.095  0.1170 -0.1277  0.1423
26347W        W42241  13.779   1.359   0.671  0.3146 -0.2989  0.2357
26348W        W42242   3.905   3.102  10.697  0.1537  0.1453  0.0218
26349W        W42243  16.078   2.144   3.477 -0.0766  0.0179 -0.2400
26350W        W42244  11.961   3.965   3.672  0.0392  0.0028  0.2086
26351W        W42245  11.384   5.538   4.398 -0.0391  0.4244  0.0536
26352W        W42246   0.055  16.017   0.967 -0.0562  0.2020 -0.2764
26353W        W42247   3.121   8.396   3.238 -0.3714  0.0244 -0.2109
26354W        W42248  18.368  13.364   3.494  0.1770 -0.0414 -0.3993
26355W        W42249   1.988  16.750   4.818 -0.1191  0.1829  0.1043
26356W        W42250  16.252  16.799  14.154 -0.2182  0.2770 -0.1130
26357W        W42251   0.472   9.863  13.075  0.2814  0.1000 -0.0825
26358W        W42252   7.586  15.284   0.562 -0.1220 -0.1742  0.1018
26359W        W42253  14.019   1.857   4.072 -0.1004 -0.1302 -0.1910
26360W        W42254  13.792   7.948  12.546  0.1061 -0.2078  0.0598
26361W        W42255   7.947   5.373  10.643 -0.0187  0.2827 -0.2636
26362W        W42256   4.142   8.445   4.771 -0.0680 -0.0619 -0.0155
26363W        W42257   0.877   0.240   3.186  0.0277  0.2240 -0.0412
26364W        W42258   8.844  18.676   2.259 -0.0085  0.0862 -0.0485
26365W        W42259   5.289   7.636   5.630 -0.1946  0.0802 -0.0133
26366W        W42260   7.804   2.024  12.650 -0.0213 -0.0754  0.1853
26367W        W42261  12.030  14.636  12.215 -0.2525  0.1693 -0.0988
26368W        W42262   3.653  15.200   4.351  0.3192 -0.1773  0.1894
26369W        W42263  11.596   3.915   0.763 -0.1487 -0.2472 -0.5362
26370W        W42264   3.070   7.977   4.068 -0.2259 -0.3269 -0.4095
26371W        W42265  15.729   8.635  12.308  0.0264 -0.1248  0.0855
26372W        W42266  11.166   2.628   2.503 -0.3373  0.2204  0.1944
26373W        W42267  12.136   3.887   2.821  0.0389 -0.1360  0.2388
26374W        W42268   0.669   5.747  14.453  0.0472  0.1382 -0.7241
26375W        W42269  15.381  14.537  15.182 -0.1571  0.1229  0.1684
26376W        W42270   2.173   6.603  10.516  0.0678  0.0421 -0.0217
26377W        W42271   8.547  14.632   5.948 -0.2606 -0.1505 -0.1779
26378W        W42272  15.893  16.078   2.119 -0.1667 -0.4225 -0.3225
26379W        W42273  14.801   1.404  14.552  0.1260 -0.1471 -0.0685
26380W        W42274   4.218   0.533   0.796 -0.1248 -0.4018  0.0925
26381W        W42275   3.576  17.400  11.823  0.3237 -0.2706 -0.0645
26382W        W42276  11.352   7.054   4.632  0.0315  0.0100  0.1396
26383W        W42277   8.645  10.595  12.169 -0.0266  0.1859  0.0429
26384W        W42278  14.798   9.860  14.753  0.1192 -0.0174  0.0510
26385W        W42279  18.237   8.885   2.136 -0.2979  0.0350  0.0305
26386W        W42280   6.299   7.530  13.579  0.0446  0.0764 -0.0150
26387W        W42281   1.210   8.495   0.378  0.1779 -0.1962 -0.0184
26388W        W42282   1.448   8.297  13.653 -0.0493 -0.2730  0.1248
26389W        W42283  12.415  18.318  12.363 -0.0806  0.1343 -0.1596
26390W        W42284   0.017  13.398  12.138 -0.0789 -0.1451 -0.0416
26391W        W42285   3.333   1.692   0.462 -0.3025  0.0828  0.0534
26392W        W42286  13.292   6.160  13.682 -0.0933 -0.0149 -0.0095
26393W        W42287   1.249   2.706   0.774 -0.0680 -0.4679  0.0323
26394W        W42288   6.196   9.975   0.975 -0.0478 -0.0464 -0.1863
26395W        W42289   5.127   2.346   3.116  0.0469 -0.2398  0.0442
26396W        W42290   8.284   3.354   2.766  0.4271 -0.2711 -0.2431
26397W        W42291  14.808   4.777  12.406 -0.0127  0.0197 -0.1729
26398W        W42292  17.694   4.760   0.924 -0.1966  0.3465 -0.1334
26399W        W42293   1.994   2.794  12.995  0.1216 -0.2506  0.2691
26400W        W42294  12.409  15.145   6.131  0.0300  0.0044  0.1440
26401W        W42295  16.100  16.286  14.267 -0.1172 -0.3500  0.3857
26402W        W42296   4.610  10.442   4.175 -0.1244  0.0737  0.0041
26403W        W42297   7.368   0.905   3.341  0.1070 -0.0921 -0.1804
26404W        W42298   7.423   3.263  12.642  0.0063  0.1848 -0.2359
26405W        W42299  17.857   4.559   0.014  0.0213 -0.1779 -0.0448
26406W        W42300   3.769  16.283  11.671 -0.2682 -0.1254  0.2993
26407W        W42301   8.993   0.158   5.162 -0.2657 -0.0891  0.1501
26408W        W42302  15.709   2.618   0.591  0.0169  0.0703  0.1265
26409W        W42303  15.304   1.262  13.842 -0.1940  0.2733 -0.0035
26410W        W42304  10.155  12.258   5.692  0.4133  0.1625 -0.1145
26411W        W42305   8.412   3.666   0.086 -0.4362 -0.0524  0.4753
26412W        W42306   7.774  17.797   2.074 -0.1139 -0.3636  0.0240
26413W        W42307  13.743   8.875   4.423  0.0827  0.0362 -0.0821
26414W        W42308  12.508   2.064   4.514  0.0622  0.2711  0.0824
26415W        W42309   5.674  14.602  13.362  0.2337  0.1030 -0.1738
26416W        W42310   3.406   7.044  10.039  0.0716 -0.1020  0.0015
26417W        W42311   9.060  18.471   4.891 -0.0449 -0.1276  0.1700
26418W        W42312  12.223   1.586  13.175  0.0645 -0.2271  0.0298
26419W        W42313  10.225  10.730   4.660  0.2105  0.0285  0.1404
26420W        W42314  12.113  14.931   0.581  0.2901  0.0462 -0.4396
26421W        W42315   0.270   6.086   1.664 -0.0760 -0.1196  0.1914
26422W        W42316   6.035  17.493   0.476  0.0793 -0.0301  0.4279
26423W        W42317   9.642  11.245  14.197 -0.0370 -0.0328 -0.4190
26424W        W42318  12.345   6.097  12.154 -0.1669  0.0576  0.3892
26425W        W42319   6.754  18.064  11.375 -0.1777  0.1950  0.3534
26426W        W42320   7.662   8.122  11.855 -0.0958  0.0166  0.0172
26427W        W42321  17.273   8.688  13.737  0.0948  0.3020 -0.3946
26428W        W42322  16.157   2.355   0.688 -0.2153  0.0007 -0.2569
26429W        W42323   5.431   3.150  10.491  0.2611  0.1275  0.1624
26430W        W42324   9.601   9.577  14.491  0.3615 -0.0502 -0.3979
26431W        W42325   3.170   3.072  11.925  0.4230 -0.2797  0.2148
26432W        W42326  16.734   3.731   1.000  0.0335 -0.2220 -0.0916
26433W        W42327   1.646   7.682   2.922 -0.3435  0.3851 -0.2539
26434W        W42328   2.408  17.432   1.389 -0.0341  0.2935  0.0128
26435W        W42329   9.758  14.018   0.755 -0.1683  0.0321 -0.0618
26436W        W42330  10.511  14.220   5.489 -0.0026 -0.0065 -0.0546
26437W        W42331   1.160   5.843  11.385  0.0214  0.0354  0.0400
26438W        W42332   8.581  11.296   0.601 -0.2354  0.1530  0.3023
26439W        W42333   7.088   2.982   1.510 -0.3319 -0.0289  0.0185
26440W        W42334  13.265   9.369  13.621 -0.0825  0.1965  0.3788
26441W        W42335   8.462  14.297  13.672  0.2866 -0.3074  0.0886
26442W        W42336   9.107   4.626   3.607 -0.5515 -0.0102  0.3867
26443W        W42337  10.623  12.172  14.855  0.0845 -0.0031 -0.0193
26444W        W42338  12.428  13.926   0.127 -0.2137 -0.0056  0.3257
26445W        W42339   1.224  13.910  13.309 -0.3308  0.1320  0.0945
26446W        W42340  18.119  16.289  11.044 -0.0573  0.0192 -0.0972
26447W        W42341   8.998  11.463  13.929 -0.0867  0.2323  0.1963
26448W        W42342  10.573  16.213   3.866  0.2847 -0.1069  0.2586
26449W        W42343  10.928   6.375   1.805 -0.0544 -0.1532  0.0535
26450W        W42344   3.050  14.462  12.930  0.0723 -0.1049  0.0730
26451W        W42345  14.053   2.937  12.472 -0.0436  0.3164 -0.0271
26452W        W42346  17.221  15.600   0.820  0.0210 -0.2613 -0.0112
26453W        W42347   6.872  15.126  13.699  0.0559  0.2434 -0.3652
26454W        W42348  12.934   9.362   4.685 -0.1366  0.0134 -0.0301
26455W        W42349   6.188   2.783   1.508 -0.1461  0.1173 -0.0268
26456W        W42350   1.357  16.364  11.127 -0.0515 -0.0222 -0.1908
26457W        W42351   2.622  14.598   3.883 -0.0292  0.3754  0.5079
26458W        W42352  18.119  18.817  15.057  0.2480  0.0151 -0.2431
26459W        W42353  10.188   5.515  12.671  0.0123 -0.2330 -0.3164
26460W        W42354  15.083  18.498   2.742  0.1047  0.2207  0.5288
26461W        W42355   8.825   4.457  15.399  0.1752 -0.0286  0.0385
26462W        W42356   8.892   3.981  10.374 -0.1889  0.1750  0.1052
26463W        W42357   2.514  17.531   0.574  0.2015 -0.2318  0.2421
26464W        W42358   1.958  10.606  13.817  0.2149 -0.0025  0.1381
26465W        W42359   6.582   8.792  11.163 -0.2738  0.0452 -0.2088
26466W        W42360  12.506  12.743  14.008  0.2197  0.1049 -0.0903
26467W        W42361   5.138  11.149  15.435  0.4190  0.0795 -0.3188
26468W        W42362  12.793   2.867   4.184 -0.0038  0.0167  0.1792
26469W        W42363   5.890  11.583  10.895 -0.0352 -0.2753  0.1272
26470W        W42364  17.240   9.570  14.749 -0.1120  0.0685  0.2040
26471W        W42365   4.128  11.653  13.779 -0.0793  0.1162  0.2666
26472W        W42366   4.749   9.963  11.198  0.1408 -0.2378 -0.2444
26473W        W42367  14.241  12.475   3.300 -0.1951  0.0889  0.0387
26474W        W42368   5.001   7.535  15.171 -0.0234  0.0943  0.2774
26475W        W42369   0.542  12.437  15.243 -0.0174 -0.2092 -0.0967
26476W        W42370   1.077   6.817   2.869 -0.0786  0.2771  0.0139
26477W        W42371   6.229  15.700   1.936  0.0557  0.2388  0.1555
26478W        W42372  15.078   7.057   2.618  0.1387  0.0075  0.0368
26479W        W42373   9.774  18.713   5.564  0.2191 -0.2729 -0.0431
26480W        W42374  12.964  10.360  13.819  0.1245  0.1883 -0.1800
26481W        W42375  16.035   0.164  12.810  0.1580  0.1805  0.0022
26482W        W42376   8.700  18.519   3.147  0.1425  0.1083 -0.2932
26483W        W42377  12.739   6.787   2.882  0.2452  0.2851 -0.3925
26484W        W42378  13.264   2.959   1.890 -0.0316  0.1492  0.0538
26485W        W42379   9.004  16.148   5.966 -0.0508 -0.2614 -0.1640
26486W        W42380  16.901   4.774  12.436 -0.0741  0.0132 -0.1552
26487W        W42381  12.399  16.989   3.416  0.2965 -0.1507 -0.0170
26488W        W42382  12.182   3.554  10.736  0.1514 -0.1748 -0.0761
26489W        W42383  18.673   4.197   3.463  0.1370 -0.3906 -0.2131
26490W        W42384   9.967  15.499   2.007  0.1566  0.1621 -0.1518
26491W        W42385   8.312   0.438   0.853  0.1645 -0.0030  0.1823
26492W        W42386   1.251   6.639  12.210  0.1344  0.0291 -0.1797
26493W        W42387  17.093  11.232   4.075  0.0940 -0.3882 -0.1177
26494W        W42388   9.224  15.009  15.044  0.1222 -0.0734  0.2308
26495W        W42389  14.946  14.661   4.616 -0.2044 -0.1095  0.0986
26496W        W42390   2.136   7.161   2.989 -0.3041  0.0867  0.4766
26497W        W42391  15.888  14.919   4.207 -0.1358  0.0979 -0.0580
26498W        W42392  12.517  16.665   5.220  0.4326 -0.0676  0.1300
26499W        W42393   7.443   4.283  15.417 -0.1443  0.1993 -0.0314
26500W        W42394   8.398   6.662   4.358 -0.6728  0.1958  0.3346
26501W        W42395  15.311  11.385   0.816 -0.1510 -0.0171 -0.2966
26502W        W42396   2.149   5.107   9.572 -0.0045  0.1088  0.0825
26503W        W42397   5.875  17.388  14.004 -0.1156  0.1585 -0.3139
26504W        W42398   1.883   4.512  12.880  0.0659 -0.0118 -0.0537
26505W        W42399   1.106   0.824   1.177 -0.0667 -0.2607 -0.2958
26506W        W42400   8.209   8.507   4.356  0.1064 -0.0877 -0.0535
26507W        W42401  14.020   0.603   2.725 -0.3185  0.1998 -0.0261
26508W        W42402  18.162  14.999   1.524  0.0166  0.0298  0.1822
26509W        W42403   1.546  15.782   5.726 -0.3167 -0.0771 -0.1110
26510W        W42404   3.458  10.450  13.286 -0.0222  0.0890 -0.1892
26511W        W42405  14.023   3.768   5.077 -0.1230 -0.3421  0.0020
26512W        W42406  15.085   0.831  10.744 -0.1268 -0.1038 -0.1757
26513W        W42407   0.253   1.554  14.611 -0.0173 -0.0322 -0.2809
26514W        W42408   2.861  15.357   0.574 -0.2532  0.1144  0.0929
26515W        W42409   6.111   3.048  12.324 -0.4032  0.3377 -0.0764
26516W        W42410   0.733   4.515   2.567 -0.1432 -0.1598 -0.2213
26517W        W42411  11.073   5.017  13.208 -0.0716  0.2585 -0.0767
26518W        W42412  11.444   4.976  11.024  0.1779 -0.1391 -0.2650
26519W        W42413   4.494  12.472  14.246  0.1817  0.0228  0.0526
26520W        W42414  12.549  10.785   0.168  0.0340  0.0533 -0.3228
26521W        W42415   5.796  13.208  14.931 -0.2134 -0.6021 -0.2841
26522W        W42416   9.589  16.223  15.477 -0.2174  0.0230  0.2033
26523W        W42417   7.458   5.948   0.602  0.2306 -0.1682 -0.0069
26524W        W42418   0.288   8.432  12.666 -0.1372 -0.0820 -0.0804
26525W        W42419   7.269  10.806   0.495 -0.1314  0.1495 -0.0060
26526W        W42420   6.120  13.171   3.607  0.1646 -0.1227  0.2547
26527W        W42421   1.826   2.625  10.640  0.1195 -0.0529  0.0675
26528W        W42422   3.381   2.162  11.916  0.1489 -0.2176  0.1482
26529W        W42423   8.431  10.851  11.761  0.2756 -0.1206  0.1191
26530W        W42424   7.966   8.353  15.104 -0.0897  0.2697  0.1335
26531W        W42425  10.791   5.598   3.012 -0.2007  0.6792  0.1542
26532W        W42426   6.114  15.596   2.890  0.2202  0.3160 -0.1146
26533W        W42427  16.483  15.916   3.890 -0.3781  0.0702 -0.0505
26534W        W42428   5.318  14.217  13.403 -0.0863  0.0385  0.1794
26535W        W42429  17.738   2.432  11.511 -0.0847 -0.2686  0.0830
26536W        W42430   2.887   9.010   2.092  0.1614 -0.2241 -0.0411
26537W        W42431   2.265   8.512  15.034  0.0842  0.0609  0.1423
26538W        W42432   7.476   7.306  13.023  0.1081  0.3128 -0.2299
26539W        W42433   2.899   3.932  13.200 -0.0825  0.1078 -0.2997
26540W        W42434  18.601  16.167   0.253 -0.2686  0.2603 -0.1219
26541W        W42435   7.372   6.285   1.130  0.0109  0.2636  0.0589
26542W        W42436  11.074  14.844  12.924  0.2090 -0.2319  0.1499
26543W        W42437   2.232  14.647   2.036  0.0013  0.1891 -0.0504
26544W        W42438   3.675  12.848  14.549  0.0092 -0.1386 -0.1819
26545W        W42439  11.554   0.358  13.862 -0.3226  0.0847  0.0462
26546W        W42440  12.683  15.334  14.986  0.0938 -0.3260 -0.1778
26547W        W42441  14.748   4.583   3.364  0.2063 -0.0544  0.0547
26548W        W42442  11.563  11.596  11.608  0.5288 -0.1000 -0.1036
26549W        W42443   0.818  10.017   1.777  0.2366 -0.0740 -0.0308
26550W        W42444   2.837   0.011   2.877 -0.2340 -0.5453 -0.0790
26551W        W42445   4.000  18.244  12.520 -0.2002  0.0432 -0.0622
26552W        W42446   4.040  16.778   2.041 -0.0893  0.2327 -0.2334
26553W        W42447   8.412   3.397   0.508  0.2330 -0.2386  0.2746
26554W        W42448   9.187  17.889   0.239  0.0947  0.1196 -0.1533
26555W        W42449  15.018  14.358  12.676 -0.1827 -0.0023  0.2067
26556W        W42450   3.338  14.525  14.955 -0.2053 -0.1124  0.0800
26557W        W42451  13.463   9.239   0.473  0.0430 -0.0295  0.0256
26558W        W42452   8.431  17.402  10.550 -0.3520 -0.1829  0.1610
26559W        W42453   3.447  12.697   5.061  0.1841 -0.1115  0.0959
26560W        W42454  16.268  18.038  11.482  0.2353  0.0305 -0.1911
26561W        W42455   2.128   3.824  11.345  0.0914  0.4123  0.1879
26562W        W42456   7.516   0.997  14.013 -0.2341 -0.2068 -0.3235
26563W        W42457   0.914  13.009  12.956 -0.0408 -0.0023 -0.1006
26564W        W42458   3.864  14.356  12.138 -0.0907 -0.0304 -0.1855
26565W        W42459  14.073   8.644   5.661 -0.1487  0.2222  0.3348
26566W        W42460   4.014   2.569  14.246  0.1462  0.1883 -0.1006
26567W        W42461   6.726  16.799  15.159 -0.2202  0.1943 -0.2941
26568W        W42462  12.860   9.234   3.610  0.1437  0.0421  0.2641
26569W        W42463   0.804   1.904  13.484 -0.1542  0.2505 -0.4561
26570W        W42464   4.717   9.484  15.142 -0.0798 -0.1782 -0.2029
26571W        W42465   6.141   5.497   4.759  0.1273  0.1025 -0.0092
26572W        W42466   4.678   1.877   0.457  0.2770  0.1499  0.1402
26573W        W42467   9.883  15.668   5.112 -0.2376  0.1069 -0.2910
26574W        W42468   1.232   6.554  15.258  0.1977 -0.1072  0.0970
26575W        W42469   9.447  14.796   1.266  0.2055  0.3742  0.3500
26576W        W42470  14.013  18.041   5.262 -0.2619  0.0515  0.0930
26577W        W42471   8.764   6.323  12.721  0.2091  0.2247 -0.1107
26578W        W42472   9.472   2.540   0.842  0.1719  0.0026 -0.1375
26579W        W42473   7.300  15.928  14.220  0.0934  0.5351  0.0650
26580W        W42474  16.202  16.208   1.765  0.1333  0.0044 -0.0243
26581W        W42475  12.754  13.486   0.140  0.2391 -0.1364  0.0540
26582W        W42476   2.466  13.750   1.629  0.0952 -0.0433 -0.0704
26583W        W42477  16.298   7.543   0.033 -0.2176  0.1652 -0.0985
26584W        W42478  14.266   0.571   5.872  0.2164 -0.3612  0.3121
26585W        W42479   5.465   9.624   1.625  0.1195  0.0689 -0.0540
26586W        W42480   6.860  14.894  11.444 -0.1210  0.2197 -0.0740
26587W        W42481   9.818   1.187   0.268  0.2159 -0.0372 -0.2611
26588W        W42482   5.951   4.222   2.763  0.1185 -0.2386 -0.2670
26589W        W42483   8.227  17.463  10.999  0.1015  0.0972 -0.3099
26590W        W42484  16.474   3.115  12.320  0.3469  0.0054  0.1402
26591W        W42485  13.799   1.563  12.678 -0.1417 -0.3399  0.0845
26592W        W42486   6.398   2.304   5.705  0.2589 -0.1053 -0.3141
26593W        W42487  17.402  10.912   3.567 -0.0718 -0.1206 -0.0703
26594W        W42488  11.303  12.636  10.653  0.0981  0.0269  0.1500
26595W        W42489   1.990  15.749   3.928 -0.1138  0.2937 -0.1038
26596W        W42490  11.915   1.512  12.784  0.1219  0.2195 -0.1726
26597W        W42491  16.340  11.569   5.040  0.0153  0.2054  0.0520
26598W        W42492   7.316  14.989  11.488 -0.1215  0.1402  0.0287
26599W        W42493   2.096   2.053  13.650 -0.2274  0.1587  0.1250
26600W        W42494   8.685  18.323   2.564 -0.1676 -0.1628  0.0001
26601W        W42495  14.567   7.706   0.747  0.0841  0.0550 -0.0720
26602W        W42496   9.181  11.857   2.560  0.0487  0.0837 -0.1918
26603W        W42497  17.047  15.013   9.989  0.2489  0.0388  0.3563
26604W        W42498  12.929   6.191   0.387 -0.2725  0.3786  0.1155
26605W        W42499  15.179  11.460  14.127  0.2056  0.0680 -0.2250
26606W        W42500  12.091  12.896  15.446  0.1698 -0.5777 -0.0892
26607W        W42501  12.224   7.083   3.244  0.0043 -0.2685 -0.0438
26608W        W42502   1.402  13.695  12.308  0.0501 -0.3099  0.2013
26609W        W42503  12.411   9.843  11.931 -0.3106 -0.0414 -0.2445
26610W        W42504   1.933   3.673  14.396  0.2814  0.0436  0.2601
26611W        W42505   1.999   2.299  12.833  0.0224  0.0496  0.1831
26612W        W42506   7.575   2.268   2.364 -0.1473  0.3329 -0.0669
26613W        W42507  12.399   1.756  11.370 -0.1785  0.1275  0.0988
26614W        W42508  10.797   8.877   1.681 -0.1913 -0.0695  0.3455
26615W        W42509  11.324  16.637   4.394  0.1875 -0.0631  0.2510
26616W        W42510   8.837  11.821   3.903  0.1344 -0.0860  0.0031
26617W        W42511  10.291  14.578   9.998  0.1531 -0.2183  0.1163
26618W        W42512  17.069  15.681   0.249 -0.0220  0.0801  0.0496
26619W        W42513  13.894   0.010   4.237  0.2819 -0.0508 -0.2067
26620W        W42514  14.194  16.974  13.078 -0.3841 -0.0462 -0.1696
26621W        W42515   7.139  18.050   1.433  0.2482  0.3860  0.1806
26622W        W42516   6.864  17.062   5.652  0.0839 -0.2216 -0.0618
26623W        W42517  15.394  14.859   4.208 -0.0994  0.4779  0.0783
26624W        W42518   1.930  17.350  11.142 -0.3681  0.1535 -0.4070
26625W        W42519  16.621   9.104   1.223  0.4033  0.2651  0.0803
26626W        W42520  13.677  13.308   3.534  0.2402  0.1230  0.4449
26627W        W42521  18.406   4.403   1.654 -0.1706 -0.2187 -0.2769
26628W        W42522  16.565   1.236   0.327 -0.0766 -0.0717 -0.2679
26629W        W42523   2.519  12.763  11.676  0.0342  0.0201 -0.4001
26630W        W42524   0.201  13.139   1.926  0.1874 -0.1228 -0.3806
26631W        W42525  18.221   3.245   4.138  0.1479 -0.0277 -0.0566
26632W        W42526   2.415   4.486  12.020  0.0538  0.0415  0.0896
26633W        W42527  15.456  12.946   0.798  0.2204  0.0232 -0.0738
26634W        W42528  13.695   4.845  13.367  0.0534 -0.0698 -0.0118
26635W        W42529  16.598   8.107   3.981  0.0538 -0.1451  0.1738
26636W        W42530  15.107  12.209  13.305  0.0343 -0.0553  0.0648
26637W        W42531   2.120  15.330   0.967  0.0321 -0.1021 -0.0718
26638W        W42532   9.255  12.307   3.385  0.0388 -0.0944 -0.0855
26639W        W42533   0.413   5.013   5.525 -0.1560 -0.2868 -0.1210
26640W        W42534   7.122  15.606   5.613  0.1217 -0.2303  0.1992
26641W        W42535   6.768   3.096   2.221 -0.0480  0.3579  0.7231
26642W        W42536   4.602  14.621  10.708 -0.0177 -0.0020 -0.0543
26643W        W42537   1.301   2.275   2.515  0.0175  0.0028 -0.1250
26644W        W42538  17.181   3.339   3.476 -0.0381  0.1289 -0.1313
26645W        W42539  17.127   6.717  12.802 -0.0998 -0.1487  0.3150
26646W        W42540  15.611  18.313  12.228 -0.1467  0.1173  0.0466
26647W        W42541  14.978  15.770  12.945 -0.1611  0.3319 -0.1734
26648W        W42542  17.650  12.361  14.383  0.0856  0.1210 -0.1642
26649W        W42543   1.457  15.333  12.496  0.1328  0.1691  0.3206
26650W        W42544  16.280  17.264   4.547  0.1003 -0.0010  0.1909
26651W        W42545  17.111  15.034   5.016 -0.2897 -0.0693  0.1059
26652W        W42546  15.370  12.023   3.871  0.1134  0.1213  0.2083
26653W        W42547   0.014   9.448  15.371 -0.0559 -0.1026  0.1769
26654W        W42548   1.286   2.033  14.157  0.2048  0.0686 -0.0869
26655W        W42549   3.981  14.059  14.322  0.3997 -0.0966  0.2850
26656W        W42550   5.387   8.608  13.918 -0.4713 -0.0130 -0.0301
26657W        W42551  13.290  12.465   1.055 -0.2056 -0.2779 -0.0006
26658W        W42552   1.063  16.719   1.149  0.3356  0.3779 -0.1586
26659W        W42553   0.903  10.732  14.693  0.0318 -0.2012  0.1014
26660W        W42554  17.080  15.064  14.331 -0.1153  0.0572 -0.2351
26661W        W42555  11.966  17.086  14.172  0.2402  0.0289 -0.3560
26662W        W42556   6.150   1.575  13.724  0.4017  0.2342 -0.0221
26663W        W42557   1.629   8.535  13.232 -0.0314  0.5014  0.2849
26664W        W42558   3.420   7.819  14.788 -0.0653  0.0622 -0.2199
26665W        W42559   0.970   6.235   2.877 -0.1399  0.1824 -0.0205
26666W        W42560   5.413   7.469  15.354 -0.0549 -0.0215  0.0424
26667W        W42561   3.551   0.125   4.965 -0.3062  0.2378  0.3923
26668W        W42562  12.693  11.324   1.125  0.2055 -0.1763 -0.2022
26669W        W42563   7.900  18.146   9.891  0.4239 -0.0832  0.1955
26670W        W42564   8.195   3.505  11.867  0.0999 -0.1872  0.0465
26671W        W42565   1.224  10.006  15.408 -0.1725 -0.1448 -0.3537
26672W        W42566  17.900  14.228  10.779  0.1259 -0.0351 -0.1055
26673W        W42567  16.128  13.961  13.378 -0.0197  0.0811 -0.1221
26674W        W42568  13.567  11.750  11.432  0.2133 -0.0653  0.0565
26675W        W42569   1.739   1.212   2.006 -0.0248 -0.1193  0.2079
26676W        W42570  11.963   0.505  13.358 -0.3987 -0.0193  0.0078
26677W        W42571  16.452  15.094   1.069  0.0772  0.1440  0.0897
26678W        W42572  14.822   0.905  14.362 -0.0805  0.0273 -0.1713
26679W        W42573   0.155  16.861   3.171  0.2090  0.0997 -0.3426
26680W        W42574  17.894   9.705  11.793 -0.1396  0.0312  0.1555
26681W        W42575   5.692   7.469   5.312  0.0737 -0.1782 -0.0085
26682W        W42576   0.927   9.344   1.099  0.0752  0.2520 -0.0502
26683W        W42577  12.455  11.212  14.435  0.3014  0.2054  0.0581
26684W        W42578   1.256  10.146   0.439  0.1093  0.0038 -0.0514
26685W        W42579   2.984   6.629   3.293 -0.2081  0.0829 -0.0473
26686W        W42580  12.348  15.013   4.989 -0.1893  0.2283  0.0580
26687W        W42581   0.526  14.270  13.186 -0.1579 -0.2611 -0.4702
26688W        W42582   4.270  17.552   2.590 -0.4032 -0.4629  0.0717
26689W        W42583   1.492  18.725   0.831 -0.0699 -0.0188 -0.0441
26690W        W42584   5.164   9.509  12.787  0.1079 -0.1193 -0.0260
26691W        W42585   1.450  18.057   1.226 -0.3354 -0.1295  0.1724
26692W        W42586  10.202  17.176  13.171  0.1378  0.2500  0.1174
26693W        W42587   0.550   2.400  14.321  0.1965 -0.1082  0.0078
26694W        W42588   9.936   4.010  11.463  0.1235 -0.1925  0.0398
26695W        W42589  10.105  15.356   3.303  0.3766 -0.2552 -0.1752
26696W        W42590   0.219   7.224  14.200 -0.1299 -0.1415 -0.0850
26697W        W42591  16.477   7.541  14.534  0.0056  0.1853  0.1090
26698W        W42592   9.864  18.347   4.094  0.4103 -0.2357 -0.1922
26699W        W42593   6.977   7.537   3.587 -0.0730  0.0464 -0.2052
26700W        W42594  18.491  16.845  15.152 -0.1557 -0.0998 -0.0770
26701W        W42595   4.468  11.344  14.789  0.1520  0.1717  0.4016
26702W        W42596   8.204   2.092   4.164 -0.0929 -0.2215  0.3084
26703W        W42597   4.434   4.432  12.267 -0.1261  0.1533  0.1303
26704W        W42598   7.047   5.549  11.011  0.0855  0.1997  0.1151
26705W        W42599   7.613  15.707  12.404 -0.0812  0.1560 -0.3368
26706W        W42600   3.796   7.470   2.450  0.0018 -0.1731  0.2542
26707W        W42601   0.544   9.531   3.710  0.0069  0.1173 -0.0346
26708W        W42602   2.649   1.538   3.015 -0.1648 -0.0389  0.2194
26709W        W42603  12.430   9.334  14.075 -0.3270  0.1382 -0.1252
26710W        W42604  10.316   8.137  14.884 -0.0451 -0.0197  0.0939
26711W        W42605  13.974   8.320  11.091  0.1236  0.1033  0.0580
26712W        W42606   8.630   7.660  13.331  0.2434 -0.3680  0.1461
26713W        W42607  10.648   8.665  13.571  0.1000 -0.1565 -0.0047
26714W        W42608  13.183   4.012   5.382 -0.1748 -0.2509 -0.1289
26715W        W42609  17.401  15.121  10.752 -0.1567 -0.2078 -0.3418
26716W        W42610   5.042  11.272   0.483  0.0725  0.0076 -0.2831
26717W        W42611  15.016  16.993  14.664 -0.0083 -0.1115  0.1701
26718W        W42612  13.949   0.866   4.175 -0.1311 -0.1841  0.2127
26719W        W42613  16.486   1.621  15.473  0.2152  0.2794 -0.1762
26720W        W42614  18.502   1.404  11.947  0.0879  0.0963 -0.1025
26721W        W42615   8.764  16.802   2.710  0.1465 -0.0290 -0.2261
26722W        W42616  18.062   1.180  10.271  0.1810 -0.0378 -0.1845
26723W        W42617   1.210  17.107   3.653 -0.4565 -0.0061  0.0046
26724W        W42618  17.383   9.081   3.828 -0.2746 -0.0966  0.2458
26725W        W42619  11.114   3.297   0.250 -0.2587 -0.1746 -0.1888
26726W        W42620  10.895  11.578  12.890  0.1092  0.1699 -0.2474
26727W        W42621  16.371   0.224  15.158 -0.0898 -0.0262  0.0987
26728W        W42622  17.624  13.862  12.617  0.2957 -0.1451 -0.1361
26729W        W42623   2.261  14.076  11.592  0.0095 -0.2428  0.0872
26730W        W42624  16.502  18.068   2.596  0.3871 -0.0002 -0.1618
26731W        W42625  13.361   1.373   4.412 -0.0887  0.0769  0.1144
26732W        W42626  13.967  11.272  13.595 -0.5883  0.1695 -0.1121
26733W        W42627  11.978  14.396   2.118  0.2219  0.0157  0.1420
26734W        W42628  17.035   3.880  15.107 -0.1370  0.0611 -0.2690
26735W        W42629  16.270  14.689   3.825 -0.1469 -0.1386  0.1100
26736W        W42630  16.551   6.864   3.116  0.4072  0.1860 -0.0996
26737W        W42631   8.674  13.589  13.392 -0.0713  0.0765  0.2399
26738W        W42632   7.023  16.449   1.592 -0.2404 -0.1215  0.1502
26739W        W42633  13.729  11.907   2.219 -0.0544 -0.0593 -0.3173
26740W        W42634  11.096   0.860  11.031  0.2352 -0.4259 -0.0141
26741W        W42635   1.787   4.791   1.310 -0.2468 -0.0105 -0.2969
26742W        W42636   2.386  11.010   0.411 -0.1443  0.4906 -0.0854
26743W        W42637   0.740  11.902  14.080 -0.0962  0.0760  0.2448
26744W        W42638  16.188   2.949   2.250 -0.2822  0.1199 -0.3023
26745W        W42639   0.272  16.079  13.089  0.0559  0.1838 -0.1592
26746W        W42640  18.667   1.063   1.467  0.0375  0.2018 -0.1056
26747W        W42641   6.826   4.900  14.026  0.2781  0.1040  0.0909
26748W        W42642   1.990   1.797   2.798 -0.0304  0.3320  0.1074
26749W        W42643   5.116   5.673  15.292 -0.0993  0.0587  0.0955
26750W        W42644   7.498   8.468  14.958 -0.3126  0.2456 -0.0079
26751W        W42645  15.329   1.279  12.888  0.0010 -0.3155 -0.2225
26752W        W42646   2.458   7.347  12.438 -0.1944 -0.4010 -0.0483
26753W        W42647  14.568  10.012   4.460 -0.0715 -0.1520  0.1861
26754W        W42648   1.249  12.559   0.107 -0.1076 -0.1730  0.1481
26755W        W42649   8.890   5.294   1.176  0.1205  0.1181 -0.0276
26756W        W42650   4.274   9.321   3.298  0.1266  0.0522  0.0548
26757W        W42651   5.783  17.381  10.280 -0.0867 -0.2552 -0.2996
26758W        W42652   6.237   3.234  11.818 -0.1839 -0.1801 -0.0154
26759W        W42653   2.735  15.826   0.409 -0.1510  0.0161  0.0146
26760W        W42654  14.140  17.214   3.503  0.5685  0.1557 -0.0889
26761W        W42655   4.306   8.371  12.947  0.1298  0.3390  0.3080
26762W        W42656  14.057   8.930  10.688 -0.0461 -0.1995  0.1141
26763W        W42657  11.508   6.242  12.184  0.1886  0.1010  0.1290
26764W        W42658   5.605  16.594  12.422  0.0674  0.1704  0.2670
26765W        W42659   4.893   0.190   9.697  0.2219  0.0219 -0.2207
26766W        W42660   2.788   8.429   0.830 -0.0369  0.2009  0.3319
26767W        W42661  11.780   6.383  14.514  0.1926 -0.3398 -0.3691
26768W        W42662  14.221   5.564  12.963 -0.1125  0.1215  0.1963
26769W        W42663   7.318  17.805  12.981  0.1758  0.1158 -0.4434
26770W        W42664  16.148   4.899   2.245  0.4849  0.0800  0.2738
26771W        W42665  15.972   9.957   4.230  0.4198  0.3276 -0.3522
26772W        W42666  17.402  12.341   2.505  0.0590 -0.1831  0.1195
26773W        W42667   8.703  13.070   2.550  0.2717  0.1251  0.1550
26774W        W42668  10.582  11.946  13.064 -0.0712  0.0486 -0.1374
26775W        W42669   4.586  17.312  10.452  0.0788  0.1192 -0.1526
26776W        W42670   2.408  10.473  14.676  0.0250 -0.1325 -0.1277
26777W        W42671   8.733  15.266   1.676  0.2146 -0.0277  0.1020
26778W        W42672  15.912  12.544  13.563 -0.0220  0.0987  0.1996
26779W        W42673   8.467   5.176  14.318  0.3316 -0.1557  0.2636
26780W        W42674   9.419   2.933   4.180  0.2455  0.1573  0.2107
26781W        W42675  11.464  17.029  11.507  0.0907  0.0000  0.0493
26782W        W42676  13.848   5.056  11.052  0.2097  0.1841  0.0006
26783W        W42677  18.651   8.509   2.992 -0.4616  0.0076 -0.0225
26784W        W42678   2.691   8.060   9.247  0.0748  0.2705 -0.3490
26785W        W42679   3.597   8.775  10.928 -0.1405 -0.3870 -0.0603
26786W        W42680   2.122   6.552   0.924 -0.1955 -0.1454 -0.2325
26787W        W42681   2.816  16.279  14.136  0.0375  0.3189 -0.1082
26788W        W42682   3.387  10.862  14.640 -0.1916  0.0185 -0.1226
26789W        W42683  16.598  17.088   0.300 -0.2482  0.1010 -0.0683
26790W        W42684  13.581   4.229   3.030 -0.2442 -0.1400 -0.0390
26791W        W42685  16.504  15.530  13.583  0.1997  0.0324 -0.0893
26792W        W42686   6.453  13.119   0.392  0.0069  0.1052 -0.2243
26793W        W42687  17.359  14.369   2.800  0.3045  0.0088 -0.0122
26794W        W42688   1.833  12.999  12.994  0.0767  0.2566 -0.0300
26795W        W42689  16.311   9.700   4.479  0.2426 -0.0908  0.2407
26796W        W42690   1.542  13.208  14.261  0.0200  0.5562 -0.0346
26797W        W42691   3.394   0.791  12.942 -0.1883 -0.0698 -0.1402
26798W        W42692  16.339  15.249   4.030  0.2241  0.0955 -0.2515
26799W        W42693  15.429  13.494  12.695 -0.0415  0.0647  0.3199
26800W        W42694   9.454  10.817   2.305  0.2367 -0.0939  0.1904
26801W        W42695  13.080  13.157  13.953  0.0405 -0.0194  0.3381
26802W        W42696  12.161   5.584  14.300 -0.1806  0.0160  0.2864
26803W        W42697   1.585  13.537   1.662  0.2769  0.0660  0.0720
26804W        W42698   2.116  10.301  14.248 -0.2168 -0.1937  0.1359
26805W        W42699  17.061  18.604   0.884  0.0093 -0.0968  0.2791
26806W        W42700   1.078  13.471  11.440 -0.3601  0.1146  0.2175
26807W        W42701  14.135  11.900   0.316  0.1413  0.0004  0.0347
26808W        W42702  17.853  18.784   2.857 -0.1658 -0.2472  0.0390
26809W        W42703   3.183  12.883  14.926  0.2203 -0.0472  0.4904
26810W        W42704  16.274  10.649  14.478  0.0363 -0.0587  0.3210
26811W        W42705  15.739  17.262   4.520 -0.1390 -0.1638  0.0556
26812W        W42706   6.370  14.561   1.897 -0.0919  0.1054 -0.2468
26813W        W42707   2.552  12.168  11.530 -0.1696  0.1587  0.1004
26814W        W42708   5.975   7.364   4.367  0.1694  0.2424  0.0707
26815W        W42709   7.645  17.202  11.670  0.1598  0.1850 -0.0772
26816W        W42710  15.589   2.037  14.670  0.2610 -0.0598 -0.2957
26817W        W42711   7.858   3.210  12.196  0.0129 -0.4446 -0.3585
26818W        W42712  18.864  14.483  11.585  0.2119 -0.1750 -0.3022
26819W        W42713  18.859   9.551  12.140 -0.1910  0.2622  0.2645
26820W        W42714   6.035   5.759  12.336  0.2408  0.0640  0.2127
26821W        W42715  11.381  14.710   0.835 -0.0623 -0.0873  0.0794
26822W        W42716   5.979  10.551   2.683 -0.1519  0.3382 -0.1153
26823W        W42717   1.394  16.940  11.402  0.0202 -0.1399  0.2766
26824W        W42718   2.314   8.206   4.611  0.0369 -0.0341  0.1460
26825W        W42719  11.428   5.291   3.958  0.1809  0.0952 -0.3049
26826W        W42720   3.994   3.564   4.233  0.1951 -0.2227  0.0580
26827W        W42721   5.614   0.468   2.583  0.0015  0.3339  0.1302
26828W        W42722  10.201  12.744   5.731  0.1997 -0.2411  0.0924
26829W        W42723  12.774   7.374   9.976 -0.0369  0.0827  0.0367
26830W        W42724   3.076  18.716   2.393 -0.2004 -0.2540 -0.0861
26831W        W42725   1.742   8.455  14.053  0.1450 -0.1490  0.2995
26832W        W42726   1.545   5.027   0.496 -0.1978 -0.0990 -0.3358
26833W        W42727   4.565  14.087  12.537  0.0785  0.2095 -0.1286
26834W        W42728   0.338   1.280   9.822 -0.0427  0.2636 -0.0082
26835W        W42729  12.189  11.492   1.239 -0.0615  0.0840  0.1371
26836W        W42730  15.712   0.670   0.238 -0.2230 -0.0941  0.0437
26837W        W42731  11.533  12.438  14.519  0.0352 -0.1826  0.0685
26838W        W42732  10.556  16.575   5.954 -0.0818  0.1988  0.2707
26839W        W42733   3.316   9.201  14.684 -0.0743 -0.2305  0.0144
26840W        W42734  16.021  15.822  12.242 -0.1541 -0.0250 -0.0458
26841W        W42735  18.515   0.569  12.486 -0.0052  0.1177 -0.1177
26842W        W42736  12.295  14.113  12.316  0.4272  0.0638 -0.1997
26843W        W42737   8.357   7.256   3.352  0.2684  0.1058 -0.0434
26844W        W42738   6.639   6.028   2.632  0.0547 -0.1264 -0.1573
26845W        W42739   8.532  11.051  11.157  0.3658  0.2122 -0.1559
26846W        W42740   4.183   0.585   4.556 -0.1705 -0.1867  0.1026
26847W        W42741  16.873   1.901   3.584 -0.0290  0.2616  0.2725
26848W        W42742   6.411   4.035   0.345  0.1858  0.0021  0.2221
26849W        W42743  13.758   0.180  12.594  0.2207 -0.2680  0.1282
26850W        W42744  13.394  11.561   2.641 -0.1023 -0.1622 -0.3868
26851W        W42745   1.325   0.187   3.447 -0.1845  0.1846 -0.0416
26852W        W42746  18.747   4.828  12.936 -0.2084 -0.2630  0.0918
26853W        W42747  16.899   2.169  12.615 -0.0532 -0.0110  0.0774
26854W        W42748  16.376  12.006  14.700  0.0969  0.1436  0.2646
26855W        W42749   5.500   1.479   9.466 -0.1015 -0.1053  0.1034
26856W        W42750  10.725   5.572   5.249  0.6142  0.0047 -0.2616
26857W        W42751  18.604   0.089   1.929 -0.4123  0.0888 -0.1029
26858W        W42752  11.654  16.991   4.100 -0.0692 -0.2280 -0.3837
26859W        W42753   7.084   7.584  15.047  0.0624  0.3429 -0.0050
26860W        W42754  11.030  10.262   3.080  0.0714 -0.1128  0.1024
26861W        W42755  11.128  15.496  11.868 -0.0325  0.1026  0.2403
26862W        W42756  10.568  17.357  11.082  0.0168 -0.2969  0.2773
26863W        W42757  16.582  12.219   9.948 -0.1164 -0.0832 -0.2820
26864W        W42758  16.517  10.482   1.124  0.2244  0.0462 -0.0608
26865W        W42759   7.919  11.540  14.353 -0.3435 -0.2527 -0.1112
26866W        W42760  15.644   3.957  13.211 -0.1073 -0.0910 -0.0445
26867W        W42761  10.123   6.613   1.207 -0.0732  0.2189  0.2885
26868W        W42762   2.747   0.414  15.453 -0.1814  0.0028  0.0867
26869W        W42763   9.769   7.850   3.545  0.0747  0.2134  0.0631
26870W        W42764  13.592  12.584  11.745  0.0786  0.3526 -0.1442
26871W        W42765  10.414   6.927  12.404  0.0482  0.0512  0.0629
26872W        W42766   6.475   9.766   9.510  0.0310 -0.1532  0.1097
26873W        W42767   1.975   4.219  14.349 -0.2018  0.0796 -0.3457
26874W        W42768   0.269   1.772   0.486 -0.0942  0.2243 -0.1140
26875W        W42769   9.203   6.092   0.995  0.1150 -0.1808 -0.0830
26876W        W42770   4.782  17.663   1.371  0.1653  0.1862  0.4778
26877W        W42771   9.068   6.053   4.030  0.0952  0.2266  0.0842
26878W        W42772   6.457   8.574  12.908  0.0517 -0.3403 -0.1905
26879W        W42773   7.325  16.870   5.587 -0.0014  0.0442  0.2900
26880W        W42774  12.626   9.769  13.191 -0.2646  0.0234  0.1639
26881W        W42775  16.046   8.487   1.650 -0.0166 -0.2468  0.0886
26882W        W42776  11.294   9.496  14.698  0.0164  0.5045 -0.1431
26883W        W42777  17.746   1.430  14.593  0.3358 -0.1004  0.1002
26884W        W42778   9.712  16.044   1.796  0.0527  0.1065  0.3092
26885W        W42779  12.346   7.669   3.151 -0.0374  0.1204 -0.0388
26886W        W42780  12.494   9.008  11.317  0.2155 -0.2524  0.1498
26887W        W42781  14.714   1.847  11.614  0.0669 -0.1133  0.0136
26888W        W42782  18.674   8.749  11.860 -0.0995  0.0784 -0.0388
26889W        W42783  17.108  18.781  14.055  0.1550  0.0345 -0.4176
26890W        W42784  11.399  10.030   4.055  0.0655  0.0347  0.1776
26891W        W42785  10.140   6.019   4.260 -0.2487  0.1744  0.0119
26892W        W42786   3.115  18.849  13.269  0.0225  0.0524 -0.2404
26893W        W42787  13.132   0.760   2.731  0.2916 -0.0407 -0.0211
26894W        W42788   2.296   3.496  12.364  0.1824  0.2280 -0.0414
26895W        W42789   1.626   0.513   4.378  0.3392 -0.2694 -0.0214
26896W        W42790   7.139  14.672  15.428 -0.1671 -0.2414 -0.1457
26897W        W42791   4.667   8.838   0.814  0.0263 -0.1931  0.0773
26898W        W42792  16.078  13.841  11.253 -0.1062  0.0981  0.0124
26899W        W42793   6.590   6.054  14.617 -0.1353  0.1197  0.0382
26900W        W42794  16.871   1.715  10.640  0.0713  0.2380  0.0976
26901W        W42795   1.708  11.076  14.393 -0.1015  0.1443 -0.2401
26902W        W42796   8.328   4.548  15.323 -0.0991  0.2348 -0.0425
26903W        W42797  16.161   0.434   0.234  0.4563  0.1792  0.0133
26904W        W42798  13.528  16.818   0.566 -0.1139 -0.2650 -0.0249
26905W        W42799  14.072   1.440  15.187  0.2240 -0.0657 -0.2979
26906W        W42800  15.899  15.097   2.034  0.1319 -0.0352  0.0148
26907W        W42801  14.537  15.156  13.546  0.2708  0.1754 -0.1063
26908W        W42802  14.539   0.910   4.815 -0.0578  0.1875  0.1738
26909W        W42803   1.934  12.014  15.448 -0.1885 -0.2192  0.1104
26910W        W42804  17.501   3.529  13.118 -0.0058  0.1513  0.0242
26911W        W42805   7.604   0.277   0.148 -0.2020  0.0496 -0.0414
26912W        W42806   5.664   0.077   1.862  0.3209 -0.1671  0.0347
26913W        W42807   0.519   6.117   2.509  0.0045  0.2517 -0.1570
26914W        W42808  13.463   8.413  12.582  0.1839 -0.1849 -0.2189
26915W        W42809  18.375   4.352  15.309  0.1203  0.2267  0.1659
26916W        W42810   1.685   6.758   3.503  0.0964 -0.0218 -0.0483
26917W        W42811  13.113   1.367   3.394 -0.0941  0.1592  0.2700
26918W        W42812   0.469   9.609  10.680 -0.0363 -0.1407 -0.0571
26919W        W42813  12.794   0.277  11.328 -0.3807  0.1360 -0.0873
26920W        W42814   3.412   9.473   3.469  0.0100  0.3681  0.4144
26921W        W42815  17.745  14.907   1.948  0.0582 -0.4144 -0.2574
26922W        W42816   7.017  17.577   2.611 -0.3143  0.0304  0.2862
26923W        W42817   5.431   3.788  11.094  0.1124  0.1648 -0.0923
26924W        W42818  16.709  18.194   3.986 -0.0591  0.1361  0.0603
26925W        W42819   0.404   4.085  13.541 -0.2625  0.2491  0.5028
26926W        W42820   8.928  12.672   4.267 -0.3967  0.0806  0.1437
26927W        W42821   5.114  10.321  13.358 -0.1353 -0.2462  0.2095
26928W        W42822   7.778  18.665   3.336 -0.0916  0.1874  0.0755
26929W        W42823   8.206   0.798   3.992  0.0141 -0.0299  0.1755
26930W        W42824   1.223   1.497   4.396 -0.0714  0.0730 -0.1036
26931W        W42825   5.373   3.615  10.638  0.2185 -0.0040 -0.0920
26932W        W42826   2.758  13.586  11.265 -0.0108 -0.0732  0.2788
26933W        W42827  12.113  17.310  13.206  0.0555  0.1624  0.2384
26934W        W42828  10.614  10.456   4.634 -0.0115  0.0693 -0.0567
26935W        W42829  17.380  15.148  12.572  0.2483 -0.1279  0.2662
26936W        W42830  12.571   3.162  12.527 -0.1325  0.1583  0.0258
26937W        W42831  10.011   0.178   2.651 -0.1236  0.1013 -0.1943
26938W        W42832  13.107  12.604  11.932 -0.2138  0.1969 -0.0303
26939W        W42833  18.387   7.837  13.752 -0.2331 -0.0753  0.1628
26940W        W42834   2.231  13.194  14.698 -0.5362 -0.0673 -0.1297
26941W        W42835   8.478   8.370   4.843  0.3889  0.2746 -0.0226
26942W        W42836   7.796   9.658  10.974 -0.2454 -0.0971 -0.1828
26943W        W42837   8.652  15.713   0.543  0.1261  0.2259  0.0393
26944W        W42838  15.716  14.287   3.006  0.0831 -0.1318 -0.0063
26945W        W42839   5.857   3.977  14.429  0.0543 -0.0264 -0.2877
26946W        W42840   8.377   3.992  10.406  0.0179  0.2895  0.1717
26947W        W42841  11.351   6.066  14.843 -0.1214  0.0742 -0.1188
26948W        W42842   2.389  18.591  15.262 -0.2726 -0.0589 -0.0225
26949W        W42843   4.688   6.541   3.047 -0.2376 -0.1623  0.0669
26950W        W42844   4.214   4.226   2.242  0.2999 -0.1907  0.0193
26951W        W42845  17.925  13.955   3.092 -0.0744 -0.2629  0.0111
26952W        W42846  11.576  16.002   1.298  0.1494 -0.0178  0.0771
26953W        W42847  12.061  17.172  15.458 -0.0351  0.3126 -0.1384
26954W        W42848   5.501  16.171   2.248  0.3123  0.0999 -0.2240
26955W        W42849  10.914   5.068  11.750 -0.2138 -0.2275  0.0761
26956W        W42850   9.500  14.521   0.675  0.0850  0.3723 -0.2471
26957W        W42851  11.385   5.379  11.488 -0.0404 -0.0140  0.2862
26958W        W42852  10.549  14.160  11.325  0.1814 -0.2700  0.0899
26959W        W42853  12.740   9.385  14.530  0.0390 -0.0429  0.0601
26960W        W42854  14.264   4.736   5.328 -0.1796  0.0497  0.0428
26961W        W42855   2.674   7.023   3.631  0.2443 -0.1169  0.0721
26962W        W42856  11.058   8.332  12.613 -0.1885 -0.0798 -0.1184
26963W        W42857   1.588  12.322   0.753  0.0159  0.0717 -0.0501
26964W        W42858  16.852  10.946   3.551 -0.1662 -0.4083  0.0646
26965W        W42859  14.075  16.237   5.241 -0.0175  0.3065 -0.0736
26966W        W42860   5.961  15.328   3.492  0.0093  0.2335  0.0136
26967W        W42861  14.919  16.794  13.726 -0.0785 -0.0688 -0.0870
26968W        W42862  13.479  13.961   1.086  0.2651  0.1830  0.1048
26969W        W42863   2.951  16.411  10.746  0.1842 -0.2004 -0.1695
26970W        W42864  17.674   5.732  12.526 -0.0687  0.0826  0.3810
26971W        W42865  14.218  10.361   4.341 -0.0860 -0.0158  0.4751
26972W        W42866  11.616   7.964  12.431  0.0269  0.1379 -0.0468
26973W        W42867  10.669   2.182   4.814  0.1246  0.3175 -0.1339
26974W        W42868  10.338   0.162  12.478  0.0821 -0.0773 -0.0560
26975W        W42869  10.697  15.466  15.304  0.1953  0.1580  0.5518
26976W        W42870  14.298   1.568  11.617  0.1571  0.1985 -0.0271
26977W        W42871  12.734   6.285   3.114  0.2220 -0.0583 -0.0320
26978W        W42872   8.132   9.775  11.373 -0.0056  0.0187 -0.1300
26979W        W42873  12.159  16.928  11.395 -0.0657 -0.0764  0.2054
26980W        W42874   0.248  13.355  11.674 -0.2592  0.0674  0.0454
26981W        W42875   3.229   7.048  13.084 -0.3754  0.1705  0.2157
26982W        W42876  12.300  13.934  15.049 -0.2383  0.2238 -0.0538
26983W        W42877  13.268   1.679  13.188  0.2541  0.0098 -0.0747
26984W        W42878  17.349  11.919  12.429 -0.1803  0.0928  0.3112
26985W        W42879   6.026  13.136  13.215  0.2171 -0.1632 -0.3339
26986W        W42880   9.769   4.747   0.906  0.3096  0.2899  0.0713
26987W        W42881  13.996  12.806  12.380 -0.1253  0.1106  0.0298
26988W        W42882  15.326  12.756   1.859 -0.1947 -0.0320 -0.0938
26989W        W42883  18.215  15.672  12.831  0.1323  0.1440  0.1887
26990W        W42884  17.975  16.621  11.391 -0.3783  0.0553 -0.0068
26991W        W42885   8.216  11.834   2.230  0.2699  0.0587  0.2849
26992W        W42886   1.390   5.536  12.960 -0.1980 -0.0018  0.1758
26993W        W42887  18.697  15.809   1.990  0.1755 -0.2428  0.2316
26994W        W42888   5.295  15.599   2.170  0.0894 -0.0951 -0.1253
26995W        W42889   5.755  11.084  13.433  0.2591  0.0039 -0.0895
26996W        W42890   1.317   4.485   0.509 -0.1974 -0.3015  0.1431
26997W        W42891   3.478   0.244  11.612 -0.0906 -0.6236  0.0109
26998W        W42892  14.869   8.852  15.432 -0.0156  0.1074 -0.0955
26999W        W42893  13.135  16.914   4.246  0.0626  0.1488 -0.0973
27000W        W42894  15.584   2.375  12.319 -0.2749 -0.2003  0.0236
27001W        W42895  16.647   4.400  12.651 -0.2734 -0.0167 -0.1434
27002W        W42896   4.108  11.016  12.601  0.1286  0.0733  0.0444
27003W        W42897   6.416   4.292  11.630 -0.2101 -0.3442 -0.0591
27004W        W42898  16.354  14.181  12.314  0.0183 -0.0110  0.2044
27005W        W42899  16.073  17.830  11.038  0.1403  0.1467  0.1662
27006W        W42900  10.147  14.090   3.356 -0.3755  0.2808 -0.1099
27007W        W42901   8.057  14.188   3.566  0.0890 -0.0360 -0.0772
27008W        W42902   2.989   6.483   4.383 -0.2568  0.1113 -0.1017
27009W        W42903   1.853   5.302   3.284  0.3704  0.1655  0.1632
27010W        W42904  12.749   3.880  14.258  0.0750  0.3244  0.1221
27011W        W42905  17.395  12.071  14.731 -0.2091 -0.1352 -0.1437
27012W        W42906  17.254   5.160   1.612  0.1824 -0.1635  0.0583
27013W        W42907   5.963  14.203  11.394 -0.0436  0.0865  0.1933
27014W        W42908   2.814  12.136   4.347  0.0714 -0.1064 -0.1151
27015W        W42909   1.188  17.664   2.862  0.0129  0.0739  0.3584
27016W        W42910  10.321  11.388   4.589 -0.1757 -0.1176  0.2312
27017W        W42911  11.923  12.938  12.438  0.1473 -0.2389 -0.1900
27018W        W42912   7.280   6.789   0.028  0.2816 -0.1689  0.1965
27019W        W42913   5.679  12.312  15.316 -0.0132 -0.2220 -0.0745
27020W        W42914   0.959   9.955   2.601 -0.3945 -0.3484  0.0068
27021W        W42915   3.871  12.947  13.723  0.2834 -0.2965  0.0294
27022W        W42916   1.590   0.785   1.071 -0.4514  0.0241 -0.0513
27023W        W42917   1.049   4.788  12.701  0.3625 -0.0026  0.2070
27024W        W42918  16.723   9.040  12.475 -0.0167 -0.0902 -0.3171
27025W        W42919  11.593  16.520   6.239 -0.2735  0.0322 -0.1744
27026W        W42920   4.649   8.677   4.891 -0.1082  0.1572 -0.1669
27027W        W42921   4.239  14.332   5.496  0.2758  0.1856 -0.2003
27028W        W42922   0.761  10.982  13.470  0.0520 -0.1039  0.0776
27029W        W42923   4.522  15.476   2.808 -0.1970  0.0828  0.0371
27030W        W42924   0.666   9.606  13.767  0.2321 -0.0356  0.0390
27031W        W42925   5.178   9.981   0.817 -0.1492 -0.0757  0.0235
27032W        W42926  10.533   7.858  12.896 -0.1503 -0.3573  0.4755
27033W        W42927   1.690  13.087   3.664  0.0460  0.0102  0.2871
27034W        W42928   5.247  10.891  11.521  0.0064  0.1930 -0.3492
27035W        W42929  12.754  16.319   5.503  0.2756 -0.1300  0.1301
27036W        W42930  14.075   0.319  12.073  0.0339  0.1681 -0.1487
27037W        W42931   8.402   5.783   4.643 -0.3754 -0.1819 -0.1939
27038W        W42932  13.714   5.879  12.109  0.1769 -0.1721  0.4325
27039W        W42933   3.602  10.049  14.189 -0.1061 -0.1665 -0.0171
27040W        W42934   6.517  16.220   0.355 -0.0151 -0.0412  0.0551
27041W        W42935   4.830  11.312   4.554 -0.1927 -0.2154 -0.0451
27042W        W42936  14.142   5.161  13.568  0.0314  0.1937  0.1961
27043W        W42937   5.522  14.765  13.959 -0.0843 -0.0938  0.0370
27044W        W42938  16.603  14.396  13.431  0.1084 -0.3245  0.1578
27045W        W42939  14.770   9.881   0.917 -0.1156  0.2110  0.2310
27046W        W42940  10.798   8.924   4.686 -0.3431 -0.0392  0.0721
27047W        W42941   3.306   0.131   2.803 -0.2990  0.0799 -0.1537
27048W        W42942  14.564   0.597  12.174 -0.0230 -0.0420 -0.3547
27049W        W42943   4.999   0.186  12.161 -0.0460 -0.0683 -0.1583
27050W        W42944   8.245   9.177  13.079 -0.1715 -0.1412  0.2971
27051W        W42945  15.925  16.459   3.652 -0.0987  0.0582 -0.1429
27052W        W42946   9.308   7.939  11.505  0.2033 -0.2848 -0.1586
27053W        W42947   4.105   5.399   3.719 -0.3524 -0.1354 -0.2859
27054W        W42948   6.059   2.343   1.730  0.1023  0.4239  0.3014
27055W        W42949   3.475  12.845  13.427  0.2266  0.0344 -0.0056
27056W        W42950   8.978  16.934  15.483  0.0832 -0.2304 -0.0737
27057W        W42951   7.210  17.675   1.822 -0.0326  0.1648 -0.0828
27058W        W42952   2.726   2.223  10.746  0.1169 -0.0202 -0.2235
27059W        W42953  17.167  17.077   3.614  0.2472 -0.0219 -0.1345
27060W        W42954  11.132   4.937   1.899  0.0862  0.4741  0.2446
27061W        W42955   4.539  18.748   2.186  0.1143 -0.1543 -0.0374
27062W        W42956   1.802  11.279   5.221 -0.0895  0.1381  0.2598
27063W        W42957   5.410   1.676   1.840 -0.2021 -0.3196  0.0620
27064W        W42958  16.460  11.888   6.103  0.0856  0.3418  0.2099
27065W        W42959  10.857   4.653   2.796 -0.0535  0.1407  0.1834
27066W        W42960  17.154  12.933  12.712 -0.1921 -0.1236 -0.2501
27067W        W42961  10.314   0.564   2.762  0.1989 -0.1738  0.1104
27068W        W42962   9.019  15.106   2.132  0.3246 -0.0065  0.0101
27069W        W42963   0.843   0.763  14.424  0.1576  0.1631 -0.2077
27070W        W42964   6.597  14.963  11.037  0.0964 -0.0316 -0.1861
27071W        W42965  16.988  18.041   2.166  0.6252 -0.0398 -0.0385
27072W        W42966   3.535  14.098  10.947 -0.0268 -0.1769 -0.1718
27073W        W42967   9.210   1.433  15.297  0.2307  0.0136 -0.1781
27074W        W42968   5.641   7.058   1.080  0.1814 -0.0036  0.1217
27075W        W42969  13.178   3.076   0.006 -0.3549  0.2920 -0.0028
27076W        W42970  14.145   7.109  13.635 -0.2045 -0.2734 -0.0306
27077W        W42971   8.493  10.509   0.775 -0.3716  0.0192 -0.0238
27078W        W42972  15.456  16.256  15.111 -0.1755 -0.1171  0.1532
27079W        W42973   2.582   1.781  11.398  0.0010  0.0165 -0.3695
27080W        W42974  17.690  16.226  14.504  0.2027 -0.0090  0.2130
27081W        W42975   6.548  16.468  13.641  0.3961  0.0922  0.4753
27082W        W42976   5.919   2.379   3.385 -0.4421 -0.0499 -0.1247
27083W        W42977  12.496   9.664   4.926  0.1978 -0.0741 -0.0963
27084W        W42978  16.129   0.975   4.020 -0.1026 -0.0357 -0.1342
27085W        W42979   0.476   1.323   3.304 -0.1498  0.0676 -0.0627
27086W        W42980  16.860   0.802  14.597  0.2918  0.1162  0.1922
27087W        W42981   1.575   1.700  11.853 -0.2836  0.2815 -0.0263
27088W        W42982   2.050  12.337   0.955 -0.0643  0.0620 -0.0398
27089W        W42983   3.386  12.950   2.971 -0.0084  0.3575  0.1614
27090W        W42984   2.920   1.022  10.500  0.2741 -0.1630  0.1399
27091W        W42985  16.880   4.196   0.817  0.0771  0.0351  0.1517
27092W        W42986  12.848  11.821  13.715 -0.0034 -0.1154  0.1057
27093W        W42987   1.639  11.853  10.921  0.0941  0.1184  0.1922
27094W        W42988  17.227   7.731  11.706 -0.0746 -0.0838  0.0237
27095W        W42989   9.483   9.192  15.329  0.0601  0.1272  0.0089
27096W        W42990   8.395   1.605   0.140 -0.0249 -0.3130  0.3008
27097W        W42991  16.787   6.246   3.904 -0.1088 -0.1707 -0.1402
27098W        W42992  12.599  15.411   4.528  0.2312 -0.3456  0.2126
27099W        W42993   6.517  17.036  14.774  0.0649 -0.0978  0.1378
27100W        W42994   7.942  14.554   3.902  0.1470  0.1410 -0.0779
27101W        W42995  12.524  11.319  11.850 -0.1152  0.0788  0.0962
27102W        W42996   9.598   3.451  12.198  0.1017  0.1596  0.2250
27103W        W42997  13.280   2.494  10.968 -0.2330 -0.1532  0.2458
27104W        W42998   5.485  17.283   2.932  0.1183 -0.0188 -0.0955
27105W        W42999   1.911  11.279  10.333 -0.0398  0.0570  0.0108
27106W        W43000   8.498  17.774  13.350 -0.1256  0.0505  0.0529
27107W        W43001   3.670   4.266   2.923  0.0533 -0.1910  0.1480
27108W        W43002   8.979   8.120  14.780 -0.3767  0.0798  0.0326
27109W        W43003   5.687   7.240   0.540  0.1242 -0.1658  0.0078
27110W        W43004  18.188   0.551   4.362 -0.1106 -0.0044  0.0461
27111W        W43005   1.901   2.424  13.321  0.0175  0.0577  0.0069
27112W        W43006  18.641  12.586  10.653 -0.1832 -0.0259  0.0404
27113W        W43007   5.447  16.543   1.329 -0.1447 -0.0072  0.1068
27114W        W43008  15.084   9.173  12.154 -0.0536  0.1455 -0.1956
27115W        W43009   2.458   9.493  14.743  0.1213 -0.0248  0.0487
27116W        W43010   5.784  10.168  10.649 -0.1339 -0.2793 -0.0870
27117W        W43011   8.214  13.562   0.886 -0.2042 -0.0203  0.0128
27118W        W43012  14.131  13.891   0.599 -0.3062 -0.0491 -0.2033
27119W        W43013  18.186  10.050   1.466  0.0846  0.2729  0.0372
27120W        W43014  17.766  12.256  15.147 -0.0901 -0.2226  0.0799
27121W        W43015   5.335   7.300  11.434  0.2605 -0.1377  0.3003
27122W        W43016  11.568   9.701   0.755  0.0105 -0.0294  0.3501
27123W        W43017   8.217  11.797  13.388  0.1184  0.0238  0.2538
27124W        W43018   7.062   8.627   4.103  0.0174 -0.2380 -0.0457
27125W        W43019   6.827   2.159  14.749 -0.3051 -0.0800 -0.1527
27126W        W43020  17.254  18.265  13.724  0.0745  0.0572  0.0072
27127W        W43021  12.188   6.037   0.309 -0.1148 -0.1572 -0.2281
27128W        W43022  16.247  10.689  11.925 -0.1025  0.0685  0.0619
27129W        W43023   4.452  13.257  15.062  0.1746 -0.2064 -0.1400
27130W        W43024   9.415  15.390   4.841 -0.0821 -0.1857  0.0674
27131W        W43025   3.726  12.411   1.556 -0.1460 -0.0198 -0.0335
27132W        W43026  15.028  12.802   2.258 -0.1247 -0.3885  0.0112
27133W        W43027   7.975  12.886  12.368 -0.3348  0.0088 -0.2761
27134W        W43028   4.502  15.957  15.370  0.0549 -0.1509 -0.2724
27135W        W43029   6.036   7.451   3.716 -0.1263 -0.0138  0.0529
27136W        W43030   6.670  16.699   1.950 -0.0276 -0.0593 -0.0778
27137W        W43031  14.528  16.808   1.855 -0.0888  0.3439 -0.0044
27138W        W43032   2.915  11.644   4.720  0.1801  0.3396 -0.3551
27139W        W43033  12.662  12.280  14.468  0.1050  0.2109  0.0997
27140W        W43034   2.614   3.948   3.266 -0.2031 -0.0958 -0.1067
27141W        W43035   0.684  11.738  10.603  0.1639  0.1404 -0.1330
27142W        W43036   0.360   2.195   2.512 -0.3025 -0.4272 -0.0259
27143W        W43037   2.157   3.445   4.307 -0.0111 -0.1139  0.3018
27144W        W43038  14.825  16.275  13.497  0.1646  0.1796 -0.1937
27145W        W43039  17.370   7.709   2.895 -0.2983 -0.2704  0.1237
27146W        W43040   3.189   5.225  12.795  0.0371 -0.1967 -0.1289
27147W        W43041  10.904  14.610   3.223 -0.2934 -0.0646  0.0184
27148W        W43042   5.546  14.147  15.369 -0.2614  0.0453  0.0440
27149W        W43043  16.943   8.687   9.821  0.1549 -0.3169 -0.2929
27150W        W43044   3.747   9.993   3.498  0.1089  0.0784 -0.4274
27151W        W43045   9.185   8.987   3.725  0.1536  0.0750 -0.1514
27152W        W43046   6.827   6.788  12.535 -0.3174  0.2805  0.0687
27153W        W43047   4.584  10.677   1.805  0.1041  0.0107  0.1000
27154W        W43048  13.232   5.509  14.152 -0.3501 -0.1319 -0.2917
27155W        W43049   9.763  18.492  13.404  0.0556 -0.1952 -0.1867
27156W        W43050   0.492   6.353   2.061  0.2714 -0.3242  0.1004
27157W        W43051  13.673   3.653  11.459 -0.2951  0.2800 -0.3543
27158W        W43052   9.042  16.030   3.513  0.1891 -0.0529  0.0626
27159W        W43053   3.587   0.733  14.241 -0.2081  0.0769  0.2108
27160W        W43054   0.590  16.057   0.774  0.1061  0.1273 -0.2558
27161W        W43055   0.642   6.988   3.547  0.1147 -0.0859  0.1115
27162W        W43056   0.095  11.537   5.184  0.0367 -0.2755 -0.0483
27163W        W43057   1.447   8.458   9.402 -0.2079 -0.0414 -0.3367
27164W        W43058   3.106  12.953   5.335  0.0554 -0.2432 -0.0125
27165W        W43059   0.668  13.192  10.768  0.1867 -0.0220 -0.0724
27166W        W43060   1.680   7.134   3.168 -0.3534  0.4469  0.1600
27167W        W43061   7.124   1.393   2.227 -0.1148 -0.1334 -0.1121
27168W        W43062   6.084   6.684   2.270 -0.4669  0.1582  0.1258
27169W        W43063   2.255  13.450   9.776  0.0527  0.0619 -0.2160
27170W        W43064  15.263  11.346  15.258 -0.0293  0.1470  0.0404
27171W        W43065  14.003  15.740   2.081  0.1457 -0.2084  0.0273
27172W        W43066  11.952  10.858   4.965  0.2293  0.0090 -0.0775
27173W        W43067  15.144   6.016  14.034 -0.3851  0.0580  0.0736
27174W        W43068  12.677  17.946  14.395 -0.0871 -0.1141 -0.1091
27175W        W43069  12.216  17.827   3.324  0.2586 -0.1553  0.0755
27176W        W43070   6.914  17.488   4.961  0.2343  0.1229 -0.0940
27177W        W43071   8.338  10.369   5.763 -0.0208  0.0160 -0.3251
27178W        W43072   5.717  17.430   4.305 -0.1348 -0.1564  0.0735
27179W        W43073   5.857   0.925   0.085  0.0587  0.0594 -0.3184
27180W        W43074   0.793  16.633   9.839 -0.0590 -0.0037 -0.0900
27181W        W43075   4.269  16.841  14.461 -0.2930  0.1569  0.0446
27182W        W43076  12.617   1.397   0.188  0.2824 -0.0279 -0.0959
27183W        W43077  10.433   8.045   0.157  0.2602  0.1025 -0.1223
27184W        W43078  15.988   4.073  11.183 -0.1836 -0.4084 -0.2125
27185W        W43079  12.240  12.203   4.604  0.0876 -0.1502  0.1089
27186W        W43080   5.138   2.839  12.706 -0.0212 -0.2783 -0.0344
27187W        W43081   1.741  11.315   0.094  0.0531 -0.2059  0.1975
27188W        W43082   0.857   1.919  10.777  0.0036 -0.3619  0.0894
27189W        W43083   2.763  14.060   4.287 -0.0589  0.0869 -0.2984
27190W        W43084   4.350  12.922  13.611 -0.0790  0.1463  0.0191
27191W        W43085  17.002  12.271  12.065  0.0937 -0.1862  0.0771
27192W        W43086  12.639   9.839  15.420  0.1664 -0.3351 -0.0304
27193W        W43087  16.407   7.971   0.900  0.1372 -0.0749 -0.1939
27194W        W43088   0.867  18.329   5.136  0.0855 -0.2351  0.0824
27195W        W43089   8.397   8.816   3.817 -0.2915  0.2854 -0.0177
27196W        W43090  18.664  14.460  11.117 -0.0277  0.2923 -0.4452
27197W        W43091   0.184   1.928  13.223  0.2788 -0.0283  0.1729
27198W        W43092   6.707   5.565   0.849  0.0601 -0.3281 -0.0911
27199W        W43093  11.387   0.437   0.905  0.0143  0.2163 -0.0950
27200W        W43094  13.159   9.020   0.089  0.4028 -0.3632 -0.0841
27201W        W43095  15.746   4.095  12.112  0.0263 -0.3570 -0.0660
27202W        W43096   1.852  18.565   2.193 -0.0508  0.1912 -0.1950
27203W        W43097   9.834  11.935   2.925  0.1232 -0.0270 -0.1789
27204W        W43098  16.634   7.298   1.721  0.1189 -0.2648  0.0324
27205W        W43099   6.445   8.809  14.840 -0.0812 -0.1186 -0.0495
27206W        W43100  12.576  12.132  12.854  0.1482  0.1069  0.1895
27207W        W43101   0.466  14.776  15.394 -0.3917 -0.1183 -0.0465
27208W        W43102   4.413   5.153  10.544  0.0296 -0.0767  0.0638
27209W        W43103  16.959   1.718   1.149 -0.0890  0.1001 -0.1119
27210W        W43104   4.679  12.266   0.055  0.0491  0.2381 -0.0327
27211W        W43105  15.675   1.145   4.616  0.0408  0.2509 -0.3333
27212W        W43106  11.952   6.894  15.037  0.1149  0.0002  0.1033
27213W        W43107  12.385   9.581  12.369 -0.1464  0.2600 -0.1196
27214W        W43108   1.013  16.581   4.847  0.1268 -0.0792 -0.0649
27215W        W43109  17.755   9.405  11.426  0.0707  0.2856  0.6065
27216W        W43110   8.630   9.716  14.278  0.3672  0.2188 -0.2688
27217W        W43111  11.943   9.680  12.157  0.1751 -0.2807  0.1354
27218W        W43112  13.844  10.189   4.725  0.3504 -0.1024 -0.0780
27219W        W43113  12.531  14.737  14.164  0.2199  0.0903 -0.0056
27220W        W43114  18.231  18.163  10.412  0.0028 -0.2163  0.5053
27221W        W43115   7.741  18.054   4.013 -0.2759  0.2924 -0.0194
27222W        W43116   9.376   4.310  13.654 -0.0493 -0.1493 -0.1876
27223W        W43117  12.257  12.794  13.475  0.1093  0.1259 -0.1155
27224W        W43118   8.368  12.021  12.190  0.0275 -0.0960  0.2470
27225W        W43119   5.264  13.587  13.721  0.1548  0.1269 -0.0109
27226W        W43120   5.417  18.531   2.601  0.3159  0.0557  0.0735
27227W        W43121  17.284   4.764  14.265 -0.1931 -0.1598  0.1060
27228W        W43122   9.632   9.578   0.066  0.0415 -0.3383 -0.0566
27229W        W43123   1.669   4.222   3.362  0.0106 -0.2866 -0.4255
27230W        W43124   0.517   6.479  12.567  0.3161  0.0870  0.3639
27231W        W43125   4.904   5.740   1.117  0.2050  0.0844  0.0378
27232W        W43126  11.333   8.550  10.517 -0.0690 -0.2434 -0.0059
27233W        W43127  15.500   2.043   2.696  0.0400  0.1014 -0.1280
27234W        W43128   6.454  16.952   1.046 -0.2962  0.0887  0.1662
27235W        W43129   0.914   9.678  12.883 -0.3059 -0.2668  0.2445
27236W        W43130  17.155   1.453  14.506 -0.1798  0.0930 -0.0994
27237W        W43131   2.400  12.056   9.702 -0.0320 -0.2311  0.0093
27238W        W43132  15.440  15.964  13.012 -0.1833  0.1584  0.2111
27239W        W43133   7.488  16.770   2.911  0.3311 -0.3479  0.0769
27240W        W43134  16.020   2.282   4.008 -0.1091  0.3460 -0.0046
27241W        W43135  14.267   2.762   1.887  0.1720  0.0126 -0.2490
27242W        W43136   2.037   3.735  10.862  0.0779  0.0485  0.0527
27243W        W43137   9.029  18.678  14.777  0.0809 -0.1078 -0.1650
27244W        W43138  16.163   0.532  12.244  0.0347 -0.2196  0.0324
27245W        W43139   0.941   0.960  11.229  0.1752 -0.2697 -0.0965
27246W        W43140   3.193  18.387  11.075 -0.1081  0.0939 -0.1201
27247W        W43141  18.720  11.325   4.232 -0.2265  0.0567 -0.0087
27248W        W43142   3.692  11.437  14.602  0.3576 -0.1819  0.1019
27249W        W43143   7.981   5.235   3.239  0.2979  0.0931 -0.1637
27250W        W43144  10.239   3.950  12.705 -0.1299  0.1444 -0.1443
27251W        W43145  13.893  11.816   4.372  0.0457  0.1714  0.0391
27252W        W43146   0.967   1.129   3.125  0.0516 -0.3522 -0.1301
27253W        W43147   1.879   7.784   1.611  0.2729 -0.1752  0.1446
27254W        W43148  12.377   5.991  13.194  0.3315  0.2858  0.1275
27255W        W43149  13.231   4.064  12.053  0.1350 -0.3421 -0.2597
27256W        W43150   3.218   2.190  13.087 -0.1357 -0.0986 -0.1392
27257W        W43151   6.222  12.645   3.115  0.2611  0.0704  0.2128
27258W        W43152  11.444   1.048  11.553 -0.2614  0.0459 -0.2226
27259W        W43153  10.195  11.128  12.043 -0.0722 -0.2033  0.1101
27260W        W43154   1.836   9.844  10.411  0.0711  0.1328  0.0514
27261W        W43155  16.441  13.864   1.385 -0.0396  0.0010 -0.2628
27262W        W43156   9.302   8.132   3.326  0.0370  0.1131 -0.1565
27263W        W43157  13.067  12.731  12.792  0.2220 -0.2684  0.0303
27264W        W43158   2.836   6.327  10.824 -0.3420  0.1832 -0.2503
27265W        W43159  14.748  10.488   4.497  0.2331 -0.2551  0.3858
27266W        W43160  17.420   8.443  12.174 -0.0312  0.1083  0.1548
27267W        W43161   2.034   8.962   2.080  0.0537  0.1021  0.0299
27268W        W43162  18.293  18.317  15.274 -0.1270 -0.2221  0.1696
27269W        W43163   2.050   0.978   0.237 -0.1061 -0.1967  0.1031
27270W        W43164  16.746   9.706   3.747  0.0127  0.3759  0.0424
27271W        W43165   5.452  11.101  14.721  0.2116  0.1045 -0.1435
27272W        W43166   3.472   6.730  14.586  0.2622 -0.1414  0.2461
27273W        W43167  16.709  10.963   2.292  0.0617 -0.1031  0.1512
27274W        W43168  16.239  12.747  14.570  0.3253  0.2458  0.0784
27275W        W43169   9.312   7.142   0.189  0.2535  0.0660  0.0996
27276W        W43170   5.905  15.175   4.093  0.0402 -0.4787 -0.1343
27277W        W43171  10.225  11.450   3.851 -0.1951  0.1291  0.1261
27278W        W43172  16.351   6.698   1.825 -0.0676  0.1171 -0.0488
27279W        W43173  10.933  10.705  13.896 -0.2353  0.1079 -0.4423
27280W        W43174  17.945   2.181   2.645 -0.2587 -0.1030 -0.1177
27281W        W43175   6.667   4.156  14.547 -0.1285 -0.0549 -0.0320
27282W        W43176  10.225   0.368   4.749 -0.0848  0.1435 -0.1435
27283W        W43177  18.759   3.666   0.567  0.0878  0.1847 -0.3255
27284W        W43178   0.436   6.973  12.720 -0.2400  0.0998  0.2384
27285W        W43179  11.174  16.728  11.216 -0.1034  0.1816 -0.0528
27286W        W43180   2.580  17.163  12.622  0.1875  0.0295  0.3104
27287W        W43181  18.685   3.398   0.152 -0.1089  0.1780  0.2154
27288W        W43182  11.688  17.872   5.140 -0.0062  0.1405 -0.2120
27289W        W43183  13.486   5.712  13.749 -0.0219  0.0200 -0.1453
27290W        W43184  16.978   3.351  10.998 -0.4081 -0.1309 -0.1838
27291W        W43185  14.734   2.910  11.886  0.2345  0.2488  0.2774
27292W        W43186  12.023   2.648  13.654 -0.0191 -0.0350 -0.1392
27293W        W43187   3.511   8.329  13.307 -0.0164  0.1700 -0.3425
27294W        W43188   1.053  11.773  13.615  0.3369 -0.1536  0.0583
27295W        W43189   5.901   4.218   3.572  0.4586  0.2174 -0.2772
27296W        W43190  16.418   6.288   3.071  0.1571 -0.3081  0.2894
27297W        W43191   8.680   6.800   2.675  0.1756  0.2369 -0.1268
27298W        W43192   8.042  11.284  11.810  0.1193 -0.2648  0.1377
27299W        W43193   6.805   3.610  12.473 -0.4029  0.2014 -0.0323
27300W        W43194  13.060  18.860  14.513  0.1931 -0.1761 -0.0477
27301W        W43195   6.743  15.624   2.845 -0.3269  0.0630  0.1457
27302W        W43196  17.413   3.013   1.361 -0.1232 -0.2929 -0.3813
27303W        W43197   3.961   0.950  13.864  0.0076  0.2346  0.0401
27304W        W43198   7.732  13.224   0.979 -0.1868 -0.0710 -0.0590
27305W        W43199   2.447  15.265   1.844 -0.1388 -0.1939  0.0050
27306W        W43200   6.492   2.471   3.808  0.0105 -0.0888 -0.0088
27307W        W43201   4.792   1.858   3.036 -0.0905  0.3029 -0.1187
27308W        W43202  15.087   9.340   5.607 -0.0495  0.3260  0.1787
27309W        W43203   6.673   9.903   0.092 -0.0409 -0.1075  0.3558
27310W        W43204   5.752  18.516   1.638  0.0060 -0.2083  0.1032
27311W        W43205   5.124  16.619  10.474  0.0052  0.0421  0.0466
27312W        W43206   6.568   9.904  14.605 -0.1077 -0.0467  0.1048
27313W        W43207   6.823  13.708  11.156  0.0250 -0.3919 -0.0512
27314W        W43208  10.440  14.673   4.008 -0.1004  0.0305  0.1306
27315W        W43209  15.023   4.084   2.521  0.1581  0.2010 -0.1160
27316W        W43210  12.219  10.952   1.931 -0.0581 -0.0671  0.0449
27317W        W43211   7.363  11.703   0.278 -0.3325 -0.3375 -0.0044
27318W        W43212   6.073   6.921   0.826 -0.3634  0.2160 -0.2103
27319W        W43213   4.961   8.637   0.034 -0.2216 -0.1599 -0.1563
27320W        W43214  12.818   5.264   1.436 -0.1748  0.0627  0.0835
27321W        W43215   2.182  14.338  12.676 -0.3642  0.0590  0.1951
27322W        W43216   0.200  15.612  11.654  0.1303 -0.0397 -0.2400
27323W        W43217   4.571   8.916  15.435  0.3761  0.0424 -0.0524
27324W        W43218   5.617  15.694  15.017 -0.1024 -0.1064  0.0788
27325W        W43219  17.642  13.691   5.022  0.0736  0.1041 -0.1044
27326W        W43220  12.779  15.971   2.041  0.1858 -0.0000 -0.0686
27327W        W43221   0.073   6.264  12.360  0.2985  0.1316 -0.1634
27328W        W43222   1.593   0.870   5.649 -0.0017 -0.4030 -0.0319
27329W        W43223  15.947  17.373   4.961  0.0209  0.1914 -0.0501
27330W        W43224  10.934   8.570  11.523  0.1539  0.0484 -0.0352
27331W        W43225  15.735  16.862   0.347 -0.0291  0.4088 -0.1500
27332W        W43226   3.147  17.617   4.695 -0.0351  0.0378 -0.1713
27333W        W43227  17.515  14.932  10.225 -0.0978 -0.1159  0.2942
27334W        W43228   4.049  10.045  14.437 -0.0441 -0.0647 -0.0821
27335W        W43229  17.961   4.028   0.006  0.2409 -0.0498 -0.1878
27336W        W43230   9.816  18.269   1.631  0.4138  0.3606 -0.0204
27337W        W43231   7.866  12.434  12.913  0.1770  0.1060 -0.1911
27338W        W43232  13.334   8.073   1.039 -0.0386  0.0229 -0.1590
27339W        W43233   2.801  12.830  13.360  0.0509 -0.0302  0.2138
27340W        W43234   4.388   8.169   1.230  0.1161 -0.1300  0.2189
27341W        W43235  16.132  14.198   0.568 -0.1098 -0.1904  0.4448
27342W        W43236   5.466   3.851   1.857 -0.1699  0.2683  0.0915
27343W        W43237  16.210  10.291  11.567  0.1969  0.3289  0.3513
27344W        W43238   8.778  14.474   0.384 -0.0504  0.0527  0.3228
27345W        W43239  13.483   3.715   2.438 -0.2548  0.0120 -0.0009
27346W        W43240   7.650  16.757  13.891  0.1567 -0.1778 -0.2746
27347W        W43241  13.640  10.782   2.100 -0.2635 -0.1915  0.1273
27348W        W43242  13.956  10.925  11.793 -0.1309 -0.1629  0.0428
27349W        W43243  16.244   1.240  13.484 -0.0184 -0.3002  0.0690
27350W        W43244   3.786  16.323  12.654  0.2612 -0.2646 -0.1366
27351W        W43245   6.746   0.474   1.353 -0.2143  0.1894  0.3093
27352W        W43246  15.795  11.144   4.302  0.2183 -0.0154  0.0496
27353W        W43247   6.255   9.783   4.881 -0.3428  0.3196  0.0774
27354W        W43248   3.541  13.719  14.925  0.1039 -0.1441 -0.1071
27355W        W43249  18.206   0.092  11.204  0.3973  0.1295  0.1220
27356W        W43250   5.300  15.755   5.215 -0.0870  0.1851  0.3469
27357W        W43251   5.096   0.126  14.475  0.0737 -0.3911 -0.1533
27358W        W43252   9.283   1.943   5.278  0.5077  0.0005 -0.0425
27359W        W43253  11.497  11.187  12.564  0.0300 -0.1373 -0.1617
27360W        W43254   6.036   6.261   0.451 -0.1172  0.0545 -0.1479
27361W        W43255  16.514   9.512   1.005  0.0820 -0.3934  0.0512
27362W        W43256  15.982   2.757   4.175  0.0982 -0.1381  0.1519
27363W        W43257   4.992  10.133   2.392 -0.1415  0.0377  0.0774
27364W        W43258  11.447  14.978   4.362  0.3014  0.3051 -0.2586
27365W        W43259   8.825   2.057   5.081 -0.2791  0.2728  0.1158
27366W        W43260   7.429   0.486   1.268  0.2486 -0.1079 -0.5543
27367W        W43261  11.281  12.652  11.715  0.0308 -0.2202 -0.1102
27368W        W43262   1.180   1.685   6.001 -0.0837  0.0649 -0.0046
27369W        W43263   8.420  17.868  14.893  0.0316 -0.0497 -0.2922
27370W        W43264  11.687  11.577  14.125  0.0156 -0.0251 -0.3189
27371W        W43265  15.994   6.577   3.059 -0.1846  0.2058  0.1131
27372W        W43266   6.842   3.645   5.022  0.0667  0.1586 -0.1474
27373W        W43267  13.053   1.183  14.968 -0.1165  0.1229 -0.0361
27374W        W43268   9.216   3.382   2.807 -0.3308  0.1409 -0.2755
27375W        W43269   0.711   5.763   3.872 -0.0741  0.0697 -0.0273
27376W        W43270   7.132   3.257   1.996 -0.2472 -0.0428  0.0423
27377W        W43271   9.602   3.899   2.848 -0.1557 -0.3572  0.1651
27378W        W43272  10.871   3.154  15.318  0.2700  0.3564  0.0442
27379W        W43273  15.670  12.770   2.950  0.1237 -0.1067  0.1017
27380W        W43274  10.368  10.094   2.402  0.1430 -0.1523 -0.0624
27381W        W43275   9.753  10.517  13.413  0.1526 -0.2273  0.2566
27382W        W43276   6.126  12.705   3.684 -0.1857  0.0537  0.1327
27383W        W43277   6.092   5.861  11.383  0.0096  0.0483 -0.1174
27384W        W43278  18.648   6.602  15.091  0.1896  0.1886 -0.1134
27385W        W43279   6.017   6.076  12.782  0.0715  0.0483 -0.2420
27386W        W43280   9.056   3.948   5.915 -0.1650  0.3023 -0.1755
27387W        W43281  14.906  18.415   1.096  0.1145 -0.0268 -0.2523
27388W        W43282   5.823  13.409  15.450 -0.1393 -0.0824  0.2475
27389W        W43283   1.007  14.351  13.174 -0.0494 -0.1081 -0.0032
27390W        W43284  18.373  18.319  14.181 -0.0152 -0.1093  0.0809
27391W        W43285   0.255  12.495  12.288  0.2420  0.0110 -0.1051
27392W        W43286  10.875   5.734  10.811  0.0788 -0.0243  0.1054
27393W        W43287   4.719  18.164   4.645 -0.0082  0.2374  0.1045
27394W        W43288  17.460   0.071  14.841  0.2770  0.1183 -0.0327
27395W        W43289  11.893   9.164  14.049  0.2973  0.3178  0.0071
27396W        W43290   5.941   6.237   4.387 -0.3232  0.1012  0.0035
27397W        W43291  18.559  14.484   4.453 -0.0093  0.2186 -0.0096
27398W        W43292  15.637  15.463   0.428  0.0161  0.0975  0.1771
27399W        W43293  14.138   4.127  14.409 -0.1241 -0.0968 -0.1201
27400W        W43294   7.554   5.180  14.451 -0.0361 -0.1135  0.0752
27401W        W43295  18.175   3.922   4.674 -0.1830  0.0600 -0.2689
27402W        W43296  10.781   5.237   2.628 -0.0363 -0.2327  0.1507
27403W        W43297   6.806   1.697   1.828  0.1004 -0.0716 -0.4158
27404W        W43298  16.949   9.292   9.721  0.0380  0.1902 -0.5570
27405W        W43299  10.965   2.223  14.618 -0.2741 -0.3544  0.0665
27406W        W43300   0.507   4.922   0.746 -0.1390  0.1635 -0.0818
27407W        W43301  18.768  18.841  11.293 -0.0747 -0.0564  0.3457
27408W        W43302  10.709  14.899   0.003 -0.1590 -0.0184  0.0448
27409W        W43303  11.188   9.430   4.287 -0.4351 -0.1009  0.1173
27410W        W43304   2.550   2.721   3.657  0.1682 -0.0847  0.0481
27411W        W43305  14.819   0.335   4.370 -0.1423  0.0341  0.0246
27412W        W43306   3.981   4.159   0.056 -0.0220  0.0740  0.1965
27413W        W43307   1.404  17.571  14.389  0.1242  0.5174  0.0556
27414W        W43308   9.284   4.047   2.493  0.0397  0.0907  0.3095
27415W        W43309  14.385   8.082  13.366 -0.3967 -0.0848  0.0688
27416W        W43310   1.727  16.319  14.995 -0.0497  0.1095  0.0961
27417W        W43311  18.773   7.191  12.114 -0.0333  0.0449 -0.2116
27418W        W43312  14.617  13.898   0.078 -0.1549 -0.0304 -0.0349
27419W        W43313  13.985  11.503   2.057 -0.1893 -0.2800  0.5730
27420W        W43314   8.343  11.960   3.775  0.0378 -0.0210  0.1654
27421W        W43315  17.235  18.225  12.216  0.3478  0.0921 -0.1328
27422W        W43316   3.538  18.498   0.911  0.1136  0.0770 -0.0537
27423W        W43317   7.097  10.928  12.177 -0.2299 -0.0410  0.1668
27424W        W43318  13.144   1.045   4.786 -0.2288  0.1614 -0.3085
27425W        W43319   0.711   3.279  11.166  0.1830  0.1985 -0.0413
27426W        W43320   4.854  16.185  14.082 -0.2121 -0.0533 -0.0649
27427W        W43321  14.371  10.745  12.053 -0.0557  0.1013 -0.0262
27428W        W43322   7.142  17.593  14.438 -0.3378 -0.1746  0.0537
27429W        W43323   9.866  16.871  13.773 -0.0505 -0.1019 -0.1588
27430W        W43324  10.562  14.433   0.274 -0.4509  0.1090 -0.0528
27431W        W43325   9.761  14.359   5.229  0.1584  0.3793  0.2825
27432W        W43326  17.336  14.481  14.325 -0.1891 -0.1796 -0.3361
27433W        W43327   3.785  10.325   4.415 -0.0168  0.1195  0.0201
27434W        W43328  10.800  13.078  15.374 -0.0565 -0.2322  0.1359
27435W        W43329   8.670   2.324   4.232  0.1019  0.0036  0.1054
27436W        W43330   3.556   1.504   1.475 -0.0353 -0.1138  0.0151
27437W        W43331   5.756  10.787  14.441 -0.1180  0.0380 -0.0148
27438W        W43332  15.330  12.220  11.321  0.0589  0.2806 -0.1245
27439W        W43333   9.190  12.195  14.049 -0.0319  0.2431  0.1554
27440W        W43334  17.431  13.322  14.148 -0.0015  0.2463 -0.2025
27441W        W43335   7.728  13.991  13.774 -0.3070  0.0929 -0.0455
27442W        W43336   0.825  11.877   3.251  0.1772  0.2111 -0.0712
27443W        W43337  13.205   3.038   3.968 -0.0212 -0.0508  0.2772
27444W        W43338  18.844   3.959   5.050  0.2785 -0.3245  0.2415
27445W        W43339  18.008   8.779  13.784 -0.2839 -0.1348 -0.1819
27446W        W43340  11.484  11.029   5.169  0.1167 -0.0724  0.1140
27447W        W43341   1.065  16.843  14.782  0.0040 -0.3092 -0.1376
27448W        W43342   6.672   9.312   4.812 -0.1394  0.1729  0.1731
27449W        W43343   5.336  14.000   1.853  0.2086 -0.0475  0.0556
27450W        W43344   9.633   4.428  12.099 -0.4997  0.1721 -0.1004
27451W        W43345   5.496  13.298   1.772 -0.2101  0.0562  0.1075
27452W        W43346  15.989  12.890   5.305  0.1765 -0.4794 -0.0485
27453W        W43347   9.719  15.915  11.171 -0.0293 -0.4135  0.0450
27454W        W43348   6.311  13.647   3.989 -0.0417  0.1020  0.0208
27455W        W43349   9.185   1.392   3.275  0.0637 -0.0317  0.0387
27456W        W43350   8.652  13.314   1.175 -0.0136  0.1432 -0.0896
27457W        W43351  17.004   7.288  12.567 -0.0743  0.2427 -0.1719
27458W        W43352   5.885   9.473   0.997 -0.1807  0.2448 -0.0895
27459W        W43353   8.303   6.829   3.050  0.0585  0.2000  0.0501
27460W        W43354  16.704   8.375   4.610 -0.1215 -0.2950  0.2291
27461W        W43355   7.337   1.334  12.337 -0.1362 -0.2232 -0.1020
27462W        W43356   2.885   5.921  15.396  0.0945  0.2291  0.0027
27463W        W43357   5.082   2.658   4.037  0.1406 -0.2729  0.2222
27464W        W43358   9.656  18.094  12.561  0.2551 -0.0913  0.0650
27465W        W43359  18.224   4.863  15.326 -0.0460 -0.4346 -0.3647
27466W        W43360   3.115   6.770  12.608 -0.1348  0.1168 -0.2374
27467W        W43361   7.285  16.252   4.351 -0.1765  0.0071 -0.1081
27468W        W43362   1.670   0.271   1.381  0.1169  0.0927  0.3631
27469W        W43363   2.051  13.758   3.839  0.2188  0.1575 -0.0695
27470W        W43364   0.679  12.324   1.958 -0.0638  0.1862  0.2284
27471W        W43365   9.279   3.647   3.374  0.1450 -0.1240 -0.1145
27472W        W43366  11.060  11.085   0.650 -0.2484  0.1354  0.3984
27473W        W43367   1.628   7.335  15.387 -0.0269 -0.0843 -0.2816
27474W        W43368  15.537   7.588   3.556  0.2771  0.1240 -0.2186
27475W        W43369   7.557   8.825   3.114 -0.2466 -0.0435 -0.0454
27476W        W43370  16.911  15.154   1.043 -0.2115  0.3083  0.3284
27477W        W43371   9.132  11.387   5.190 -0.1409  0.0800 -0.2757
27478W        W43372  17.854  18.276   0.046 -0.2236  0.2847 -0.1713
27479W        W43373   9.263  14.878   2.543 -0.0831 -0.0288  0.1268
27480W        W43374  16.764  12.568   1.275  0.1978  0.0426 -0.1853
27481W        W43375   3.848   3.034  13.643  0.3875 -0.1342  0.1303
27482W        W43376   5.126  15.370  12.221  0.1196 -0.1158 -0.0109
27483W        W43377  12.116  18.557   2.153  0.2424  0.4978 -0.1324
27484W        W43378   6.668  10.218   3.526  0.0305  0.5204  0.2710
27485W        W43379   5.862   1.887  13.949  0.2995 -0.0466 -0.1220
27486W        W43380   6.151  15.113  14.252 -0.0587 -0.0844  0.0469
27487W        W43381  16.558  17.578  14.042 -0.1970 -0.2216 -0.3682
27488W        W43382  17.755   9.428   0.713  0.1563 -0.0079 -0.0611
27489W        W43383  10.980  16.408  12.008 -0.1109  0.0965  0.5137
27490W        W43384  11.074   7.189  15.155  0.2100 -0.1810 -0.1985
27491W        W43385   3.814   7.558  12.401  0.0913  0.1191 -0.3642
27492W        W43386   1.833   1.431   5.468 -0.1527 -0.2213 -0.3128
27493W        W43387  18.125  11.269   5.071  0.0660  0.0966  0.1715
27494W        W43388   1.411   1.921   4.739  0.1165 -0.1372 -0.1073
27495W        W43389  10.544   5.484   2.322  0.3369 -0.0646 -0.0066
27496W        W43390  12.611  11.679   2.464  0.1401 -0.0847 -0.2044
27497W        W43391   4.102  15.981  15.078 -0.1710  0.1446  0.1372
27498W        W43392   6.995   2.510   4.881 -0.1432  0.1562 -0.0418
27499W        W43393   7.933   4.153  15.373 -0.1087 -0.1018 -0.0685
27500W        W43394   0.251   1.573   2.730 -0.3296 -0.3214 -0.0785
27501W        W43395   1.879  18.852  14.703 -0.4018  0.2467 -0.0380
27502W        W43396   6.950   1.195   4.249 -0.1541  0.2168 -0.1867
27503W        W43397   2.908   8.592   0.303 -0.3028 -0.0590 -0.1223
27504W        W43398  12.806  10.821   4.334  0.1938 -0.1020 -0.1405
27505W        W43399   7.406   3.356   2.560 -0.1192  0.1157  0.3288
27506W        W43400   6.803   2.142   1.546 -0.0702 -0.1865 -0.0304
27507W        W43401  16.163   7.462  13.656  0.0079  0.2894  0.0851
27508W        W43402  13.502   5.583   2.364  0.3543  0.0515  0.1177
27509W        W43403   7.429   7.606   2.074  0.1123 -0.4713 -0.0607
27510W        W43404  17.518   7.605  14.052 -0.2313  0.0222 -0.3723
27511W        W43405   5.045   0.781  10.669 -0.0275  0.0844 -0.0164
27512W        W43406   2.984   0.860   1.544 -0.1597 -0.0058  0.3538
27513W        W43407   1.385  12.965  12.783 -0.2639 -0.1440 -0.2992
27514W        W43408  10.433   7.216   1.959 -0.0633 -0.1308 -0.0983
27515W        W43409  15.483   8.260   1.632 -0.0149 -0.4278  0.2149
27516W        W43410  14.256  14.669  13.467  0.1713  0.1474  0.1856
27517W        W43411  13.429  14.086   3.874 -0.0579 -0.1035  0.0378
27518W        W43412   4.191   9.070   3.778 -0.1729 -0.2013 -0.3046
27519W        W43413   6.803   2.708  13.264  0.1740  0.0271  0.0627
27520W        W43414   3.583  15.479   0.057 -0.2638 -0.3894  0.0729
27521W        W43415   3.381   3.179  14.684  0.0322  0.3197  0.0252
27522W        W43416   5.347   8.928   2.796 -0.1686 -0.0197  0.0941
27523W        W43417  14.434   2.525   4.776  0.1259  0.1546 -0.1511
27524W        W43418   1.391   6.805   4.744  0.1997  0.2081 -0.1132
27525W        W43419  18.465   0.407   5.290 -0.2347 -0.0265 -0.0072
27526W        W43420   8.357  18.169   5.394 -0.4238 -0.1140  0.0753
27527W        W43421   7.318   4.603   3.542  0.0597 -0.0295  0.1569
27528W        W43422   0.815  18.699  14.158 -0.1665  0.2838  0.2500
27529W        W43423  16.058  17.726   2.764 -0.2504  0.0666 -0.0002
27530W        W43424   1.897   6.199   2.741 -0.2462 -0.2745  0.3186
27531W        W43425  13.174  14.050   2.437  0.1743 -0.0483  0.0687
27532W        W43426  16.210   1.031  12.410 -0.0237 -0.0227 -0.1764
27533W        W43427   9.662   9.489  12.554 -0.1278  0.1417 -0.0566
27534W        W43428   6.953   7.865  10.715 -0.2249 -0.0046 -0.0472
27535W        W43429  14.171   9.804   4.752  0.3871  0.1135  0.2396
27536W        W43430  18.230  17.787   0.745  0.2502 -0.2429  0.0445
27537W        W43431  18.747   6.863  10.805  0.1230  0.4251  0.2278
27538W        W43432  10.365  10.632  11.240 -0.5582 -0.0920 -0.0724
27539W        W43433   2.753  17.478  12.176  0.1010 -0.1538  0.0929
27540W        W43434  14.103  15.990  13.387  0.1328 -0.1333  0.2494
27541W        W43435   3.061  14.163  12.316  0.0031  0.1061  0.1509
27542W        W43436   7.472  15.348  11.867 -0.1741 -0.3107 -0.3040
27543W        W43437   0.488   6.352  10.569 -0.4818 -0.0985 -0.2604
27544W        W43438  15.728   8.529  11.769 -0.0448  0.1424 -0.0968
27545W        W43439  16.015  16.276  15.152  0.1010 -0.1521 -0.1577
27546W        W43440   7.991   6.253   4.707 -0.1528 -0.0681  0.1360
27547W        W43441   8.462  18.389  14.048 -0.2934  0.1910  0.0457
27548W        W43442  12.360   5.131   3.136  0.0135  0.2886 -0.0924
27549W        W43443   2.263  18.567  12.543  0.0471 -0.0713 -0.1912
27550W        W43444  10.313   7.775  10.537  0.0258  0.1394  0.3348
27551W        W43445   4.280   4.876  14.629 -0.1898 -0.1730 -0.4787
27552W        W43446   9.651   4.253  14.139 -0.4351  0.0648 -0.0164
27553W        W43447   3.029  18.166   4.727  0.1771 -0.0448  0.5514
27554W        W43448   2.124  10.935  13.433  0.1478  0.0841  0.0912
27555W        W43449   6.397   9.644  14.217  0.0433  0.1000  0.2415
27556W        W43450   4.104   8.244   2.113 -0.1483 -0.2094  0.0960
27557W        W43451  15.284   7.081  11.307  0.1813 -0.3400 -0.2279
27558W        W43452  16.109   6.544   0.073  0.1128 -0.3213  0.0565
27559W        W43453  17.384  17.262  13.496  0.0193 -0.0590  0.0495
27560W        W43454   5.812   4.840  12.901 -0.3220  0.1183 -0.0969
27561W        W43455   5.626   7.967   5.367 -0.0881 -0.4931 -0.0046
27562W        W43456   3.370   5.839   1.492  0.1922 -0.1158 -0.0559
27563W        W43457   7.476  11.648  14.613  0.0603  0.4808 -0.2389
27564W        W43458  17.714   3.142   4.068  0.2445  0.0687 -0.0518
27565W        W43459   5.388  15.742  14.040 -0.2576 -0.0855 -0.0276
27566W        W43460   2.157  18.796  13.958  0.4488 -0.1108  0.0942
27567W        W43461  17.775   1.291   9.910  0.4645 -0.1838  0.2586
27568W        W43462   8.804   3.568  13.122 -0.0253  0.0191  0.0961
27569W        W43463  17.375   4.995  14.815 -0.1912 -0.1722  0.0376
27570W        W43464   4.623  18.539   4.374  0.2275 -0.1245 -0.2094
27571W        W43465   1.863  17.461  12.176 -0.2287  0.0070  0.3136
27572W        W43466   7.055   0.688   4.314  0.0883  0.3639  0.0382
27573W        W43467   8.337   5.397   4.332  0.1348 -0.1277  0.0235
27574W        W43468  17.788  10.413   1.730  0.0744  0.2696  0.1348
27575W        W43469   4.548  13.990  11.328 -0.0523 -0.0209 -0.2147
27576W        W43470   2.780  12.359   3.488  0.0608  0.1328 -0.0759
27577W        W43471   7.936   7.411   1.004  0.3679  0.2813  0.2758
27578W        W43472  13.857   2.384  15.346  0.1575  0.1928  0.1303
27579W        W43473   7.179  17.024  14.093  0.0672 -0.1535  0.1833
27580W        W43474  14.210   4.075  14.870  0.1604  0.0806 -0.0343
27581W        W43475   2.245  12.594  12.533  0.0192 -0.2978 -0.2045
27582W        W43476   9.931  18.863  14.434  0.4115  0.0270 -0.0097
27583W        W43477  11.428   7.795   3.267 -0.2490  0.0458 -0.1252
27584W        W43478  16.656  17.949   0.019  0.0221 -0.1446 -0.1911
27585W        W43479   2.568   5.512  11.842 -0.1693  0.0078 -0.2626
27586W        W43480   7.673   4.539   3.214 -0.1519  0.1619 -0.4760
27587W        W43481   5.616   1.241  11.317  0.2058  0.3856  0.1134
27588W        W43482  15.252   7.690  13.281  0.0153 -0.2535  0.1066
27589W        W43483  13.066   8.455  12.281  0.1519  0.0281  0.1772
27590W        W43484   0.789  11.001   0.023 -0.0015  0.1623  0.2298
27591W        W43485  15.545  12.923   3.843 -0.2886  0.0335 -0.0864
27592W        W43486  15.095   3.641   5.245 -0.2758  0.0675 -0.2663
27593W        W43487   7.798  16.578   1.082  0.2031  0.3867 -0.2711
27594W        W43488   6.534  14.786   3.995  0.1460  0.1797 -0.0134
27595W        W43489   8.576   2.713  12.172 -0.1378  0.1233 -0.1501
27596W        W43490   7.772   4.152  11.211  0.4186  0.2257  0.0784
27597W        W43491  10.519   7.328  12.739  0.0883 -0.0921 -0.3048
27598W        W43492  11.766   9.301   4.534  0.1637  0.0723 -0.0507
27599W        W43493  18.792  10.873   3.965  0.1768 -0.2320 -0.1826
27600W        W43494   0.131   3.539  13.425 -0.2213  0.1655 -0.1183
27601W        W43495   7.548  12.774   3.171  0.2095 -0.0808  0.0971
27602W        W43496  10.186  15.199   4.243  0.1868  0.0480 -0.2229
27603W        W43497   1.474   7.251  13.216  0.0077  0.0968  0.0522
27604W        W43498  11.601  11.990   3.382 -0.0646 -0.3691 -0.0717
27605W        W43499  12.955  18.766   1.012 -0.2215 -0.0442 -0.1899
27606W        W43500   6.552  10.462  12.154  0.2860  0.1457  0.1726
27607W        W43501   1.757   1.537  14.371  0.1358  0.0209 -0.1380
27608W        W43502  10.727   4.897  14.504  0.0764 -0.1903  0.2152
27609W        W43503   0.969  17.660  11.204 -0.1413 -0.2004 -0.0735
27610W        W43504   4.212   8.954  14.497 -0.0392 -0.1642  0.1096
27611W        W43505  11.853   6.851  11.864 -0.3112  0.2114 -0.3254
27612W        W43506   8.329   3.745   3.352 -0.1290 -0.2689 -0.1419
27613W        W43507  14.931   5.821   4.625  0.0383  0.1528 -0.0334
27614W        W43508  11.332   7.213  14.182 -0.2327 -0.0539  0.2356
27615W        W43509  11.833  10.593  12.144  0.0605  0.1680  0.0907
27616W        W43510   8.890  17.640  12.894 -0.1550  0.0057  0.1746
27617W        W43511  14.065   3.297   4.335  0.2183  0.2089  0.4949
27618W        W43512  16.276  14.866   5.177  0.2274  0.0123 -0.1709
27619W        W43513   3.389   4.124  14.942  0.0881  0.2586 -0.0050
27620W        W43514  12.535  14.923  14.693  0.0261 -0.3027 -0.0495
27621W        W43515  16.892  13.083   0.401 -0.0816 -0.2218 -0.1174
27622W        W43516   0.744  12.742  11.498  0.2361  0.0672  0.1893
27623W        W43517   1.244  10.876  14.334  0.0129  0.1739  0.1418
27624W        W43518  15.246   1.588   1.902  0.2519  0.1288 -0.3395
27625W        W43519   9.886   6.188  10.965 -0.2799 -0.0736 -0.2137
27626W        W43520  16.756   0.045   3.484 -0.1136 -0.2335 -0.0015
27627W        W43521  13.147   7.454  12.316  0.1819  0.0579  0.1391
27628W        W43522  12.183   7.080   0.614  0.2635 -0.0584 -0.2289
27629W        W43523  18.177   7.763   5.058 -0.4466  0.0787 -0.4723
27630W        W43524  14.584  10.936  12.629 -0.0921  0.1999 -0.2203
27631W        W43525   8.630   5.387  13.800  0.0028  0.1692 -0.2866
27632W        W43526   7.719  10.103   4.404 -0.0590  0.1464  0.1578
27633W        W43527  13.412   0.574   2.181  0.2370 -0.0907 -0.2680
27634W        W43528   8.643   2.131   1.119  0.0641  0.1234 -0.3957
27635W        W43529   8.926  16.249  10.695  0.1084  0.2885 -0.0398
27636W        W43530   2.088   2.273   2.133  0.1338 -0.1391  0.1060
27637W        W43531   5.151   0.979  11.258  0.1295 -0.0386  0.0645
27638W        W43532   2.288  17.631  12.391  0.0002  0.1916 -0.2493
27639W        W43533   0.394   2.852  15.373  0.0006 -0.1144 -0.0341
27640W        W43534  11.954  12.086   3.724  0.0173  0.1365  0.2071
27641W        W43535  17.129  16.861  13.812  0.0429  0.3339 -0.0835
27642W        W43536   4.442  14.976   4.776  0.0647 -0.1304  0.1445
27643W        W43537  11.095   2.961   5.445 -0.1101  0.3221 -0.1215
27644W        W43538   4.379   1.877  15.062  0.0802 -0.0677 -0.1786
27645W        W43539   8.233  10.219   1.146 -0.1414 -0.3418 -0.1299
27646W        W43540   8.943  15.975  10.254 -0.2380 -0.2203 -0.1760
27647W        W43541  12.106  18.665  12.137 -0.0904  0.0316  0.0558
27648W        W43542   8.406   4.214   1.729  0.0452  0.3154  0.0995
27649W        W43543  15.011   2.473  12.975 -0.2131 -0.2615  0.2937
27650W        W43544   9.085  10.785   4.367  0.2243  0.2330  0.0130
27651W        W43545   0.286   4.652   2.238  0.0352  0.2014  0.0515
27652W        W43546   3.963  12.661   2.057  0.0734  0.0055  0.1186
27653W        W43547  13.146   1.215  14.474  0.0189  0.0682  0.1078
27654W        W43548  16.700  12.543   5.373 -0.1853 -0.1394 -0.3805
27655W        W43549   6.802   0.447  14.778  0.1795  0.2542  0.3511
27656W        W43550   7.029  10.465  12.031 -0.0711 -0.1071  0.1097
27657W        W43551  10.449   6.387  11.119 -0.1118  0.0774 -0.1091
27658W        W43552   2.336   9.604   0.190 -0.3391  0.4730  0.1702
27659W        W43553   6.909   3.355  13.848  0.1459  0.0693  0.1047
27660W        W43554   8.538   4.378   0.805  0.1821 -0.0408  0.2450
27661W        W43555   7.623  18.414  11.683  0.0791  0.2521 -0.1699
27662W        W43556   5.280  18.097   3.671 -0.3371 -0.0073  0.1217
27663W        W43557  14.662  13.695   4.465 -0.0895 -0.0191  0.0476
27664W        W43558   2.847   0.950  12.053 -0.1917  0.0049 -0.1830
27665W        W43559   9.628  14.185  10.580  0.1555  0.2151  0.1849
27666W        W43560   8.508  11.521   3.084  0.2202  0.1878  0.1061
27667W        W43561   0.696   7.411   2.991 -0.2724  0.1213 -0.2727
27668W        W43562  11.780  13.601  11.745  0.1247 -0.1454 -0.0073
27669W        W43563  17.936  12.041   3.712 -0.0905  0.1338 -0.2656
27670W        W43564   6.537  11.944  10.237  0.3453  0.1266  0.0587
27671W        W43565   7.565  18.677   0.608 -0.0994  0.3684  0.1061
27672W        W43566   6.657  10.762   0.191  0.1327 -0.0287 -0.0390
27673W        W43567   4.879  13.339  13.693 -0.0684  0.0267 -0.1703
27674W        W43568   0.031   9.259  14.909  0.2129 -0.0705  0.0120
27675W        W43569  17.618   4.178  13.788 -0.0035 -0.0303 -0.0260
27676W        W43570   0.246  12.030   4.063  0.3418 -0.1531  0.0103
27677W        W43571   3.492  16.665   4.948 -0.2047 -0.2297  0.1565
27678W        W43572   5.056  12.228   0.348  0.0328  0.1415 -0.2963
27679W        W43573  14.747  11.987  11.131  0.0648  0.0077  0.2318
27680W        W43574   0.276   6.060  13.507  0.0022  0.0570  0.0752
27681W        W43575   4.043   3.099   1.476 -0.1454 -0.1298  0.1700
27682W        W43576   8.695  14.845  12.843 -0.1583  0.0919 -0.0820
27683W        W43577   2.366  17.804   1.011 -0.0975 -0.2123 -0.3955
27684W        W43578  12.201  12.186  14.682  0.1331 -0.1811 -0.1308
27685W        W43579  15.966   0.006  14.940 -0.0494 -0.1861  0.2702
27686W        W43580   1.450   0.632   4.826  0.1251  0.2794 -0.1117
27687W        W43581  13.914   6.688   1.801 -0.0322 -0.0836 -0.0400
27688W        W43582   3.023   0.578  14.250  0.0081 -0.1288 -0.0506
27689W        W43583   8.564  18.812  11.627 -0.1100 -0.3522  0.1651
27690W        W43584  11.952   6.717  12.707 -0.0362 -0.2840  0.1450
27691W        W43585  11.304   3.357  13.220 -0.2403  0.1957  0.2377
27692W        W43586   2.658  10.774  13.362 -0.1578 -0.2081 -0.3227
27693W        W43587  17.493  16.548   1.804  0.4507  0.1954 -0.1561
27694W        W43588   8.761  12.780  11.977  0.0628  0.0886 -0.2315
27695W        W43589  13.652  11.802  11.945  0.2227  0.0103  0.1509
27696W        W43590  18.564  18.571  13.369  0.0137  0.1332 -0.0942
27697W        W43591   9.548   8.268   2.007 -0.0214 -0.0047 -0.0795
27698W        W43592  17.885   2.239   1.338 -0.1565  0.1214  0.0669
27699W        W43593  16.465  16.043   4.752 -0.0830  0.1098  0.1963
27700W        W43594  15.129   2.396   5.015 -0.0015 -0.0379  0.1059
27701W        W43595  16.958  13.723   5.132  0.0674  0.1037  0.1311
27702W        W43596  17.710  10.199   0.305  0.2085  0.2811 -0.0441
27703W        W43597  14.280   1.386   3.930 -0.1227 -0.0751 -0.0409
27704W        W43598  13.716   3.864  11.901  0.0263 -0.2625 -0.0602
27705W        W43599   2.828  15.969   4.466  0.0465 -0.0339  0.2059
27706W        W43600  11.348  18.412   4.331 -0.0256  0.2649  0.0504
27707W        W43601   1.128   5.480  10.515  0.1251  0.0463 -0.0664
27708W        W43602   9.873  16.243  12.514 -0.0402  0.2086  0.3061
27709W        W43603  17.384  18.554   4.657  0.1205 -0.0472  0.4004
27710W        W43604  18.471  14.414  14.247 -0.0936 -0.0869  0.0241
27711W        W43605   1.039  11.194   1.372  0.2893 -0.0756 -0.0087
27712W        W43606  13.991   2.752   2.727 -0.0594 -0.0862  0.0556
27713W        W43607   2.032   8.038   2.634  0.0800 -0.0014 -0.0848
27714W        W43608  14.268   8.563  11.478  0.1601  0.0840 -0.1882
27715W        W43609  15.056  17.134  13.322 -0.0444 -0.0993  0.0085
27716W        W43610   9.162  11.969   5.377  0.0504  0.0145 -0.2191
27717W        W43611  14.616  17.154   5.283 -0.1324 -0.4300 -0.0199
27718W        W43612  13.334  14.581   3.232  0.2343 -0.0716 -0.0076
27719W        W43613  18.604  14.302   4.903 -0.0986 -0.1737 -0.0482
27720W        W43614  14.324  16.790  10.725  0.2090 -0.3327 -0.3081
27721W        W43615   3.494   4.487   3.414  0.3189  0.2213  0.0157
27722W        W43616   9.745  10.306   0.273  0.0087 -0.0381  0.2747
27723W        W43617  13.565  12.316  13.066 -0.1224  0.0624 -0.1395
27724W        W43618  11.590  18.698  12.198 -0.0605  0.2605 -0.0874
27725W        W43619   6.016  17.260   2.399  0.3617 -0.1602  0.3140
27726W        W43620   2.117   5.601  11.000 -0.0085  0.2402  0.0896
27727W        W43621   4.026  12.727  12.547 -0.3433 -0.1498 -0.0675
27728W        W43622   7.608  18.416   4.361  0.2940  0.0743 -0.6574
27729W        W43623  16.817  14.095   4.831 -0.0360  0.0631  0.0108
27730W        W43624  12.578   3.760   1.941 -0.1405 -0.1574  0.1786
27731W        W43625   1.548  10.572  13.422 -0.0011  0.1852  0.3058
27732W        W43626  12.523  12.440   2.064 -0.3247  0.0092 -0.0674
27733W        W43627  15.020  10.145  11.585 -0.1013  0.3911 -0.1287
27734W        W43628   4.511   4.968  12.928  0.0872 -0.0359  0.0850
27735W        W43629  13.587  13.234  14.142 -0.1631  0.2048  0.1886
27736W        W43630  16.300   5.722  11.809 -0.2953  0.0381 -0.1335
27737W        W43631   7.175  10.676   4.484  0.1473  0.2224  0.1754
27738W        W43632   7.059   4.069   3.570  0.1065 -0.2697  0.2763
27739W        W43633   0.751  13.789   2.613 -0.1036 -0.0968  0.1663
27740W        W43634  12.454  14.032  14.053 -0.0968  0.0264 -0.1685
27741W        W43635  13.669  15.369  13.733  0.2133  0.0711  0.1615
27742W        W43636   5.252  18.175   0.704  0.0440  0.2477  0.0538
27743W        W43637   7.456   6.455   9.840  0.0049  0.1791 -0.3524
27744W        W43638   9.133  17.376  14.003 -0.0099 -0.1089 -0.0661
27745W        W43639  12.865  17.606  12.847  0.0659 -0.1798 -0.3332
27746W        W43640  14.126   9.837  13.784  0.2375 -0.1650 -0.2144
27747W        W43641  18.098   4.445   3.893  0.2223  0.1597  0.0295
27748W        W43642  16.432  13.672   5.216 -0.1232  0.3273  0.1647
27749W        W43643   1.731   9.797  13.621 -0.2899  0.2265  0.1611
27750W        W43644  12.049  15.118   3.211  0.1671 -0.2233 -0.2835
27751W        W43645   3.953   3.833   2.883 -0.0284 -0.0521 -0.3226
27752W        W43646   8.896  11.845   1.256  0.1744  0.0154 -0.1893
27753W        W43647  13.776   2.351  12.771  0.0748  0.1791  0.0921
27754W        W43648   4.574  17.008  13.678 -0.2744 -0.1963  0.2291
27755W        W43649   8.618  10.872   3.582 -0.0431  0.1334 -0.3485
27756W        W43650  15.452  15.503   0.930  0.0971  0.2170  0.3705
27757W        W43651  18.879  16.543  15.328  0.1855 -0.0870  0.1657
27758W        W43652   4.331   9.397  13.879  0.2502 -0.0227 -0.3858
27759W        W43653   7.616  13.019  12.022  0.2872  0.2124  0.0933
27760W        W43654  14.081  14.689  12.432  0.3547  0.0175  0.0965
27761W        W43655   2.147   1.184   2.301 -0.0319  0.0349  0.0307
27762W        W43656   6.713  10.748   4.627  0.1614  0.0111  0.0896
27763W        W43657   3.644   9.474  15.059 -0.2786 -0.0010 -0.0335
27764W        W43658   8.699   2.897  11.155  0.2670 -0.2307 -0.0095
27765W        W43659   6.370   4.306  13.384 -0.1396  0.1946  0.1406
27766W        W43660   5.492   3.937   3.776 -0.1530  0.2554 -0.1744
27767W        W43661   9.317   8.506   4.103 -0.0633 -0.0679 -0.1487
27768W        W43662  10.886  11.369   1.365  0.2965  0.1140 -0.0549
27769W        W43663   4.299  14.547  13.402 -0.2225 -0.0856 -0.1366
27770W        W43664   8.128   4.741   0.651 -0.1449 -0.1063  0.0777
27771W        W43665  17.340   5.881  14.892  0.5059  0.4095  0.0006
27772W        W43666  13.983  16.647   0.636  0.1615  0.1686 -0.0150
27773W        W43667  17.599  15.219  13.927 -0.0666 -0.0666  0.2333
27774W        W43668  16.861  13.663  14.910  0.3076  0.0632 -0.1458
27775W        W43669  13.039   1.615  12.700  0.1335  0.0005 -0.1629
27776W        W43670   9.452   2.510   2.110  0.2012 -0.0557  0.1770
27777W        W43671   6.409   2.438  13.385 -0.2483  0.4033 -0.0305
27778W        W43672   3.826  13.756   9.458  0.0707  0.1822  0.0970
27779W        W43673  10.001  15.349   4.755 -0.0195  0.0198 -0.2577
27780W        W43674   2.581   8.339   1.233 -0.0069  0.1208  0.0013
27781W        W43675   0.772   7.407  14.832 -0.1826 -0.1334  0.0557
27782W        W43676  18.556   2.561   3.917  0.2558  0.0184  0.0095
27783W        W43677   5.022  17.338  12.913  0.3745 -0.2041  0.1064
27784W        W43678  12.539  17.002   5.759 -0.1714  0.0341  0.1061
27785W        W43679  16.042   5.134  10.560  0.0596 -0.1232 -0.0150
27786W        W43680  10.525  17.102   1.514  0.1711 -0.5915 -0.3078
27787W        W43681   8.127  17.622  14.589  0.1966  0.0889 -0.4017
27788W        W43682  16.151   6.084   9.535 -0.1448 -0.2195 -0.1389
27789W        W43683  13.157   5.572   1.178 -0.1275 -0.0885 -0.3644
27790W        W43684   1.867   9.363   0.813  0.1150 -0.1020 -0.1485
27791W        W43685   5.549  14.548   5.162 -0.2421 -0.0980 -0.0520
27792W        W43686  13.366  10.091  13.380 -0.0694 -0.0637  0.0438
27793W        W43687   1.898   3.856  12.428  0.7384 -0.0295  0.0561
27794W        W43688   6.518  14.517   0.921 -0.1430 -0.3665  0.2206
27795W        W43689  15.242   2.929   4.491 -0.4242 -0.1045 -0.0898
27796W        W43690  12.824  13.864   4.353  0.3878  0.3911  0.0651
27797W        W43691   5.943   6.034  11.839  0.1499 -0.2541  0.1191
27798W        W43692   6.118   1.854  10.666  0.2197 -0.4364 -0.2331
27799W        W43693  12.276  18.778  14.179  0.1173  0.0697  0.0021
27800W        W43694  18.862  14.248  14.541  0.0178  0.1309 -0.0428
27801W        W43695  17.232   2.496  12.482  0.1782  0.0027 -0.3772
27802W        W43696   9.558   4.214   2.066 -0.1781 -0.0408 -0.0816
27803W        W43697   5.899   2.773  14.701 -0.1035 -0.1479  0.2653
27804W        W43698   3.391  15.438  13.670 -0.2450  0.1109 -0.0016
27805W        W43699   8.435  18.384   4.929 -0.1709  0.0226  0.1038
27806W        W43700   2.617  10.187   1.690 -0.1413 -0.0363  0.1393
27807W        W43701   3.060   3.145  13.740 -0.3186 -0.1679  0.1546
27808W        W43702   5.767   6.531   2.671 -0.1613 -0.0189  0.0222
27809W        W43703   8.023   0.230   3.276 -0.1060  0.2111 -0.1232
27810W        W43704   1.677  10.742  12.601 -0.1300  0.4415 -0.1339
27811W        W43705   7.841   1.702   3.111 -0.0222  0.0388 -0.1963
27812W        W43706  11.030   6.795   5.055 -0.1425 -0.0862 -0.1406
27813W        W43707   2.808  11.038   3.635 -0.0669 -0.1292  0.1941
27814W        W43708  16.385  12.577  11.072 -0.2043 -0.1734  0.0749
27815W        W43709  14.130  12.029   0.778  0.3007  0.1442  0.3776
27816W        W43710  11.735  15.010  12.604 -0.1364  0.2621 -0.0180
27817W        W43711   7.656  11.465  10.646 -0.1526  0.1579 -0.1018
27818W        W43712  18.402  14.087   0.183  0.1673  0.0337  0.0651
27819W        W43713  14.356   3.871   3.052  0.0028 -0.3142  0.3043
27820W        W43714  12.398  11.621  15.453 -0.2594  0.2380 -0.0786
27821W        W43715   5.504  13.350  11.501  0.3229 -0.0616 -0.3021
27822W        W43716  13.449  13.071  12.683  0.0619  0.0055  0.0873
27823W        W43717   9.814   9.303   4.091  0.3047  0.1693  0.2858
27824W        W43718  16.623   6.384   0.997  0.0220 -0.1714 -0.2631
27825W        W43719   9.629  11.900  14.414 -0.3532  0.0260  0.2924
27826W        W43720  12.780  12.731   4.799  0.0074  0.2512 -0.0090
27827W        W43721  18.735   1.563   0.582 -0.1533 -0.2048  0.1921
27828W        W43722  17.993  15.007   2.799  0.1225 -0.0328  0.2241
27829W        W43723   1.083   3.567   2.482  0.3253 -0.2770  0.0920
27830W        W43724  11.672  14.566   4.504  0.0394  0.0375  0.4131
27831W        W43725  10.189   5.117  13.806  0.4281  0.1175  0.0134
27832W        W43726   4.973   4.111   3.473 -0.0419 -0.4164 -0.1551
27833W        W43727  18.118   0.617  14.717 -0.1513  0.1101  0.0157
27834W        W43728   5.162   9.142   0.794  0.3706 -0.0571  0.4085
27835W        W43729   4.895  16.735   0.482 -0.1602 -0.1612  0.1867
27836W        W43730  18.422  15.599  13.756  0.2024  0.0080 -0.1486
27837W        W43731   3.246  17.057  13.967 -0.1007 -0.0109  0.0079
27838W        W43732   6.710   6.390  10.967  0.2340  0.0193 -0.1150
27839W        W43733   4.052   9.402   1.885 -0.2101 -0.0960  0.2573
27840W        W43734   5.242  13.288  15.189 -0.3005  0.4919  0.0589
27841W        W43735   5.309  10.084   1.494  0.3475  0.0833  0.1210
27842W        W43736  15.531  12.652  11.064 -0.1186 -0.1947 -0.1215
27843W        W43737   3.119  12.318  12.365  0.2650  0.3606  0.2388
27844W        W43738   0.089   5.306   1.034  0.2332  0.2546  0.1985
27845W        W43739   2.150   3.212  12.773 -0.0089  0.0539 -0.0877
27846W        W43740   2.950  12.812   1.033 -0.0299  0.0296  0.3774
27847W        W43741   1.130   5.255   0.191  0.0008  0.1691  0.1335
27848W        W43742  14.398  17.290   2.118  0.1336 -0.2677 -0.1226
27849W        W43743   2.358   4.828  14.528 -0.2972 -0.0976 -0.3698
27850W        W43744  11.799  14.507  14.986 -0.0289 -0.3794 -0.2332
27851W        W43745  12.727  11.454  14.051  0.0269  0.0922 -0.1427
27852W        W43746  13.644  17.660  11.936 -0.1575  0.0719 -0.0770
27853W        W43747  17.794  18.843  12.784  0.0146  0.1680  0.2326
27854W        W43748   0.606   9.924  12.612 -0.2146  0.0531  0.2334
27855W        W43749  10.811   9.380   1.802  0.3327 -0.3395 -0.2125
27856W        W43750  10.191   3.745  13.619 -0.0435  0.2139 -0.0816
27857W        W43751   9.269   6.411  13.568 -0.2277 -0.3331  0.0791
27858W        W43752  16.998   9.947  11.732 -0.2169 -0.1054  0.3070
27859W        W43753  12.455   1.729   3.287 -0.1865  0.0469  0.1123
27860W        W43754  13.981   6.931   0.792  0.1844 -0.0582  0.1543
27861W        W43755  12.420  11.217  12.799  0.1599  0.2682 -0.2080
27862W        W43756  14.709   4.861   0.926 -0.1491 -0.1808  0.0262
27863W        W43757   5.666  15.599  12.591 -0.1990  0.2587  0.0435
27864W        W43758  15.886  11.693  14.835 -0.0139 -0.0214 -0.0277
27865W        W43759  16.884  13.531  12.904 -0.1723  0.0565 -0.1450
27866W        W43760  12.015   1.680   4.356  0.1337  0.1050 -0.0792
27867W        W43761  17.495   1.261  13.307  0.3251 -0.3951 -0.2168
27868W        W43762   6.448  10.173  12.946  0.1158  0.2432  0.0670
27869W        W43763   7.772  10.760  10.914  0.2503  0.1373 -0.1830
27870W        W43764  14.518   7.015   0.066 -0.3830 -0.1492  0.2846
27871W        W43765   9.683  13.356   5.143 -0.5707 -0.1334 -0.1719
27872W        W43766  14.031   5.496   1.226  0.3302 -0.0192 -0.0076
27873W        W43767   2.946  15.793   0.833 -0.3118 -0.0382  0.0875
27874W        W43768   9.879   3.712  11.052 -0.2403  0.0276 -0.0646
27875W        W43769  10.727  16.629   4.551  0.0109  0.4921 -0.1059
27876W        W43770   2.208   4.496  13.268  0.0099 -0.4998 -0.1447
27877W        W43771   2.508   7.408   3.213 -0.2582 -0.2285  0.3468
27878W        W43772  18.306   4.791  10.358  0.0309  0.1507  0.3257
27879W        W43773   3.545   3.215   0.273 -0.0606  0.0596  0.0567
27880W        W43774  15.892   6.878  14.392  0.3197  0.1053 -0.0351
27881W        W43775   3.907   8.591  14.146 -0.2885 -0.2568  0.2679
27882W        W43776   4.062  14.064   2.628 -0.3488 -0.2225  0.0288
27883W        W43777   3.418  17.678   0.284  0.2038  0.0266  0.0117
27884W        W43778   4.732  16.851  10.275 -0.1672 -0.0986  0.0722
27885W        W43779   0.217  14.040   2.512 -0.1967  0.0101  0.1443
27886W        W43780   9.681   0.359   1.358 -0.0039  0.1891  0.2449
27887W        W43781   7.230  16.230  10.896  0.1358 -0.0281  0.1982
27888W        W43782  13.570  17.815  15.288  0.2105  0.0733  0.0231
27889W        W43783   7.088   2.617  11.429  0.1908 -0.5138 -0.0118
27890W        W43784   3.391   3.270   2.150  0.0337  0.1396  0.0775
27891W        W43785   6.064  18.101  13.210  0.1464 -0.0032 -0.3101
27892W        W43786  12.323   7.861   4.281  0.0979  0.1009  0.1030
27893W        W43787  15.785   6.059  14.927  0.1648  0.0817 -0.1542
27894W        W43788  12.224   2.697  12.307 -0.0652  0.1133 -0.2834
27895W        W43789  14.995   3.998  13.845  0.5249 -0.0625 -0.1503
27896W        W43790   5.112   8.914  12.470 -0.1468  0.1555 -0.1709
27897W        W43791  16.284  11.373   4.006 -0.1284 -0.1442  0.0573
27898W        W43792   6.754  13.244  12.020 -0.1632 -0.0532  0.1570
27899W        W43793   8.225   7.070  15.045  0.1457  0.3621  0.1535
27900W        W43794  17.251  13.581  14.577 -0.0413 -0.0503  0.2104
27901W        W43795   6.527   5.573  11.102 -0.0170  0.1230 -0.1789
27902W        W43796  13.703  13.104  15.128 -0.0558 -0.0650 -0.2744
27903W        W43797  14.010   7.195   5.136 -0.1951 -0.0304  0.1432
27904W        W43798  16.053   1.567   1.869 -0.0031  0.0955  0.3018
27905W        W43799   3.747  14.410   4.151 -0.2628 -0.2924  0.3608
27906W        W43800   6.581  14.063   1.161  0.0704 -0.2319  0.2261
27907W        W43801  15.449  14.038   2.619 -0.1858 -0.2285 -0.1033
27908W        W43802   2.721   2.199  12.887 -0.1832 -0.1999  0.0290
27909W        W43803   7.004  14.345  15.005  0.2590 -0.0544 -0.0875
27910W        W43804   5.448  11.946   0.263 -0.3253  0.4070  0.2704
27911W        W43805  18.141   2.596   3.376 -0.2874  0.0556 -0.2456
27912W        W43806   5.049   4.279   3.932 -0.2776  0.0730 -0.0378
27913W        W43807   7.722  13.070   4.282  0.0990 -0.3097 -0.1363
27914W        W43808   6.599   3.043   1.465 -0.1952  0.2221  0.1319
27915W        W43809   0.174  10.929   0.709  0.0711  0.0061  0.1286
27916W        W43810   1.294  16.477  13.533  0.0720 -0.1510  0.0965
27917W        W43811   6.602  12.115  11.414 -0.2416  0.0815  0.0923
27918W        W43812   3.755   7.041  13.075 -0.2168  0.4436 -0.2980
27919W        W43813   0.827   3.998  10.474  0.1864  0.2131  0.1615
27920W        W43814   5.439   3.074  13.974  0.3767  0.1534 -0.0506
27921W        W43815  13.359  12.964  11.404 -0.1486  0.0466 -0.2896
27922W        W43816  17.382   2.966   5.783  0.0435 -0.0317 -0.1205
27923W        W43817  14.710   9.547  13.135  0.3350  0.2353  0.0294
27924W        W43818   5.291   0.711   1.605 -0.1604 -0.0346 -0.0002
27925W        W43819   9.481   6.458   0.653  0.1008 -0.0200 -0.0876
27926W        W43820   0.607   1.641  15.015  0.2615  0.1126  0.0655
27927W        W43821   2.393   2.370   2.556 -0.0127  0.0735 -0.2067
27928W        W43822   2.725  10.903   4.123 -0.2625 -0.1313 -0.0372
27929W        W43823   3.079  18.336  14.608 -0.1006 -0.1663  0.1056
27930W        W43824   5.344   4.162  14.274 -0.3533  0.0373  0.2847
27931W        W43825   1.281   0.996   0.704 -0.2035 -0.0106 -0.1936
27932W        W43826   3.800   3.957   1.915 -0.1951 -0.5302  0.1516
27933W        W43827  15.797   9.316  12.856  0.2085 -0.0150 -0.0622
27934W        W43828   6.931  16.527   0.108  0.1141  0.1805 -0.2125
27935W        W43829  12.680   3.002  13.723 -0.2386  0.2505  0.1655
27936W        W43830  15.421  15.284  14.641  0.2963 -0.1467  0.3164
27937W        W43831  13.329   3.360   1.610 -0.0376  0.0254  0.2482
27938W        W43832  11.015   7.861  12.960 -0.1820 -0.0146 -0.0325
27939W        W43833   7.725   3.552   1.236 -0.1913 -0.0296  0.0789
27940W        W43834  15.534   9.805  11.912 -0.3604  0.0370 -0.1471
27941W        W43835   2.116   7.516  12.731  0.0837  0.2517 -0.4028
27942W        W43836   2.908   1.436   0.709  0.0341  0.1825  0.0174
27943W        W43837   9.329   4.936   2.646  0.1603 -0.1591 -0.0949
27944W        W43838   4.433  13.383   2.006 -0.2301  0.1770  0.0802
27945W        W43839  14.816  11.756   4.785  0.2632  0.0885 -0.2260
27946W        W43840  18.655   5.328  13.217  0.0609 -0.0047 -0.0196
27947W        W43841   4.456  15.140  12.457 -0.1586  0.3020  0.1382
27948W        W43842   2.057  16.515   4.335  0.1389 -0.0361  0.3535
27949W        W43843  17.469  12.107  13.905  0.3069  0.2565 -0.1141
27950W        W43844  17.605   6.090  15.388  0.2799 -0.0344 -0.0137
27951W        W43845  14.329   8.813   4.464  0.0825  0.0148  0.0289
27952W        W43846  10.936   0.581   5.304 -0.2954 -0.0664 -0.2442
27953W        W43847   5.616   5.832  12.675  0.0177 -0.0241  0.2141
27954W        W43848  18.457   1.670  13.647  0.1008 -0.1744  0.0368
27955W        W43849  18.455  17.139  12.710  0.1438  0.0497  0.1439
27956W        W43850  15.329   5.426   4.596 -0.1200  0.2288  0.0528
27957W        W43851   6.546  15.126   1.218 -0.1015  0.3426  0.2006
27958W        W43852   9.165   2.814  11.924 -0.2470  0.3213 -0.3024
27959W        W43853  11.825  10.847  12.653  0.1012 -0.0992  0.0163
27960W        W43854   3.756   4.852  12.177 -0.1995  0.1011 -0.1329
27961W        W43855   8.441  13.781  14.937 -0.4169  0.0088 -0.0815
27962W        W43856   4.407  14.238  12.062 -0.3390  0.2218  0.2246
27963W        W43857  13.789   1.452   3.921 -0.0736 -0.0567 -0.2539
27964W        W43858   7.348   6.701   1.481 -0.1686 -0.0519  0.0872
27965W        W43859  15.264   7.111  11.803 -0.0298 -0.0149  0.1013
27966W        W43860   4.925   4.421  12.442 -0.1427  0.0003  0.0942
27967W        W43861   5.990   0.283   3.525  0.4024 -0.2046 -0.1290
27968W        W43862   7.021   9.782   0.507  0.0406  0.0849 -0.1179
27969W        W43863  15.128   1.254   5.305  0.0935 -0.0718 -0.0853
27970W        W43864  16.479   8.522   0.918 -0.1643 -0.2091  0.0724
27971W        W43865   9.014  14.957  12.016  0.0062  0.1365 -0.3188
27972W        W43866  10.079  16.800  10.503 -0.0149  0.2027  0.0509
27973W        W43867  12.995  18.225   3.609 -0.2571  0.1221  0.2486
27974W        W43868  16.673   9.249  10.660  0.1258  0.1110  0.0097
27975W        W43869   6.766  13.536   0.211 -0.0977 -0.1979  0.0524
27976W        W43870  17.393  14.866   0.198  0.1982 -0.1055  0.0069
27977W        W43871   2.897   3.336   3.417  0.0613  0.0374  0.1891
27978W        W43872  17.465   3.306   3.060  0.2309  0.1765 -0.0716
27979W        W43873   7.832  11.220  13.349 -0.2496 -0.2860 -0.1722
27980W        W43874  16.073   0.645  12.799  0.1256  0.0905  0.1360
27981W        W43875  15.694  15.501   2.220 -0.2162  0.0236  0.2571
27982W        W43876  17.079  18.081   4.574  0.0091 -0.1576 -0.0532
27983W        W43877   4.748  15.378   0.969  0.0512 -0.0453 -0.2804
27984W        W43878   4.606   2.354   2.424  0.0833 -0.1435  0.1764
27985W        W43879   4.931   9.433   4.331 -0.2272 -0.1070 -0.2385
27986W        W43880   9.792   9.296   2.702 -0.1013  0.0436 -0.2824
27987W        W43881  13.967   1.454   2.400  0.1098 -0.0784  0.0152
27988W        W43882   7.814  16.433   2.905  0.0679  0.3367 -0.1042
27989W        W43883  16.355  12.964  11.783  0.0291  0.0952 -0.2825
27990W        W43884   7.204   0.962   1.991 -0.1254  0.1285  0.0483
27991W        W43885  13.675   1.887   3.705 -0.1716  0.0925 -0.2158
27992W        W43886   5.932  16.528  13.483  0.1880  0.0205  0.0780
27993W        W43887  14.667  14.399   1.669 -0.0877  0.2212  0.0689
27994W        W43888   8.794   0.584   1.929 -0.2658  0.1856  0.1224
27995W        W43889   4.017   4.541   3.502  0.0639  0.1644  0.2715
27996W        W43890   5.277  12.936  10.684 -0.2045  0.2236 -0.4110
27997W        W43891  17.303  13.321   2.312 -0.0546  0.0385  0.1575
27998W        W43892  11.891   5.904  12.181  0.0126  0.1601  0.1167
27999W        W43893   2.589   2.474  14.848  0.2952 -0.0851  0.0688
28000W        W43894  13.639   4.020   0.189 -0.3715  0.1024 -0.1782
28001W        W43895  10.597   9.498   0.965  0.3518  0.1560 -0.1577
28002W        W43896  16.731   9.975   1.301  0.0420  0.3790 -0.1628
28003W        W43897   1.382   1.964  11.306 -0.0136  0.0810  0.0341
28004W        W43898  11.722   2.866   4.882 -0.1883 -0.0130  0.2139
28005W        W43899   4.050  16.711  12.440  0.2276  0.1841 -0.4074
28006W        W43900  15.174  18.761   0.758  0.3112 -0.1542 -0.0747
28007W        W43901   5.759  11.965   3.337  0.1235 -0.3576 -0.1757
28008W        W43902   5.751   3.026   1.421  0.1299 -0.0030 -0.2709
28009W        W43903  18.761  12.205   1.159  0.0882 -0.2640  0.0023
28010W        W43904  14.522  13.083   2.325  0.0276  0.0545  0.0416
28011W        W43905  16.388  18.286  10.998 -0.0191  0.0656  0.0585
28012W        W43906   7.884   7.347   4.679  0.2275 -0.2069  0.0227
28013W        W43907  11.736  12.110   1.046 -0.1459 -0.0731  0.0049
28014W        W43908  18.796   6.059  13.140  0.0547 -0.0135  0.1013
28015W        W43909  18.715  12.995   2.248  0.3077  0.0977  0.2538
28016W        W43910   8.295   5.315  11.523  0.2569 -0.0459 -0.2018
28017W        W43911   7.374   1.292  14.432 -0.0543 -0.2423  0.0636
28018W        W43912   4.471  18.555  12.105 -0.0729  0.0785 -0.0947
28019W        W43913  11.102  13.386   2.028  0.1414 -0.0860  0.0378
28020W        W43914  14.323   1.190  12.466  0.1864 -0.0092 -0.3606
28021W        W43915  18.046   3.602  11.404 -0.1734 -0.0226  0.0393
28022W        W43916   9.668   2.347   5.133 -0.2317 -0.1786 -0.0396
28023W        W43917   8.460  10.507   4.077 -0.3644  0.4391 -0.0931
28024W        W43918  10.257  18.843   5.524 -0.2480 -0.0312  0.0900
28025W        W43919  15.237   7.540  14.002 -0.0362  0.1207 -0.2626
28026W        W43920   9.982  10.962   0.072  0.0904  0.1997  0.2534
28027W        W43921  12.523  10.335  11.634 -0.0373  0.2892 -0.0557
28028W        W43922   1.298  11.001   0.947 -0.0490 -0.1659  0.3688
28029W        W43923   4.918   3.686  10.976  0.2839  0.4332 -0.0114
28030W        W43924   8.598  13.760   4.307  0.1279 -0.3132  0.1057
28031W        W43925   8.091  15.426   3.484 -0.3230 -0.1947  0.2307
28032W        W43926  17.013  18.412  12.631 -0.1049  0.0148  0.0278
28033W        W43927  12.724   8.213   2.641 -0.0217  0.0134 -0.0590
28034W        W43928   5.034   7.645   1.334  0.1262 -0.1122 -0.0582
28035W        W43929   3.317   3.456  12.158  0.1704 -0.2691 -0.0878
28036W        W43930   9.641   5.951  11.721 -0.0023  0.4047  0.3852
28037W        W43931  15.408   5.937   3.710  0.0730 -0.0687 -0.0345
28038W        W43932   5.908   9.947   3.840  0.1195 -0.0683  0.2436
28039W        W43933  13.135  17.372  15.476  0.0215  0.0031  0.2512
28040W        W43934  15.741   9.715   0.356 -0.1217  0.2092 -0.0006
28041W        W43935  13.175  10.666  12.641 -0.0649  0.2090  0.0706
28042W        W43936  10.450   2.237  11.376 -0.1802 -0.3924  0.0110
28043W        W43937   4.198  11.950   0.028 -0.1344  0.1304 -0.1891
28044W        W43938   1.041   3.648  12.766  0.0922  0.0361 -0.0093
28045W        W43939  11.757  16.202  11.388  0.0675  0.1435  0.2119
28046W        W43940   5.760  16.272   3.871 -0.2362  0.0818  0.0763
28047W        W43941  10.548  10.399   3.076 -0.0836 -0.0619 -0.0468
28048W        W43942  14.430  16.309  14.936 -0.0393 -0.0361 -0.0492
28049W        W43943  18.161  15.535  10.863 -0.0660 -0.0377  0.1890
28050W        W43944  16.701   4.035   2.978  0.1021 -0.0433 -0.0387
28051W        W43945   8.251   5.528  14.073  0.0502  0.1712  0.1617
28052W        W43946   0.777   5.380  12.267  0.1645 -0.0835  0.3105
28053W        W43947  17.057  12.595  14.055  0.0046  0.0040 -0.0530
28054W        W43948  14.817   6.350  11.396  0.0982  0.0340 -0.4062
28055W        W43949   9.580   8.093  13.073 -0.2526  0.1178  0.0788
28056W        W43950  11.560   9.094  10.406 -0.0418 -0.1135 -0.0507
28057W        W43951   7.851  11.369  12.382  0.1879 -0.0978  0.1567
28058W        W43952   0.862  13.190  14.366  0.0037 -0.0424  0.0929
28059W        W43953  10.196   3.095  10.669  0.0742  0.0355  0.0658
28060W        W43954  17.646  18.721   0.265 -0.1542 -0.1383 -0.2604
28061W        W43955   6.919   9.656   3.477 -0.1526  0.0240 -0.0978
28062W        W43956   7.128   3.205   4.809 -0.0039 -0.5413 -0.0671
28063W        W43957   2.188   7.205  13.116  0.2330 -0.0674  0.0401
28064W        W43958   2.242   0.288  13.625 -0.1987 -0.3774 -0.0717
28065W        W43959   2.690   3.801   1.333 -0.1053 -0.1445  0.3748
28066W        W43960   1.554  15.574   1.792  0.1585  0.0442 -0.0405
28067W        W43961   0.311   3.212   3.622  0.2001 -0.1366 -0.2680
28068W        W43962   3.591   0.913  12.286  0.2440  0.3058  0.1125
28069W        W43963   5.772  17.622   5.290  0.0241  0.2731 -0.0573
28070W        W43964   5.630  17.863  14.060  0.2380 -0.0056  0.0867
28071W        W43965   6.630  11.065   5.136 -0.2481 -0.0746  0.0297
28072W        W43966   2.821   6.845   9.905 -0.1139 -0.4104 -0.1561
28073W        W43967   4.337   6.840   4.611 -0.1254 -0.0798  0.0135
28074W        W43968  10.821  12.940   2.071  0.0246  0.2160  0.1773
28075W        W43969   9.345  16.643   4.830 -0.0599 -0.5315  0.0421
28076W        W43970  15.482  13.544  14.305 -0.0497 -0.1849 -0.1863
28077W        W43971  14.871  18.644   2.291 -0.1074  0.1011 -0.2293
28078W        W43972   0.416   3.892   2.135  0.2254  0.1514  0.0867
28079W        W43973   2.362  11.167  12.170  0.0838 -0.2829 -0.0988
28080W        W43974  15.906  10.523  12.240  0.0789  0.1290  0.0839
28081W        W43975   4.113  12.225  10.813 -0.0239  0.3528  0.0877
28082W        W43976  15.757  10.478  11.183 -0.0051  0.0947  0.0439
28083W        W43977  11.426   1.506   1.414 -0.0357  0.0821  0.0170
28084W        W43978   0.057   6.057   1.044 -0.0193 -0.2595 -0.1549
28085W        W43979   1.398  15.916  15.293 -0.2067  0.2299 -0.0073
28086W        W43980   9.895   0.912  14.414  0.1507 -0.0983  0.1747
28087W        W43981   6.517   0.700   5.071 -0.0053  0.2509 -0.1212
28088W        W43982   2.726  14.790   1.879 -0.2303 -0.0748  0.1371
28089W        W43983  12.791   7.186  13.039  0.4312  0.2614  0.1429
28090W        W43984   9.496   4.905  11.607 -0.3082  0.0019  0.5176
28091W        W43985  17.533  17.280  13.953 -0.2446  0.1116  0.3088
28092W        W43986  15.112   9.891   3.246  0.0394 -0.2283 -0.0429
28093W        W43987   9.184   6.188   3.090  0.3890  0.0322  0.0344
28094W        W43988  10.383   8.163  11.833  0.2298  0.0822  0.0222
28095W        W43989  14.593   9.046  13.335  0.2796  0.1170 -0.2473
28096W        W43990   4.686  17.774  14.761  0.2583 -0.3418 -0.0529
28097W        W43991   1.744  10.210   4.356 -0.2725 -0.0334  0.1924
28098W        W43992  10.017   8.699   1.125  0.0920  0.2519 -0.2663
28099W        W43993  17.427  17.224   5.208  0.2135  0.0722  0.1391
28100W        W43994   8.907   5.043  13.213  0.3443  0.0681 -0.0537
28101W        W43995  13.174  18.342  12.778 -0.0901 -0.1056 -0.1644
28102W        W43996  10.226  11.870   4.238 -0.3460 -0.0218 -0.1810
28103W        W43997  15.065   4.140   3.191 -0.0467 -0.0665 -0.4054
28104W        W43998   9.300   0.410   4.667  0.2135  0.2136 -0.0407
28105W        W43999  13.595   6.266   1.060  0.2468  0.0244 -0.3201
28106W        W44000   0.626  12.731  12.622 -0.1121  0.1213  0.1587
28107W        W44001  18.424   6.396   3.522  0.0091  0.2832 -0.0868
28108W        W44002  17.928  18.441   0.559 -0.1347  0.2219 -0.2122
28109W        W44003  11.149   0.198   5.017 -0.3572 -0.0507 -0.0009
28110W        W44004   2.015   0.996  11.186 -0.0083 -0.0956  0.4261
28111W        W44005   9.670   2.430   4.049 -0.2616 -0.2917 -0.0085
28112W        W44006   4.279  17.920  14.375 -0.0910 -0.3425 -0.0961
28113W        W44007  14.064   7.084   0.318  0.2677  0.0399 -0.2028
28114W        W44008   1.234   4.131   2.144 -0.2281  0.0368  0.2073
28115W        W44009  14.777  16.094  12.577  0.1486  0.3470 -0.1627
28116W        W44010   6.509   1.187  14.062 -0.0983 -0.3152  0.1738
28117W        W44011   8.860  14.125   5.078  0.0184  0.2567  0.0180
28118W        W44012   3.210   7.202   4.432 -0.2567  0.0002 -0.2707
28119W        W44013  17.451   7.915   4.844  0.0966  0.0015 -0.0358
28120W        W44014   8.278   9.046   2.536 -0.1467 -0.1352  0.5025
28121W        W44015   6.922  13.599  14.298  0.1109  0.2875 -0.1730
28122W        W44016  16.767   9.812  10.416  0.0873  0.0009  0.0896
28123W        W44017   6.496  10.594  14.834  0.1199  0.3051  0.0323
28124W        W44018   4.242  13.648  12.680  0.0315  0.0949  0.2332
28125W        W44019   5.354  18.499  11.831  0.2050 -0.2815 -0.0190
28126W        W44020  16.934   0.155  13.133  0.3282 -0.0387  0.1525
28127W        W44021   2.998  14.188  10.019  0.0986 -0.1486 -0.2481
28128W        W44022  11.316   1.864  11.166 -0.0715 -0.2331 -0.3885
28129W        W44023  13.007  12.427  12.412 -0.0133  0.1063  0.2994
28130W        W44024  17.888  16.693  12.787  0.1500  0.4459 -0.0054
28131W        W44025  15.965  15.233   3.200  0.2888  0.1105 -0.0360
28132W        W44026  18.390  17.388  10.752  0.0206  0.2309 -0.1863
28133W        W44027  15.328  14.081  13.891  0.1572  0.4551  0.2081
28134W        W44028  13.887   3.811   0.966  0.1042  0.0059 -0.3587
28135W        W44029  10.755  11.003   4.690 -0.0634 -0.1576  0.2418
28136W        W44030  14.974   5.128   3.858  0.1281  0.2177  0.1570
28137W        W44031   5.256  10.893   3.897  0.0837 -0.0986 -0.1253
28138W        W44032   7.795  13.956  11.042 -0.1966  0.0551 -0.0783
28139W        W44033  17.903   4.929  11.712  0.0386  0.2815  0.3026
28140W        W44034   9.457   7.825  14.823 -0.0994  0.0825  0.0162
28141W        W44035  10.191   8.526   3.002  0.1873 -0.2469 -0.0438
28142W        W44036  14.094   7.438  11.759  0.0170  0.3202 -0.4062
28143W        W44037   8.872   0.698  10.793  0.1551 -0.3451  0.0440
28144W        W44038  11.130   0.377  14.911 -0.0543  0.0293  0.2817
28145W        W44039   6.056   4.984   3.206 -0.0820  0.2356  0.0182
28146W        W44040   4.524  18.391  13.778  0.1242  0.5110  0.0732
28147W        W44041  17.771   0.312   0.075  0.0746 -0.0179 -0.1618
28148W        W44042  17.817  16.397   0.036  0.2279  0.0032 -0.1140
28149W        W44043   0.321   1.543  15.486  0.3628  0.4186  0.1352
28150W        W44044   1.556   6.197  12.321 -0.1722 -0.0944  0.1063
28151W        W44045  11.888  10.094   2.061  0.2352  0.0795 -0.0045
28152W        W44046   9.593   7.600  12.866 -0.1232 -0.1786 -0.1077
28153W        W44047   1.079   1.970  15.014  0.1081  0.2261 -0.1061
28154W        W44048  16.076  11.541  14.385 -0.3610 -0.0985  0.1613
28155W        W44049  18.644  13.345  14.812  0.0681 -0.1535  0.0178
28156W        W44050  18.540   6.879   4.112  0.1696 -0.1181 -0.0983
28157W        W44051  10.369   4.670  10.980  0.1389 -0.1262 -0.2978
28158W        W44052   4.123   0.353  14.850 -0.1136  0.0735  0.1631
28159W        W44053   0.423   8.929  13.498 -0.2915 -0.0312 -0.1222
28160W        W44054   7.813   8.147   4.142  0.1535  0.1406 -0.0682
28161W        W44055  15.337   6.807   4.185 -0.2044  0.0038 -0.0871
28162W        W44056   0.491   7.735  11.054 -0.3025  0.0071  0.1712
28163W        W44057  17.967  11.016   4.453  0.4979  0.1649  0.0652
28164W        W44058   7.172   8.604   0.384 -0.0594 -0.2417  0.0815
28165W        W44059   7.951  12.233  14.994  0.2008  0.1603  0.2198
28166W        W44060   4.415  14.463  11.130  0.1588 -0.2345  0.0188
28167W        W44061  13.085  14.565  12.737  0.1102 -0.2479 -0.2685
28168W        W44062   8.957   5.540   3.311  0.1408 -0.1128  0.0323
28169W        W44063  12.891  18.682   3.878 -0.2125 -0.0744 -0.1586
28170W        W44064   0.715  13.170   4.999  0.2251 -0.2037  0.3001
28171W        W44065   1.619  10.172  12.494  0.3324 -0.1149 -0.0210
28172W        W44066  10.512   0.477   0.039  0.3000 -0.0194  0.1387
28173W        W44067  17.650  15.026  14.389  0.1070  0.3628 -0.0890
28174W        W44068   7.087   1.122   2.995 -0.0590  0.1126  0.0129
28175W        W44069  18.254  10.424   1.825  0.1595  0.1148 -0.1695
28176W        W44070  16.480   6.084   2.029 -0.0956 -0.0946 -0.0925
28177W        W44071   8.288   6.035   3.713  0.0344  0.0254 -0.1176
28178W        W44072   4.868   9.466   4.890  0.2839 -0.0995 -0.2346
28179W        W44073   1.914   9.377   2.332  0.0435  0.0257  0.2023
28180W        W44074  15.978  18.550   1.437 -0.0120 -0.2044 -0.1219
28181W        W44075   0.006   5.837   2.004  0.0661 -0.0735  0.0326
28182W        W44076   9.242  10.363   4.705 -0.1968  0.0721  0.2021
28183W        W44077   8.847  12.768  10.621  0.1503 -0.2249 -0.1814
28184W        W44078   2.155   4.887   3.422  0.1600 -0.2060 -0.1117
28185W        W44079  11.453   5.908   5.538 -0.3392  0.0775  0.1739
28186W        W44080  10.722  15.306   0.396 -0.0948 -0.1298 -0.0574
28187W        W44081  17.653   4.511   3.556  0.0711  0.0702  0.0254
28188W        W44082  16.003  11.342  13.231 -0.0133 -0.1194  0.1699
28189W        W44083   3.766   1.833  14.971 -0.1425 -0.3184 -0.1004
28190W        W44084   2.760   5.227  14.272  0.1297  0.1184  0.0313
28191W        W44085  11.145  13.444  12.570  0.0654  0.0692  0.1511
28192W        W44086  15.714   4.963  11.779  0.2175 -0.3177 -0.0462
28193W        W44087  10.800   7.337   5.071 -0.1754  0.0487  0.1645
28194W        W44088   4.240  17.306   4.109 -0.1546  0.2156  0.0358
28195W        W44089  17.026   5.122  13.830  0.0094 -0.2840 -0.1240
28196W        W44090   0.471  14.735   9.943  0.1011  0.0651 -0.1152
28197W        W44091  10.030  13.997   1.165  0.2854 -0.0220  0.2429
28198W        W44092  10.972   7.366  11.777 -0.0187  0.3910  0.0089
28199W        W44093  18.534   5.723  11.951  0.1273  0.1269  0.2676
28200W        W44094  17.517  12.971  14.486  0.0966  0.3206  0.0573
28201W        W44095  11.433   9.892   5.931  0.0652  0.1783  0.1928
28202W        W44096  13.798   1.892   3.112  0.1697 -0.1885 -0.0020
28203W        W44097   1.197   5.658  14.569 -0.1051  0.0363  0.3193
28204W        W44098   7.274  14.475   1.603 -0.1362  0.2645  0.0356
28205W        W44099  12.281   3.633  13.624 -0.0772 -0.1454 -0.1136
28206W        W44100  10.689   6.712   0.302 -0.3033 -0.0976  0.0884
28207W        W44101   2.118  16.625  12.352 -0.0793  0.0439  0.1109
28208W        W44102   3.722   5.118  14.272 -0.1251  0.0251  0.1048
28209W        W44103   3.024   5.011  13.399 -0.0239 -0.0182 -0.1005
28210W        W44104   6.916   4.056   1.483  0.0868  0.3348 -0.0191
28211W        W44105   3.603   8.186  11.039 -0.4111  0.1135  0.2569
28212W        W44106   8.801  15.866  13.440 -0.0102 -0.2199  0.3485
28213W        W44107  18.689   7.986  14.821  0.0160  0.1119 -0.1552
28214W        W44108  16.435  11.599   2.123  0.1254  0.1517  0.1702
28215W        W44109   8.729   6.491   3.125  0.2787 -0.0017  0.0855
28216W        W44110   6.955  15.876   1.562 -0.1575 -0.1233  0.2270
28217W        W44111   3.100  17.431  15.312 -0.0290 -0.0579 -0.0637
28218W        W44112   9.625  12.145   2.492 -0.1585  0.0314 -0.4702
28219W        W44113  16.050  13.959   5.370 -0.1687  0.0235  0.1151
28220W        W44114  14.016  18.062   3.870 -0.1830 -0.0540  0.0464
28221W        W44115   0.047   9.934   3.112  0.2081 -0.3568 -0.0466
28222W        W44116  13.219  10.541  13.214  0.2235  0.1487 -0.2165
28223W        W44117   1.236  11.182   3.931  0.0420  0.3383 -0.1387
28224W        W44118   0.498   2.279   1.090 -0.0411 -0.1691  0.0474
28225W        W44119   1.890  14.182   4.202  0.0232  0.0548 -0.0767
28226W        W44120   2.761  16.466   3.768 -0.1813  0.0830 -0.3084
28227W        W44121   2.490   3.021   5.273  0.3107 -0.0001  0.0626
28228W        W44122  12.349  12.012   2.922 -0.0473  0.3003  0.2347
28229W        W44123  12.379  14.728   2.131 -0.0589  0.1644 -0.5863
28230W        W44124   0.751   2.550   0.747 -0.0316  0.2724  0.7022
28231W        W44125  12.931   7.758  11.962 -0.2470  0.0241 -0.1135
28232W        W44126  12.844   8.893  12.296  0.1094 -0.0320 -0.0342
28233W        W44127  11.144   9.766   4.875 -0.1899  0.3391 -0.2183
28234W        W44128  14.384  18.132  15.233  0.0106  0.1226 -0.2518
28235W        W44129  12.875   7.069  10.789  0.1476 -0.2806  0.0660
28236W        W44130  14.834   4.257  11.097  0.2153  0.0589 -0.0291
28237W        W44131   4.364  10.368  14.630 -0.0679 -0.0556  0.2342
28238W        W44132  10.317  12.374   4.067 -0.1785 -0.0744  0.1299
28239W        W44133  12.065  18.363   4.408 -0.2169  0.1139 -0.1137
28240W        W44134   1.672   5.338   0.110 -0.1384  0.0016 -0.3094
28241W        W44135  14.438   6.177  10.214 -0.3521  0.2532  0.2963
28242W        W44136  13.335   5.240  11.169  0.1853  0.0935 -0.0103
28243W        W44137  16.180  14.463  10.778 -0.0814 -0.1828  0.0116
28244W        W44138  15.740   0.822  12.337 -0.2722 -0.6236  0.1141
28245W        W44139   9.124  18.574   0.674 -0.0008  0.1944  0.0378
28246W        W44140  11.550  13.002   3.591 -0.0999  0.0194  0.1920
28247W        W44141   9.067   3.057  13.378  0.0202 -0.1268 -0.0241
28248W        W44142  13.238   6.186  12.703 -0.1871 -0.2085  0.0140
28249W        W44143  17.951   1.158   0.607  0.0610 -0.0887  0.1991
28250W        W44144  12.612   2.141  11.070 -0.1268  0.1075 -0.2281
28251W        W44145  18.492   8.137   2.569  0.1190  0.0529  0.1106
28252W        W44146   5.545  13.544  12.013  0.3201 -0.1608  0.0487
28253W        W44147  16.922   5.002  10.152  0.1279 -0.0584  0.4198
28254W        W44148  15.782   5.532  14.143 -0.2044  0.2465 -0.2355
28255W        W44149  12.188  15.969  13.637 -0.1572  0.0457 -0.0060
28256W        W44150   6.393  17.670  13.105 -0.3900 -0.1916 -0.0008
28257W        W44151  11.202   4.662   3.215  0.1133  0.1541  0.3883
28258W        W44152  14.922   8.000  15.223  0.1016  0.0061  0.1122
28259W        W44153   6.119   1.596   4.495  0.0086  0.2093  0.2627
28260W        W44154  11.849   8.107   5.157 -0.0066 -0.1815 -0.3752
28261W        W44155   1.065  11.675   1.487  0.1652 -0.4857 -0.0947
28262W        W44156   1.544  15.105  12.885  0.0606 -0.0022  0.2384
28263W        W44157   0.437  11.617  12.057  0.0856 -0.3182  0.2383
28264W        W44158  18.646  18.824   5.396  0.4762  0.0388  0.3222
28265W        W44159   8.962  18.732  14.222 -0.2573 -0.1113  0.3783
28266W        W44160  11.574  11.452   3.400 -0.1581  0.0373 -0.2763
28267W        W44161   7.731   0.897   2.146  0.1981  0.1305 -0.3974
28268W        W44162   3.151  12.776   3.686  0.1588 -0.1121 -0.2872
28269W        W44163  14.401   5.399   3.087  0.0636  0.4331  0.1135
28270W        W44164  11.226  13.201   3.282 -0.0010 -0.0528 -0.1873
28271W        W44165   7.114  11.481   4.540  0.0164 -0.0270 -0.3249
28272W        W44166   1.469  17.769   4.910 -0.0464  0.0005  0.0549
28273W        W44167   0.895   9.444   0.480 -0.3316 -0.2336 -0.2150
28274W        W44168  18.502  12.627   5.068 -0.0265 -0.0012 -0.0789
28275W        W44169   1.885  14.223   1.961  0.0347  0.2270 -0.1448
28276W        W44170  17.905  17.049  13.680 -0.2107  0.2848  0.1141
28277W        W44171  12.145   2.515   4.679  0.0128  0.1220  0.2651
28278W        W44172  16.195   6.087   0.314  0.2574 -0.0059  0.3368
28279W        W44173  10.987   1.381   3.072 -0.1454 -0.2202 -0.0000
28280W        W44174   3.972  18.744  11.546  0.0319  0.1273  0.2551
28281W        W44175   6.763   8.892   3.749  0.1830 -0.1554  0.2384
28282W        W44176   2.272   6.063  13.947 -0.0470  0.0392 -0.0028
28283W        W44177   3.130   7.495  11.242  0.0122 -0.0970  0.0422
28284W        W44178   2.784   9.088  13.843  0.0331  0.2250 -0.0421
28285W        W44179  15.716  17.958   4.905  0.0605 -0.0409 -0.1760
28286W        W44180   0.876   2.669  10.748  0.1724  0.3410 -0.3459
28287W        W44181  17.419   3.758  13.993 -0.0339 -0.3433  0.0037
28288W        W44182  11.119  15.577  13.978  0.0543  0.4667 -0.0803
28289W        W44183  17.329  13.432  15.315  0.0840  0.2161 -0.0743
28290W        W44184  14.010  13.742   1.351  0.2568 -0.3599  0.2968
28291W        W44185   8.984   5.634  13.314 -0.0860  0.0635  0.1982
28292W        W44186  13.380   2.246   0.882 -0.2585 -0.0935 -0.4651
28293W        W44187  15.778   6.290  11.091  0.1503 -0.2992 -0.0560
28294W        W44188   6.879   1.121  11.837 -0.0406  0.2758 -0.2957
28295W        W44189   7.272   6.218   1.720  0.0637  0.0191  0.2939
28296W        W44190   9.680   1.593  12.743  0.1403  0.0189  0.1929
28297W        W44191   1.601   8.892   0.538  0.1172 -0.1282 -0.1990
28298W        W44192   1.753  14.990   4.106  0.0577 -0.1813  0.1801
28299W        W44193   4.913  13.294  14.201 -0.0130 -0.0263  0.0402
28300W        W44194  16.966  15.998   3.790  0.0848  0.0443 -0.1023
28301W        W44195   0.052  15.130   0.481  0.2062 -0.2017  0.1593
28302W        W44196   9.361  16.374  14.566  0.0155  0.0249 -0.0377
28303W        W44197  10.634  10.637  14.674  0.0180 -0.1500  0.1226
28304W        W44198   7.772   4.940  13.030 -0.1430  0.1846  0.2063
28305W        W44199  17.640  17.939  14.585 -0.0097  0.1903  0.2374
28306W        W44200  12.419  17.082   3.919 -0.2450  0.0788  0.1599
28307W        W44201   5.655   4.725  11.789  0.1390 -0.0933 -0.0990
28308W        W44202   0.294  13.874  13.708  0.0043  0.1695  0.2188
28309W        W44203  17.336   7.895   5.342  0.2364  0.3736 -0.0610
28310W        W44204   2.830  12.915   4.908 -0.1613 -0.1551  0.3594
28311W        W44205  10.345  15.244   0.120  0.0264 -0.0231  0.0205
28312W        W44206   6.803   6.710   0.285  0.2253  0.2199 -0.2766
28313W        W44207   1.608  12.248   4.562 -0.0667  0.1389 -0.2001
28314W        W44208  11.519  12.588   0.212  0.0123  0.0540  0.0684
28315W        W44209   4.629   2.340   3.925 -0.1390  0.0518 -0.1459
28316W        W44210   6.955   0.789   3.843 -0.1167  0.1662 -0.3255
28317W        W44211   5.663   6.554  11.356  0.0177  0.1645 -0.1697
28318W        W44212   8.998  17.360   4.050 -0.0048  0.0968 -0.0302
28319W        W44213  16.879  11.764   2.948 -0.1639 -0.3343  0.2057
28320W        W44214   8.035   1.186   5.697  0.0703  0.0930 -0.0266
28321W        W44215  11.695   1.697   4.748  0.2927 -0.1224 -0.1687
28322W        W44216  15.683  13.103  12.482 -0.0018 -0.1384  0.1715
28323W        W44217   8.770   9.169   2.822 -0.1501 -0.0735 -0.1608
28324W        W44218   0.723   6.910  10.469 -0.3648 -0.1802  0.1157
28325W        W44219  14.116  14.593   6.074 -0.2867  0.0418  0.0660
28326W        W44220  15.225   7.159   1.312  0.1486  0.2507 -0.0216
28327W        W44221  15.128   6.415   3.909 -0.2744  0.0101 -0.0898
28328W        W44222   8.440   8.618   3.340 -0.0979 -0.0500 -0.0595
28329W        W44223   3.027   8.346  13.435 -0.0811  0.3358  0.0100
28330W        W44224  11.451  14.914  11.706  0.1833  0.1546  0.0908
28331W        W44225  17.528   4.197   0.909  0.2825  0.1910 -0.0120
28332W        W44226   7.189  18.075   2.742  0.0192  0.0084  0.2799
28333W        W44227   5.503   8.960  14.431 -0.0817 -0.0700 -0.1797
28334W        W44228   2.518   3.021   4.210  0.3122  0.0440 -0.0587
28335W        W44229  18.050  13.107   4.264  0.1217  0.4155 -0.1794
28336W        W44230  17.415   2.716  14.020  0.1325 -0.0150  0.2032
28337W        W44231   8.143   2.105  12.275 -0.0096 -0.1747  0.1674
28338W        W44232   7.062   7.152   3.983  0.4197  0.0908  0.1595
28339W        W44233  10.103   9.154   3.683 -0.1753  0.1966 -0.1558
28340W        W44234   0.935   4.627  14.425 -0.0487  0.1813 -0.1167
28341W        W44235  10.471   2.923  13.269  0.0979 -0.1702  0.0672
28342W        W44236  13.523   5.799   4.580 -0.1446  0.2065 -0.1149
28343W        W44237  13.135  15.163  11.868  0.0340 -0.1542  0.2710
28344W        W44238   7.942   1.821   2.189 -0.2742  0.2908  0.0080
28345W        W44239   0.864   1.697  14.389  0.0435 -0.2917 -0.0270
28346W        W44240  12.968  14.047   1.217  0.0413 -0.1991  0.0852
28347W        W44241   2.125   7.054   3.451 -0.0171 -0.0140 -0.0189
28348W        W44242   9.784  16.790  12.338  0.4822  0.0693  0.1556
28349W        W44243   0.918   9.960  10.801 -0.1384  0.0199 -0.2626
28350W        W44244  10.571   0.176   5.187  0.1462  0.2721 -0.0209
28351W        W44245  18.083  18.692  12.376  0.1062  0.1200 -0.1067
28352W        W44246   9.866   8.743  12.521 -0.3594  0.1850 -0.0863
28353W        W44247   3.851  13.632   1.899  0.2215  0.0763 -0.1094
28354W        W44248  16.767   7.830  15.482 -0.2552 -0.2257 -0.0155
28355W        W44249   8.687   3.583   2.964  0.1206 -0.2391  0.1084
28356W        W44250   7.685   1.093  11.215 -0.1982 -0.0551  0.0414
28357W        W44251  11.950  16.688  14.673  0.0871  0.1523  0.0664
28358W        W44252  17.939   3.109  12.528 -0.1796 -0.1162  0.1004
28359W        W44253  16.160   4.661  12.582  0.0840  0.1002  0.1681
28360W        W44254   8.016  13.181  11.097  0.0463  0.0626 -0.0242
28361W        W44255   4.835  16.736   5.020  0.0410  0.0833  0.2720
28362W        W44256   7.222   9.910  11.680 -0.4459  0.2736 -0.0508
28363W        W44257  18.441  12.149  14.047  0.0939 -0.2481  0.2829
28364W        W44258   5.646  17.868   0.870  0.1384 -0.0179 -0.4665
28365W        W44259  16.287  17.645   0.516  0.2748 -0.2389 -0.0316
28366W        W44260   5.045  16.245   2.633  0.5093  0.0567 -0.3584
28367W        W44261  17.329  17.589   3.844 -0.0774  0.0263  0.2161
28368W        W44262   0.046   5.132   3.529 -0.2812  0.1253  0.1990
28369W        W44263   8.173   3.870   1.452  0.0326 -0.2835 -0.1374
28370W        W44264  10.959  18.112   1.784 -0.0308 -0.1426  0.1168
28371W        W44265  12.480  16.084  11.875  0.0799 -0.1516 -0.1195
28372W        W44266   3.817   9.518  12.142 -0.1063  0.1052  0.0241
28373W        W44267  11.014   5.163   4.994 -0.0606  0.1981 -0.4736
28374W        W44268   1.472  18.290  12.184 -0.1695  0.1213 -0.0258
28375W        W44269   2.500  15.054   4.118 -0.1385 -0.1576 -0.0386
28376W        W44270  15.786   5.213  11.302  0.2719  0.0164 -0.0563
28377W        W44271   4.703  14.528   4.708 -0.0035  0.1757  0.1500
28378W        W44272  12.321   3.571  12.244 -0.1667  0.3126 -0.0384
28379W        W44273  11.688   4.191   6.151  0.1803  0.0793  0.0265
28380W        W44274  16.009  13.980   6.069  0.0688 -0.1121  0.1189
28381W        W44275   2.567   9.175   0.031 -0.1248 -0.1758 -0.0468
28382W        W44276   4.361   0.707  11.182 -0.0515 -0.0724  0.0634
28383W        W44277   6.772  13.216  12.560  0.0090  0.0458  0.0724
28384W        W44278   3.933  17.216  14.293  0.0650  0.3392  0.0076
28385W        W44279   1.449  14.615   1.595 -0.4587  0.1173  0.1448
28386W        W44280   1.362  17.693  12.550  0.0035 -0.1448 -0.1159
28387W        W44281   5.593  11.487   0.547 -0.0336  0.2997 -0.0257
28388W        W44282   2.190   8.504   2.727 -0.0213  0.0881 -0.0269
28389W        W44283  17.191  16.736   0.869 -0.1520  0.1971  0.0596
28390W        W44284  11.772   3.505  12.087  0.1147  0.1410  0.0566
28391W        W44285   9.247  17.016   2.367 -0.0740  0.1577  0.2819
28392W        W44286  12.623  16.189   2.977  0.2101  0.1439  0.2439
28393W        W44287   5.111   9.145  10.749 -0.4118 -0.0270  0.0222
28394W        W44288   6.296  11.816  11.076 -0.2217 -0.1709  0.1243
28395W        W44289   2.204  15.540  15.183  0.0344  0.1716 -0.3156
28396W        W44290  10.180   5.148   5.284 -0.0317  0.1076  0.0978
28397W        W44291  14.466   0.833  11.758 -0.1032  0.1369  0.0456
28398W        W44292  11.861  17.332  11.645  0.1788 -0.0776 -0.0823
28399W        W44293   9.009   6.848   4.537  0.0241  0.0997 -0.0179
28400W        W44294  18.015  12.692  15.160  0.1629 -0.0090 -0.0595
28401W        W44295   7.389   8.162   0.456 -0.0459  0.1847 -0.0008
28402W        W44296  10.208   4.682  14.966 -0.3114 -0.1699 -0.0827
28403W        W44297   3.294   4.099  12.914  0.0499 -0.0319 -0.0364
28404W        W44298   2.779   9.874  14.947  0.1740 -0.0383 -0.0064
28405W        W44299  16.853   1.292   2.600  0.0431 -0.1402 -0.1488
28406W        W44300   5.823  11.999   2.447  0.0772 -0.2819 -0.2779
28407W        W44301  16.293   9.240   4.638  0.1562  0.3846 -0.1871
28408W        W44302  18.445  13.135   0.250  0.0638  0.3850 -0.2111
28409W        W44303   8.465  16.134   1.535  0.0885 -0.1264 -0.1847
28410W        W44304   7.259   1.458   5.023  0.1524 -0.0470 -0.1492
28411W        W44305  10.610   1.591  13.021  0.0313 -0.1222 -0.0388
28412W        W44306  14.732   3.911  10.755 -0.1638 -0.1504 -0.0289
28413W        W44307   8.242  15.116   2.813 -0.2822  0.0415  0.1264
28414W        W44308   6.234   7.541  15.228  0.1377 -0.4160 -0.0821
28415W        W44309   7.851  18.510  12.185  0.2850  0.1910  0.0273
28416W        W44310   0.660  17.496   5.572 -0.0520  0.2346  0.2309
28417W        W44311   4.430   7.342  13.910  0.1915 -0.0605  0.0623
28418W        W44312   6.259   6.605  12.768  0.2448  0.1891 -0.0101
28419W        W44313   6.906  16.687   1.106 -0.0917  0.0244  0.1721
28420W        W44314  15.409  16.751   4.649  0.0422 -0.0758  0.1296
28421W        W44315   4.602  15.323  13.130  0.1754  0.0996 -0.0916
28422W        W44316  12.138   7.735  13.525 -0.1927  0.2199  0.2544
28423W        W44317  18.579   7.499   4.721  0.3123  0.0611 -0.1622
28424W        W44318   7.741   6.210  14.848  0.0081 -0.0520  0.0629
28425W        W44319  16.085  18.465  15.182  0.2092 -0.0499 -0.0933
28426W        W44320   9.721  11.575   4.064  0.1046 -0.1672  0.1084
28427W        W44321   7.924   0.548  12.995 -0.0951 -0.0389 -0.0040
28428W        W44322   3.473  10.839   0.814  0.1263  0.3221 -0.1075
28429W        W44323  14.544   1.490  15.412  0.4511 -0.0568 -0.0550
28430W        W44324   7.516   3.735  12.870  0.0088  0.2461 -0.0310
28431W        W44325   3.657   8.996   4.851 -0.0052 -0.1031 -0.1201
28432W        W44326   3.954   1.709  12.729  0.1208  0.0502  0.1311
28433W        W44327  17.093   5.656  13.928 -0.1729  0.0438 -0.3896
28434W        W44328  15.435   1.027  13.401 -0.2059  0.3833  0.0210
28435W        W44329  10.705   5.610  12.515 -0.2773 -0.1184  0.2426
28436W        W44330  10.222  11.821   3.341 -0.0356 -0.0102  0.0530
28437W        W44331   0.890   3.005   1.695 -0.0764 -0.0888 -0.2152
28438W        W44332  15.309   9.747  11.430  0.1489 -0.0335  0.0674
28439W        W44333  14.958   9.116  12.984 -0.1143 -0.0561 -0.1515
28440W        W44334  11.669   3.114  13.582 -0.1087 -0.0738  0.4512
28441W        W44335  16.441   2.744   4.591 -0.0530 -0.1064 -0.1104
28442W        W44336  16.988   7.648  12.156 -0.0607  0.0921 -0.0047
28443W        W44337  15.941  17.741  13.733  0.0234 -0.2370  0.2471
28444W        W44338   0.668   8.740  14.029 -0.1386 -0.1596  0.2539
28445W        W44339  16.173  16.882   1.381  0.0953  0.1881 -0.0972
28446W        W44340  11.391  12.059  14.208  0.3076  0.2226 -0.1344
28447W        W44341   5.333   7.090  15.051 -0.0062  0.0176 -0.1377
28448W        W44342   2.925   3.368   4.761 -0.1273  0.4512 -0.2773
28449W        W44343   3.949  11.271   2.360  0.0964  0.0046  0.1635
28450W        W44344   7.609   8.253  11.317 -0.0429  0.0802  0.0881
28451W        W44345   0.725  15.153  12.049 -0.0837  0.0208  0.0638
28452W        W44346  17.718  12.649  12.837  0.0729  0.1977  0.1382
28453W        W44347   7.955   0.367   4.683  0.0162 -0.3180  0.3635
28454W        W44348  12.497  15.222   2.947 -0.2581  0.1547 -0.2028
28455W        W44349  13.425  13.922  11.319 -0.1200 -0.1393 -0.1478
28456W        W44350   7.954  14.231   5.736  0.1451 -0.0228 -0.2195
28457W        W44351   5.056  10.746   2.543 -0.0903  0.0286  0.1051
28458W        W44352  17.620  15.850   0.566 -0.0733  0.2842 -0.0821
28459W        W44353  18.016  12.642   4.133 -0.2458  0.3225 -0.1220
28460W        W44354   8.682   1.915  13.504 -0.0195 -0.0462  0.0856
28461W        W44355   7.372  10.850   2.437 -0.1853  0.1332  0.0306
28462W        W44356   5.235  18.488  14.345 -0.1428 -0.0222 -0.1737
28463W        W44357   2.766   5.613  12.769  0.0685  0.0197  0.2170
28464W        W44358   1.266   7.803   3.698 -0.0683 -0.1354 -0.3203
28465W        W44359  11.299   3.498  11.815  0.0567  0.1133  0.2582
28466W        W44360  18.316  18.542  14.696  0.2756 -0.1339 -0.3404
28467W        W44361   1.137  10.201   5.034  0.0928  0.1363 -0.3630
28468W        W44362   1.285  14.942  11.797  0.0596 -0.0170 -0.1992
28469W        W44363  14.317   9.079  14.537  0.3304  0.0742 -0.0859
28470W        W44364   3.212  18.657   1.587  0.0550  0.0058 -0.3176
28471W        W44365  17.234   0.662   0.645 -0.2155  0.0844 -0.0651
28472W        W44366  15.412  15.206  11.689  0.2812  0.2284 -0.1804
28473W        W44367  12.275   2.192  14.107 -0.0390  0.1119  0.0905
28474W        W44368   0.265  18.000  14.364  0.0465 -0.0136  0.1322
28475W        W44369   7.093   6.219   4.380  0.2075 -0.0715  0.3119
28476W        W44370   6.440   4.114   2.775  0.0887  0.1488  0.1984
28477W        W44371   1.263  14.479   0.400  0.1210 -0.1415 -0.2236
28478W        W44372   6.817   4.730   3.193  0.1536 -0.1509 -0.1093
28479W        W44373   6.522   0.002   0.458 -0.1427  0.0322 -0.5115
28480W        W44374  11.203  14.952  11.231 -0.0879 -0.1744 -0.2625
28481W        W44375   5.548   1.390   0.921  0.1574 -0.2307 -0.0169
28482W        W44376   0.856   8.838  13.296  0.0055  0.4106  0.1389
28483W        W44377  12.758   4.678   2.356 -0.0642  0.0178 -0.0912
28484W        W44378  15.452   1.277   0.147  0.0458  0.0277 -0.2157
28485W        W44379   4.002  18.738  15.209  0.1082 -0.1144  0.2914
28486W        W44380  15.385  16.115  11.770 -0.2669 -0.1491  0.1426
28487W        W44381  10.818  11.495  12.231 -0.1081 -0.2779  0.0381
28488W        W44382   1.988   6.970   0.000 -0.0165 -0.1086 -0.2610
28489W        W44383   8.568   8.770  14.982 -0.2305  0.1606 -0.0965
28490W        W44384   8.892  11.205  12.664  0.0214  0.0253  0.1206
28491W        W44385  17.604  12.287   3.430  0.1062 -0.0082 -0.0111
28492W        W44386  15.868  11.628   3.867 -0.2493  0.0998 -0.0327
28493W        W44387   4.168  10.669  12.290 -0.1329  0.1612  0.1270
28494W        W44388   4.387   4.563  13.190  0.1160 -0.2557  0.2926
28495W        W44389  11.941  12.336  11.301 -0.0402 -0.0491  0.1198
28496W        W44390  13.959   2.289  11.915  0.0779 -0.1361 -0.1979
28497W        W44391  13.201   1.200   2.940 -0.3633  0.1517 -0.1440
28498W        W44392   3.230  12.322   0.344 -0.0514  0.1261 -0.1353
28499W        W44393  10.345   8.432   0.864  0.2674 -0.3089  0.0286
28500W        W44394   7.172   0.241   1.973  0.0879 -0.0590 -0.1752
28501W        W44395  10.697   9.347  13.688  0.3143  0.1802  0.1128
28502W        W44396  14.036   2.799  13.066 -0.1712 -0.3929 -0.0962
28503W        W44397  18.606   7.599  13.195  0.2817  0.3141 -0.3399
28504W        W44398   6.932   7.601   1.753 -0.0799  0.0832  0.0482
28505W        W44399  15.760  11.407  15.297 -0.2576 -0.0385  0.0017
28506W        W44400   6.423  16.567  11.490 -0.3627 -0.1315 -0.0631
28507W        W44401  17.093  11.204   2.656  0.3282 -0.0885  0.2085
28508W        W44402  10.130  17.005   1.944 -0.0345  0.2498  0.1992
28509W        W44403   1.623  18.280  11.603 -0.1049 -0.2785 -0.1671
28510W        W44404   6.247  15.672  12.840  0.2002 -0.1479 -0.1557
28511W        W44405  16.262   8.853  13.964 -0.1218  0.0265  0.0305
28512W        W44406   9.390   5.329  14.650 -0.1127  0.0070  0.2298
28513W        W44407   0.782  14.477   4.446  0.1837 -0.1690 -0.1654
28514W        W44408   3.461   9.573   3.938  0.0936  0.0570  0.0174
28515W        W44409  10.516   6.028  13.977 -0.1435  0.0669  0.3315
28516W        W44410  16.558  15.670  14.106 -0.1474  0.0231  0.0561
28517W        W44411   1.262   1.942  12.640  0.0877  0.0342 -0.1257
28518W        W44412  10.758   0.522  11.905 -0.0599 -0.2198 -0.1498
28519W        W44413   5.842   2.731   0.531  0.4567 -0.0350 -0.1805
28520W        W44414  18.088   9.533  10.958 -0.1453  0.0661  0.0727
28521W        W44415   8.166  18.730  15.230 -0.1615  0.0304  0.1493
28522W        W44416  16.439   2.802  14.351  0.4860 -0.2281 -0.0271
28523W        W44417   2.703   4.975   3.533 -0.0935  0.1321  0.0720
28524W        W44418   3.849   8.313   1.286  0.2668 -0.2567  0.0862
28525W        W44419   9.577  18.588   5.105  0.0411 -0.1690 -0.0370
28526W        W44420  11.216   0.532   2.338  0.1559 -0.2664  0.0940
28527W        W44421  12.747   2.761  11.720  0.2530 -0.1196  0.1182
28528W        W44422  11.032  18.861  11.003 -0.0393 -0.1190  0.2146
28529W        W44423   5.488  16.606  11.857  0.1157  0.0553 -0.0079
28530W        W44424  17.743   5.055   1.993  0.2411  0.0489 -0.0777
28531W        W44425   7.430   3.060  10.570 -0.1749 -0.1957  0.1846
28532W        W44426  10.583   8.389   3.278 -0.2507  0.2357  0.1211
28533W        W44427   3.417  13.470  12.053  0.0282  0.3419  0.1306
28534W        W44428   3.738   2.935   1.830  0.4375 -0.1513  0.1028
28535W        W44429   4.566   1.759   2.009 -0.1047 -0.2135 -0.2063
28536W        W44430   9.420   3.977  11.390  0.2102  0.0204 -0.1265
28537W        W44431   5.374  13.585   0.127  0.0564 -0.1033  0.2712
28538W        W44432  16.408   1.937   3.845  0.2475 -0.4046  0.1335
28539W        W44433  17.323  10.078  13.568 -0.3754 -0.0548 -0.4143
28540W        W44434  11.047   3.076   2.825  0.2209 -0.0104  0.2930
28541W        W44435  12.642   1.784   1.100  0.0332 -0.0538 -0.1419
28542W        W44436  15.377  12.829  14.768 -0.0383 -0.0856 -0.2416
28543W        W44437   8.207   7.075   0.161  0.1709  0.0965 -0.1724
28544W        W44438  16.663   6.039  12.974  0.1055  0.3464  0.0696
28545W        W44439   1.140   7.013   3.353  0.1391 -0.0738 -0.2130
28546W        W44440  16.402  15.527   3.056 -0.0749  0.2110  0.2514
28547W        W44441   7.976  15.316  12.479  0.3296  0.2760 -0.2148
28548W        W44442  17.358   4.925   4.287 -0.0194 -0.0336  0.0041
28549W        W44443   5.825  18.137   2.511  0.0920 -0.2931  0.1738
28550W        W44444   2.397   6.682  13.150 -0.1011 -0.1199  0.0841
28551W        W44445  13.634   5.543   0.297 -0.2045  0.1153  0.1047
28552W        W44446  13.740  13.293   0.078 -0.1840 -0.0201 -0.0580
28553W        W44447   8.447   8.699  12.006  0.1909  0.1013 -0.3053
28554W        W44448  13.651  18.261  13.886 -0.1554 -0.1807  0.0088
28555W        W44449   1.250   7.503  15.040 -0.0508  0.1244  0.1994
28556W        W44450   3.806   4.493  13.295 -0.4394 -0.1016  0.0583
28557W        W44451  11.665  12.740  15.191 -0.4135 -0.0117 -0.2946
28558W        W44452  10.048  14.021  11.350  0.0525  0.2449  0.1000
28559W        W44453   8.566   3.399  11.454 -0.1339  0.0224 -0.1842
28560W        W44454  10.433  17.422  13.498 -0.2878 -0.0188 -0.3229
28561W        W44455   6.638   7.612  13.978 -0.1966  0.2878 -0.0713
28562W        W44456   8.228  15.747   0.825 -0.0199  0.1279 -0.1442
28563W        W44457   2.702  14.391   2.164  0.0947 -0.1201  0.1368
28564W        W44458  17.831   9.357   3.856 -0.0474  0.0314 -0.0736
28565W        W44459  16.965   1.969   0.655 -0.1899 -0.0492  0.0952
28566W        W44460  15.801  10.729  13.058 -0.3248 -0.3188  0.2030
28567W        W44461   0.881  12.688   3.684  0.4327  0.0966  0.2699
28568W        W44462   2.815   7.020  13.803  0.0170 -0.0479  0.0339
28569W        W44463  13.107   3.774  15.288  0.2321  0.2253  0.2820
28570W        W44464  17.956  16.255   1.842  0.0898  0.1451 -0.2226
28571W        W44465   4.631   6.967   2.757  0.0114 -0.2732  0.5621
28572W        W44466  15.867  13.470  10.486 -0.0677 -0.0865  0.0246
28573W        W44467  14.790  10.619   0.659 -0.2227 -0.0781  0.2923
28574W        W44468   4.103  18.737  13.718 -0.0294 -0.0377 -0.2273
28575W        W44469  18.274  17.468   4.245 -0.1088 -0.1919  0.3508
28576W        W44470  10.030  13.247  12.357 -0.1577 -0.0969  0.1221
28577W        W44471  17.209  17.585  14.832 -0.2876 -0.1020  0.1009
28578W        W44472  13.220  10.714   0.774 -0.0793 -0.2018 -0.3152
28579W        W44473   2.740  14.724   4.370  0.0265  0.1635  0.2194
28580W        W44474   9.886   0.768  11.547 -0.0176 -0.4359  0.2704
28581W        W44475   1.655  10.219  13.854 -0.1644  0.0459  0.0723
28582W        W44476  12.775   0.242  14.878 -0.0620 -0.0194 -0.3023
28583W        W44477   0.376  10.389  12.274  0.0733  0.1170  0.3042
28584W        W44478  12.290   2.388   1.774  0.0078  0.4202  0.0250
28585W        W44479   3.275   3.384   3.684 -0.0606 -0.0020  0.2541
28586W        W44480   8.421  11.361  13.608 -0.3427 -0.2306 -0.0441
28587W        W44481   8.504  14.369   3.615 -0.3268  0.0681 -0.0140
28588W        W44482   7.308   2.351  14.500  0.2804 -0.1294  0.1633
28589W        W44483   6.375   6.485   0.092  0.0075  0.0150 -0.2617
28590W        W44484   4.362  14.827   5.559  0.0355  0.0673  0.0069
28591W        W44485   2.776  12.449  12.041 -0.3796  0.1357  0.1086
28592W        W44486   1.520  11.566   0.455 -0.0726  0.0422  0.0687
28593W        W44487   3.435   4.664  15.168 -0.1410  0.1152 -0.0684
28594W        W44488  17.172   2.458  13.366 -0.2455 -0.0901 -0.0680
28595W        W44489  15.433   6.407   3.493  0.0674 -0.0950 -0.2572
28596W        W44490   7.187   8.526  13.732  0.1352  0.1310 -0.2943
28597W        W44491  15.893  14.621   2.199  0.2563  0.0056 -0.2577
28598W        W44492  15.100  10.845   3.703 -0.3539 -0.0900 -0.0333
28599W        W44493  15.503  13.019   5.149  0.1301  0.0341  0.1848
28600W        W44494   0.488  16.439  14.466 -0.2806  0.0193  0.0337
28601W        W44495   9.982   5.425  10.862 -0.3189  0.2702 -0.5268
28602W        W44496  15.544   9.324  14.164 -0.3916  0.0777  0.1343
28603W        W44497   6.388  12.702   0.145 -0.5088  0.2157  0.1752
28604W        W44498   9.089  15.892   5.525  0.1474  0.0909  0.0366
28605W        W44499   7.175   8.571   2.247 -0.0283  0.2223 -0.1642
28606W        W44500   9.983  18.732  15.134 -0.0397  0.0052  0.2201
28607W        W44501  11.808  16.626   5.761 -0.0931  0.2615 -0.4123
28608W        W44502   4.387  15.113   0.795 -0.0869  0.0177 -0.0655
28609W        W44503   3.758  16.819   1.655  0.0254  0.0012 -0.1466
28610W        W44504   7.279   1.418  11.373 -0.2242  0.0155 -0.2615
28611W        W44505   7.500  15.196  12.578 -0.2827  0.0292 -0.2282
28612W        W44506  17.009   9.089  12.056  0.5246  0.0924  0.1454
28613W        W44507  10.476   5.746   3.426 -0.0857  0.0640  0.0541
28614W        W44508   7.299   2.103  12.623 -0.0679 -0.0881  0.2682
28615W        W44509  15.693  16.658  14.949 -0.5326 -0.0572 -0.1552
28616W        W44510  13.653   7.304   0.584  0.3100  0.0213  0.1522
28617W        W44511  18.806   1.708  14.173 -0.0195 -0.0832 -0.0330
28618W        W44512  10.588   7.424  13.242  0.0802  0.0208  0.1420
28619W        W44513   8.590   5.646  11.653  0.2094 -0.0717  0.3252
28620W        W44514  18.715   1.536   4.660 -0.1065 -0.0497  0.1335
28621W        W44515  11.808   3.831  11.686 -0.1743 -0.1183 -0.1960
28622W        W44516   4.265   6.635  11.461 -0.2527 -0.0725  0.4188
28623W        W44517  16.405   1.756  10.850 -0.0758 -0.1151 -0.0287
28624W        W44518   4.023  16.813  11.585 -0.3367  0.0697  0.2715
28625W        W44519   2.301  17.525  12.885 -0.1985  0.3981  0.1561
28626W        W44520  16.485   9.286   4.050  0.0350 -0.0600 -0.0245
28627W        W44521   3.915   3.746  11.933 -0.1531  0.2866 -0.2616
28628W        W44522   2.357   2.248   4.744  0.1250  0.1753 -0.0752
28629W        W44523  14.961  14.436   2.085 -0.2472 -0.1093  0.0121
28630W        W44524  17.153  15.863  14.242  0.0936 -0.1847 -0.0266
28631W        W44525  16.003   3.900   3.746  0.2660  0.0877  0.0931
28632W        W44526   5.957  14.931  11.418 -0.4000  0.3591  0.0445
28633W        W44527   3.448   4.563  11.476  0.0404 -0.3124 -0.1523
28634W        W44528   8.044  12.350  12.388 -0.3587  0.3108  0.2985
28635W        W44529   1.413   5.815   5.459  0.0402  0.2965 -0.2450
28636W        W44530   7.082  11.565   0.876  0.2479  0.0589  0.2138
28637W        W44531   6.273   9.097   0.465 -0.1865  0.3497 -0.2808
28638W        W44532  11.771  14.574   1.289  0.1571  0.1234  0.0411
28639W        W44533  10.304  12.573  13.888 -0.0727 -0.1083 -0.2575
28640W        W44534  18.657  17.729   0.991 -0.3201  0.1765 -0.0391
28641W        W44535   9.798   8.775   5.311  0.1237  0.1011  0.1089
28642W        W44536   1.346   0.180  14.649 -0.1561  0.0395  0.1382
28643W        W44537  14.625   8.740  11.804  0.0799 -0.3098 -0.0568
28644W        W44538   4.423  17.881  13.920 -0.0082  0.0958  0.2748
28645W        W44539  12.463  12.776  12.528  0.1437 -0.2941 -0.1027
28646W        W44540   5.198   7.379  12.288  0.0580  0.1164  0.0743
28647W        W44541   7.517   4.990  15.401 -0.5368 -0.2163 -0.0670
28648W        W44542  14.146  13.921  14.696  0.1212  0.3313  0.2452
28649W        W44543  12.823   3.863   5.059  0.0123  0.0637  0.1150
28650W        W44544   6.510  14.266  12.171  0.2218 -0.1781 -0.1803
28651W        W44545   3.217   0.327   0.197 -0.1253  0.0605 -0.0664
28652W        W44546   6.437   4.819   3.888 -0.0681 -0.2610  0.0454
28653W        W44547  10.589  17.811   0.374 -0.0736 -0.1673  0.0305
28654W        W44548   2.247   7.026   4.628 -0.0359  0.1876 -0.0344
28655W        W44549   2.040  12.377   2.142 -0.0730 -0.1050  0.0747
28656W        W44550  12.680  11.675  12.170 -0.1714  0.0975 -0.0265
28657W        W44551  11.160   6.914   0.224  0.2117 -0.2026  0.0009
28658W        W44552   5.062   8.316  12.551  0.0279 -0.2797 -0.1968
28659W        W44553   6.077   3.344   5.751 -0.0696 -0.0514 -0.1937
28660W        W44554   6.261  15.605   0.966 -0.1086  0.1961  0.1986
28661W        W44555  13.478   6.359  11.044  0.0309  0.1866 -0.2878
28662W        W44556   7.688   7.718   0.621  0.1701  0.0242 -0.0097
28663W        W44557  15.430   8.663  13.383 -0.2800 -0.3281 -0.0909
28664W        W44558   8.778   2.423  11.097 -0.0324  0.0435  0.3153
28665W        W44559  14.523  11.315   3.129 -0.1380  0.2268 -0.0942
28666W        W44560  15.388  10.887   2.156  0.2551 -0.6474 -0.3236
28667W        W44561  13.807   3.871   1.554  0.2310 -0.3909  0.2522
28668W        W44562  13.090  15.141   0.256  0.0486  0.0214 -0.2681
28669W        W44563   5.715  18.779   0.337  0.2272  0.0764 -0.1048
28670W        W44564  17.398  10.279   4.165  0.1571 -0.2094  0.0468
28671W        W44565   6.936   2.919  12.848  0.2691 -0.2172 -0.3619
28672W        W44566  12.297  17.178  10.357 -0.0042  0.0079 -0.2162
28673W        W44567  11.965   9.312   0.946 -0.1405 -0.1688 -0.2022
28674W        W44568   0.674  18.509  10.749  0.1230 -0.0318 -0.0110
28675W        W44569  14.083   4.050   0.574 -0.1945 -0.1095  0.1000
28676W        W44570  13.402  10.334   4.586  0.0645 -0.0216  0.1111
28677W        W44571  12.047  13.500   2.771  0.0230  0.1463  0.1865
28678W        W44572   8.495  12.198   2.464 -0.0640 -0.0080 -0.0580
28679W        W44573   0.081   8.223  11.764  0.0290  0.0962 -0.0485
28680W        W44574  13.839  13.797   3.699 -0.0130  0.0470 -0.1832
28681W        W44575  15.208   8.269  11.024  0.1418  0.1401 -0.0062
28682W        W44576  18.212  17.274  15.168  0.1104  0.2229  0.2050
28683W        W44577  10.004   2.592   0.849 -0.1440 -0.0022 -0.0388
28684W        W44578   7.193   4.847   4.765 -0.2306  0.0683  0.1873
28685W        W44579   9.975   8.655   2.211  0.2005  0.0048  0.0360
28686W        W44580  13.501  11.321  11.113  0.1095 -0.2975  0.1767
28687W        W44581   5.134   6.178   0.286 -0.2501  0.0269 -0.0475
28688W        W44582  14.212   9.555  11.326 -0.3105  0.1833  0.0233
28689W        W44583  16.511  16.084  12.437 -0.2258 -0.1002 -0.2173
28690W        W44584   3.382  16.788   4.460 -0.0814  0.0758  0.0214
28691W        W44585   6.609  13.637  14.754  0.1480 -0.1341 -0.1041
28692W        W44586   7.094   8.941  14.977  0.1450  0.0151  0.2244
28693W        W44587  14.750   7.530   3.212 -0.0453  0.3992 -0.1426
28694W        W44588  16.282   7.715   1.615 -0.2475 -0.2566  0.2552
28695W        W44589   1.838   0.530   3.287  0.0713 -0.0074 -0.0729
28696W        W44590  12.752  11.840   0.234  0.0787 -0.0356 -0.1235
28697W        W44591   9.499   8.632  13.224  0.1224  0.3860 -0.1493
28698W        W44592  18.088   2.422  10.750  0.4153  0.0195 -0.1113
28699W        W44593  16.379   9.875   0.226  0.1521 -0.0373 -0.1010
28700W        W44594   3.622  15.440   2.627  0.0064  0.2377  0.0299
28701W        W44595   6.507  13.630  11.781 -0.1365  0.3091  0.3275
28702W        W44596  15.336   8.969   1.667  0.0562 -0.1298 -0.0353
28703W        W44597   7.309  18.090  14.726 -0.0496 -0.0022 -0.0412
28704W        W44598   5.577  11.115   0.272  0.1756 -0.1283  0.1192
28705W        W44599  16.999  14.099   3.190  0.1074  0.0100  0.1345
28706W        W44600   1.849   2.190   4.679 -0.0059  0.1031 -0.1430
28707W        W44601  17.503   4.961   0.452 -0.0500 -0.1189  0.0832
28708W        W44602   1.190  18.445  15.447 -0.0969  0.0817  0.1273
28709W        W44603   4.086   0.636  10.692  0.1888 -0.3809 -0.1292
28710W        W44604  13.404  11.651  14.329 -0.1757 -0.2444 -0.0283
28711W        W44605  13.402  16.763   2.829 -0.1473  0.2390 -0.5600
28712W        W44606  15.519   3.961   3.863  0.0097  0.0908  0.2205
28713W        W44607  14.242   4.257   5.228  0.1379  0.0198  0.0362
28714W        W44608   1.376   8.899  13.409 -0.2277 -0.4566  0.2921
28715W        W44609   9.234   5.944  12.897  0.2551  0.2109  0.1833
28716W        W44610   3.258  16.375  13.294 -0.1097  0.2725 -0.0883
28717W        W44611  12.936   8.623   3.546 -0.3381  0.2505  0.3052
28718W        W44612  14.379   7.143   4.646 -0.2241  0.0597 -0.2114
28719W        W44613   6.562   0.165   2.760  0.0603 -0.4121  0.2348
28720W        W44614   1.917  11.513  14.231 -0.1405 -0.1678  0.1479
28721W        W44615   6.085   9.132  14.437  0.1811 -0.1143 -0.0531
28722W        W44616  11.968   0.784  13.966  0.2719  0.2194 -0.0213
28723W        W44617  16.702   4.081  11.840  0.0318 -0.0684  0.1763
28724W        W44618   2.277   8.892   4.663 -0.2488  0.1061  0.2135
28725W        W44619   1.979  11.654   0.400 -0.0963 -0.1416 -0.1124
28726W        W44620  15.030   1.604   0.172 -0.1278 -0.1553 -0.0584
28727W        W44621   3.518  12.690   5.592 -0.2281 -0.2686  0.0145
28728W        W44622  11.750   5.596  12.582 -0.2147 -0.0294  0.1726
28729W        W44623   2.341  17.052   4.544  0.1131  0.1103  0.0134
28730W        W44624  10.004   0.399  14.016  0.3976 -0.3417 -0.0417
28731W        W44625   3.686  10.496   2.134  0.1347  0.3092  0.3109
28732W        W44626  12.869  11.794   3.950 -0.0910 -0.0656 -0.2682
28733W        W44627  17.623   0.231   3.790 -0.1127 -0.0865  0.1069
28734W        W44628  18.868  12.055   2.593 -0.0708 -0.2329  0.0050
28735W        W44629  18.475   6.135   0.921 -0.0645  0.0981 -0.2029
28736W        W44630   7.386  11.033   2.941  0.1115  0.0276  0.0486
28737W        W44631   5.049  16.245  12.018  0.0158  0.1425  0.0464
28738W        W44632   4.596   6.003   3.509 -0.1159  0.1547 -0.0785
28739W        W44633  11.090  17.563   3.913 -0.3910  0.2089 -0.1457
28740W        W44634  15.126  16.929   2.661 -0.4053  0.1261  0.1514
28741W        W44635   8.433   0.753  11.978  0.1627  0.0040  0.0015
28742W        W44636   8.248   4.925   4.632  0.4376  0.1391  0.0233
28743W        W44637  11.554  13.167   4.405 -0.0233  0.1498  0.4432
28744W        W44638  15.010  11.610   1.219 -0.3209  0.0587  0.1303
28745W        W44639   1.469   1.716   3.685 -0.2148  0.1611  0.3765
28746W        W44640  16.780   7.456   3.520 -0.1585  0.0351 -0.1858
28747W        W44641  13.328   6.176  12.118  0.1902 -0.0254  0.2458
28748W        W44642  14.473   5.985  13.024  0.0224 -0.0918 -0.0887
28749W        W44643  13.477   7.059   3.665  0.1654 -0.2741 -0.2296
28750W        W44644   7.471   7.120   4.288 -0.1529  0.3737  0.0245
28751W        W44645   3.792  17.701   4.488  0.2018  0.1889  0.0642
28752W        W44646   9.823   5.785   4.587 -0.1685 -0.1037 -0.3686
28753W        W44647  13.989  12.404  14.515  0.2014  0.3107 -0.0426
28754W        W44648  16.521  14.831   1.513  0.4410  0.1849 -0.0496
28755W        W44649   7.336   4.186  13.009 -0.1030  0.0913  0.2904
28756W        W44650   0.334   6.262   0.209  0.2547 -0.2880 -0.0516
28757W        W44651   9.360   3.487   0.810 -0.0840 -0.0041 -0.3053
28758W        W44652   4.011   7.778   3.461  0.2275 -0.2076 -0.0572
28759W        W44653  14.636   9.596   4.177  0.1713  0.5442 -0.1386
28760W        W44654   8.196  17.929   4.915  0.1373  0.1186  0.1442
28761W        W44655   7.893  11.722  14.978 -0.4740  0.1589  0.2573
28762W        W44656  10.786   1.549   1.605  0.0052  0.0347  0.0870
28763W        W44657   9.651   1.999  13.465  0.0170 -0.2036  0.0343
28764W        W44658   4.605  16.288  15.007 -0.2460 -0.2357  0.4279
28765W        W44659  13.599  18.763  15.327  0.2048  0.1167 -0.1104
28766W        W44660   2.634   1.391   4.932  0.0441 -0.0086  0.0144
28767W        W44661   1.055  14.199   1.465 -0.0263  0.1564 -0.3137
28768W        W44662  12.836   8.596  13.224  0.0586 -0.0223  0.4095
28769W        W44663   1.700   5.724  15.272 -0.1159 -0.0563 -0.1241
28770W        W44664   2.567  17.068   1.030  0.2796 -0.0609  0.1613
28771W        W44665  18.438   1.047  14.876 -0.0499 -0.0552 -0.0604
28772W        W44666   4.643   9.134   3.977 -0.2272 -0.0086 -0.1268
28773W        W44667   6.775   5.530   3.513 -0.2919  0.1616 -0.2511
28774W        W44668  14.233   5.104   0.846 -0.0440 -0.1902  0.2638
28775W        W44669   6.195   4.957  12.638  0.2255 -0.0080 -0.3276
28776W        W44670   8.810  12.314   3.673 -0.2923  0.2817  0.0256
28777W        W44671  16.780   7.272  15.354  0.2904 -0.4078 -0.0807
28778W        W44672   3.381  15.878   2.235 -0.4376 -0.3349 -0.1362
28779W        W44673   6.498   7.554  13.000 -0.0844  0.0077 -0.1308
28780W        W44674  14.108   6.056   0.483  0.0267 -0.1658  0.0932
28781W        W44675  13.493   1.812   4.193 -0.0840 -0.0824  0.1745
28782W        W44676   9.342   4.680   1.833 -0.2436  0.3337  0.1757
28783W        W44677  14.112   8.480   0.251 -0.2224 -0.2337 -0.0929
28784W        W44678  16.791  12.354  11.461 -0.0998  0.0612 -0.0403
28785W        W44679  14.079  13.340   3.772 -0.0618  0.0556  0.0380
28786W        W44680   3.228   7.383   0.735  0.0117 -0.0921  0.2000
28787W        W44681  14.813   6.045  15.288 -0.1260 -0.2496  0.0700
28788W        W44682   2.782  18.442   1.687  0.1292 -0.0160  0.1030
28789W        W44683  17.964   9.547  10.473 -0.2665  0.3831 -0.2470
28790W        W44684   4.209   3.678  14.740  0.0838 -0.2078  0.0133
28791W        W44685  17.710  12.398  11.473 -0.0413 -0.0303 -0.1981
28792W        W44686   3.907   0.784  14.617 -0.0214  0.0234 -0.0394
28793W        W44687   1.637  10.255   0.076 -0.0855  0.4196  0.2773
28794W        W44688   8.882  16.396   4.791 -0.0620  0.2245  0.1087
28795W        W44689   9.100  16.490   2.298 -0.0132 -0.3766  0.2371
28796W        W44690   5.952   5.846  15.222 -0.0949 -0.2722  0.0711
28797W        W44691   2.655  12.149   2.976 -0.1069  0.0673 -0.1113
28798W        W44692  17.399  17.917   3.123 -0.0189 -0.1005 -0.0559
28799W        W44693   8.074   0.853   4.576  0.1754 -0.3359  0.0676
28800W        W44694  10.459  12.861  15.130 -0.3024  0.1692  0.4037
28801W        W44695  15.794   7.910  11.968 -0.0691  0.0895 -0.0101
28802W        W44696   5.052   4.192  12.896  0.0138  0.3433  0.0232
28803W        W44697  17.611   7.112  14.027 -0.1982 -0.1251  0.0673
28804W        W44698  13.350   0.646   1.686 -0.1149 -0.0002 -0.1737
28805W        W44699  10.110   1.616   9.800  0.2507 -0.1396 -0.1147
28806W        W44700   9.101   8.818  11.244  0.1810  0.0871 -0.1572
28807W        W44701  12.048   9.522   0.504  0.0660  0.1473 -0.0286
28808W        W44702   5.837  14.357   2.738  0.0070  0.0666  0.1359
28809W        W44703  18.035  15.657   0.818 -0.0152 -0.1762 -0.0808
28810W        W44704   5.871   5.086   2.355  0.0086  0.0312  0.3758
28811W        W44705   6.255   0.380   1.434  0.0173 -0.1280  0.0301
28812W        W44706   9.578   7.558  15.472  0.1138 -0.3235  0.0916
28813W        W44707   3.261   8.507   0.959  0.2690 -0.1058 -0.0343
28814W        W44708   8.303   1.210  11.293  0.0834  0.1367  0.0713
28815W        W44709   2.637  15.981  10.747  0.0255 -0.0472 -0.0177
28816W        W44710  15.600   9.778  14.469 -0.1128 -0.2222  0.2195
28817W        W44711  18.210  11.776  13.106 -0.2450  0.0150  0.2075
28818W        W44712   3.782  12.539   0.050  0.1383  0.1665  0.1982
28819W        W44713  13.409   5.035   0.288 -0.3078  0.2860  0.2460
28820W        W44714   8.982  15.579  14.522  0.1656 -0.0116  0.1235
28821W        W44715   9.681   3.705   2.103  0.0343  0.0987  0.0939
28822W        W44716   7.400   0.318  14.690  0.0679  0.0846 -0.0610
28823W        W44717  15.355   0.034   4.012  0.2164 -0.1543 -0.1225
28824W        W44718   8.364  15.770  11.793  0.0556  0.1382  0.0623
28825W        W44719  11.522   0.452  15.420 -0.1655 -0.1417 -0.1841
28826W        W44720   8.221   4.306  12.894  0.0654  0.1492  0.3096
28827W        W44721   2.069   5.610  14.804  0.3020  0.1909 -0.2641
28828W        W44722   6.162  13.704  14.554 -0.1475 -0.0714  0.0519
28829W        W44723   2.848   4.321   3.627 -0.2023 -0.0006 -0.0148
28830W        W44724  13.903   1.783   4.578  0.1278  0.1599 -0.1919
28831W        W44725  10.811   6.387   2.276 -0.0002 -0.0875 -0.1269
28832W        W44726  11.525  15.019  13.171 -0.0489 -0.0682 -0.1477
28833W        W44727  11.810  14.441   0.727 -0.3313  0.1189 -0.1624
28834W        W44728  10.956  18.188   3.115  0.0238 -0.0983 -0.1822
28835W        W44729  11.137   6.959  12.503  0.0752 -0.0585  0.0709
28836W        W44730  18.514  15.620   5.426  0.0551  0.0108 -0.0704
28837W        W44731   7.200  17.519  11.413  0.0460  0.2641  0.1871
28838W        W44732  15.355   6.277   1.912  0.1614  0.1798  0.4439
28839W        W44733   6.799   4.700  13.084  0.1130  0.0516  0.0586
28840W        W44734   3.905   7.081  12.168  0.0355 -0.1037  0.1201
28841W        W44735  11.758   1.106  12.548  0.0591 -0.1413  0.0878
28842W        W44736  11.116   3.920   2.126 -0.0578  0.1921 -0.1921
28843W        W44737  16.994   7.500  10.759  0.1440 -0.0614  0.4741
28844W        W44738  14.970  17.115  14.177 -0.0070 -0.0665  0.0511
28845W        W44739  16.491  17.325  12.950 -0.2191 -0.1394 -0.3341
28846W        W44740   2.537   0.784  13.974  0.1073  0.0440 -0.0630
28847W        W44741  14.251   3.015   5.483 -0.2290 -0.0348 -0.0041
28848W        W44742   0.933   0.258  14.330 -0.2101 -0.1499 -0.0937
28849W        W44743  13.636   0.347  11.615 -0.1128 -0.1905 -0.1381
28850W        W44744   0.089  14.536  14.173 -0.2633 -0.1174  0.3168
28851W        W44745   4.756   3.631   1.282  0.1788 -0.3443  0.1267
28852W        W44746   3.391   6.706  10.938 -0.0726 -0.0206  0.2115
28853W        W44747  15.775  16.385   2.642  0.0437  0.0773 -0.0364
28854W        W44748  11.805  18.564  14.646  0.0548  0.0216  0.1300
28855W        W44749   3.124   3.954   4.492  0.0545 -0.1755  0.2954
28856W        W44750   9.203   0.337   0.233 -0.0719 -0.0243 -0.0693
28857W        W44751  18.146   0.956   1.648  0.0348  0.0665 -0.0268
28858W        W44752   7.800  16.531  12.117  0.2647 -0.0410 -0.4772
28859W        W44753  18.160  15.826   3.371  0.0488 -0.0809 -0.0559
28860W        W44754   9.838  15.800   0.013  0.0108  0.3761  0.2786
28861W        W44755   5.257   5.526  12.394 -0.4017 -0.0678 -0.1813
28862W        W44756  18.397   2.153  14.412 -0.2047  0.0488 -0.1347
28863W        W44757   0.567  15.079   0.691 -0.2632 -0.1111 -0.0525
28864W        W44758  18.130   5.321   2.344  0.4297  0.0640  0.0205
28865W        W44759  12.936  14.406   2.648 -0.1602  0.0183 -0.2710
28866W        W44760  10.406  13.670  13.255  0.0729  0.1630  0.1630
28867W        W44761   1.138  18.159  11.340 -0.0981  0.1083 -0.3495
28868W        W44762   6.156  15.548  13.838  0.2041 -0.0697 -0.2110
28869W        W44763  11.467   5.231  10.588 -0.0178  0.0870  0.1457
28870W        W44764   0.736  18.392  15.162 -0.1746 -0.0043 -0.1950
28871W        W44765   4.132  17.698  11.537 -0.3716  0.1682  0.4204
28872W        W44766  11.404  15.845   4.819 -0.0964  0.1932 -0.0626
28873W        W44767  14.596  18.494   4.709  0.2438 -0.0763  0.0076
28874W        W44768  15.380  12.039   2.231 -0.2597  0.0226 -0.0253
28875W        W44769   9.910  12.363  11.261  0.0957  0.0750 -0.1127
28876W        W44770   0.897   4.843   3.020 -0.0947 -0.0448 -0.1119
28877W        W44771  17.477   0.681   5.399  0.1108  0.0515  0.2125
28878W        W44772   9.671   6.305  12.851  0.1395  0.1485 -0.3451
28879W        W44773  16.143  12.865  12.415  0.2692 -0.1093  0.3550
28880W        W44774   2.603  18.612   0.501 -0.0896 -0.1933  0.0328
28881W        W44775  16.760   0.092   1.114  0.2193  0.3963 -0.2016
28882W        W44776  10.874   6.915  14.517 -0.2251  0.1081  0.1783
28883W        W44777   7.828   3.738   3.273 -0.2254 -0.0253  0.1517
28884W        W44778   7.548  15.503   2.232  0.2495  0.0093  0.0173
28885W        W44779   5.090   0.086   0.857  0.1355 -0.1465 -0.0491
28886W        W44780   1.540   5.264  15.055 -0.0873  0.0347 -0.0216
28887W        W44781   1.371  10.175  12.058 -0.0908 -0.1029 -0.1364
28888W        W44782   3.879  13.142   2.718  0.2113  0.2399 -0.4553
28889W        W44783  16.458  15.503  12.546 -0.2161 -0.1247  0.1460
28890W        W44784   0.267  18.435   2.409  0.2957  0.2984  0.1519
28891W        W44785  14.848  11.243   0.881 -0.1688 -0.1796 -0.1107
28892W        W44786  15.133  13.203  12.108 -0.0358  0.1174  0.2821
28893W        W44787  17.596   6.607   0.912  0.0487  0.1432 -0.2389
28894W        W44788  14.209  14.999  14.792  0.0061 -0.0386  0.0522
28895W        W44789   6.295   7.520   4.752 -0.1158  0.0568 -0.0318
28896W        W44790   0.513  10.650   5.713  0.0048 -0.2484  0.1751
28897W        W44791  15.505  10.483   5.569 -0.0438 -0.0720  0.2253
28898W        W44792  10.109   3.941   1.354  0.2588 -0.0678  0.2230
28899W        W44793  12.253   1.235   5.325 -0.0517  0.0183 -0.1495
28900W        W44794  11.279   9.716  14.204 -0.0689 -0.0895  0.0383
28901W        W44795  18.030   6.657  13.284  0.1748  0.4231 -0.1368
28902W        W44796   9.772  11.805  11.299 -0.0968  0.0673  0.0214
28903W        W44797  18.267  14.900  13.452 -0.0826 -0.0803 -0.2749
28904W        W44798   7.011  17.654   0.791  0.2546  0.1171  0.0066
28905W        W44799   5.446  18.503   4.083 -0.3186  0.0640 -0.0468
28906W        W44800  14.092   3.928  13.512 -0.0612  0.0504  0.0027
28907W        W44801  11.299  12.255   2.428 -0.2993 -0.0734  0.2955
28908W        W44802   3.106   8.211   2.786 -0.2224  0.2636 -0.0036
28909W        W44803   6.347  13.143   2.073 -0.0502  0.0400  0.1362
28910W        W44804  11.187  15.279   0.107  0.0173 -0.0591 -0.0169
28911W        W44805  15.888  18.255  11.244  0.2907 -0.1853  0.2213
28912W        W44806  12.207  10.610   3.145 -0.0131 -0.0929  0.3382
28913W        W44807   0.982   9.383  15.294  0.0778 -0.0577 -0.0010
28914W        W44808   9.152  15.149  14.344 -0.0253  0.0100  0.0173
28915W        W44809   8.581   2.383  14.714 -0.3040  0.0754 -0.2037
28916W        W44810  10.637   7.244  14.918 -0.1626  0.0672  0.1328
28917W        W44811  14.596   1.419  12.082 -0.0860  0.1297 -0.1615
28918W        W44812  12.033  14.704   2.609  0.1848 -0.1240 -0.0245
28919W        W44813  11.445  12.164  11.542 -0.0867 -0.2083  0.3699
28920W        W44814  17.764   9.141  12.686  0.2625 -0.1246  0.1333
28921W        W44815   7.411   8.405   5.007  0.2678  0.2154  0.1567
28922W        W44816  15.738  14.240  15.472  0.4036 -0.0118  0.1888
28923W        W44817  18.582  10.077  11.529 -0.5349 -0.0468  0.0236
28924W        W44818  17.177   1.165   4.973 -0.1020 -0.1299  0.1151
28925W        W44819  11.042  17.283  11.334 -0.4596 -0.0856  0.1613
28926W        W44820  10.256  11.029  11.556  0.4746  0.2708  0.0868
28927W        W44821   8.451   3.205   1.053 -0.0639  0.3381  0.2228
28928W        W44822   6.904   8.640  12.108 -0.2437  0.4913  0.1855
28929W        W44823   5.970  16.022  12.540 -0.0678  0.3013 -0.0509
28930W        W44824   9.726   7.813  10.554 -0.1400  0.0898  0.1766
28931W        W44825   5.076   8.778  11.827 -0.2065  0.0985  0.3018
28932W        W44826  11.398   3.258  14.033 -0.0743  0.2521  0.0750
28933W        W44827   9.616  14.473   4.418  0.0801  0.0323  0.1700
28934W        W44828   2.964   6.770  13.397 -0.0527  0.2753 -0.0083
28935W        W44829   0.258   0.098   2.526 -0.0498 -0.1167  0.0980
28936W        W44830   4.344   1.317  12.867 -0.2351  0.0817 -0.1271
28937W        W44831  17.548   5.709  12.004  0.1778  0.0579 -0.1150
28938W        W44832  13.663   9.827   1.969 -0.0857 -0.3623 -0.2230
28939W        W44833  10.295  15.797   6.163  0.0710  0.5393  0.0188
28940W        W44834   3.037   0.325  12.844 -0.1621 -0.2844  0.2537
28941W        W44835  18.349  15.699   3.987  0.1251  0.1756 -0.0264
28942W        W44836   8.605  16.374   2.321  0.0628 -0.0956  0.0475
28943W        W44837  10.646  10.567  12.742 -0.2918  0.2820  0.1963
28944W        W44838  10.041   7.498   4.373 -0.0484  0.0452 -0.1099
28945W        W44839  17.002   9.765  12.564 -0.3225  0.1292 -0.2678
28946W        W44840  18.586   4.126  12.352  0.0872  0.1138  0.2049
28947W        W44841   0.214  17.643  15.281 -0.4064 -0.3892  0.1012
28948W        W44842   1.680  16.209  12.583  0.1929 -0.1164  0.1909
28949W        W44843  12.199   0.650   1.356  0.1429  0.0119 -0.0768
28950W        W44844  12.711   9.324  12.013 -0.5022 -0.3111  0.1090
28951W        W44845   5.602   8.525   1.401  0.2926 -0.1086  0.0814
28952W        W44846   3.128   8.390  14.313  0.2603  0.2165  0.4018
28953W        W44847   9.108  16.397  15.434  0.2862  0.1882  0.4807
28954W        W44848   3.049  14.919  13.149 -0.4918  0.2131  0.1354
28955W        W44849  16.235   7.927  15.226 -0.4081 -0.0253  0.0563
28956W        W44850   5.776  16.412  10.238 -0.0516 -0.3015 -0.1113
28957W        W44851   4.772  16.657   4.262 -0.4006  0.1815  0.0666
28958W        W44852  12.306  16.605   5.641 -0.1337  0.2682 -0.2095
28959W        W44853  11.623   2.321  11.236 -0.0193  0.2332 -0.1033
28960W        W44854   1.542  18.326  11.073 -0.3206 -0.2727 -0.1830
28961W        W44855   7.348  15.540   0.151 -0.0556  0.1332 -0.1359
28962W        W44856   4.257  10.627   3.913 -0.0986  0.0512  0.0111
28963W        W44857   2.626   2.333  15.408  0.2414 -0.2268 -0.1353
28964W        W44858  16.334   5.953   4.321  0.0901  0.0232 -0.1573
28965W        W44859  12.150   6.107  10.064 -0.1117  0.3381 -0.0463
28966W        W44860  15.391  17.023   3.072 -0.1898 -0.0186  0.3262
28967W        W44861  14.457  16.613  13.645 -0.1735  0.0950 -0.0167
28968W        W44862  11.005   7.131  10.620  0.4460  0.5439 -0.1294
28969W        W44863   3.230   6.891   0.903 -0.0033 -0.0108  0.2283
28970W        W44864   6.611   0.010  14.637  0.1521  0.1367  0.0897
28971W        W44865  10.056   1.990   1.590 -0.0851  0.0714 -0.2173
28972W        W44866   2.565  15.700  13.165 -0.0395 -0.1946 -0.0730
28973W        W44867   1.741   1.801  10.535 -0.3024  0.0021 -0.0583
28974W        W44868   8.609  18.668   1.398 -0.1898 -0.2732 -0.0163
28975W        W44869  12.506  11.370   2.033  0.2836  0.0564  0.1395
28976W        W44870  15.286   6.908  10.871 -0.1398  0.3936  0.1371
28977W        W44871  13.693   0.549   0.126  0.1538  0.1625 -0.1591
28978W        W44872  13.206  15.980  15.222 -0.0994  0.1368 -0.0280
28979W        W44873  16.694   1.296   4.876 -0.0397 -0.1039  0.2656
28980W        W44874  15.682   7.315  11.500  0.2205 -0.0179  0.1664
28981W        W44875  12.516   1.836   0.321 -0.1410 -0.2065  0.1117
28982W        W44876  11.210   1.272   6.480 -0.2032  0.0641  0.0518
28983W        W44877  12.131  13.396   0.169 -0.3648 -0.1832  0.1968
28984W        W44878  13.796  15.028  13.419  0.3572  0.4956 -0.4286
28985W        W44879  14.103   7.489   0.669 -0.1328  0.0055  0.0047
28986W        W44880   6.929  11.193  15.118  0.3367 -0.1186  0.0136
28987W        W44881  12.472  18.216  14.789 -0.1017  0.3065  0.1690
28988W        W44882   3.491  17.345  12.317 -0.0939 -0.0077 -0.2811
28989W        W44883  14.033   2.051   2.262 -0.4021  0.1160 -0.3306
28990W        W44884  10.453  12.615   2.240  0.1857 -0.0692 -0.0520
28991W        W44885  13.856  13.076  11.308  0.1100  0.1703  0.1611
28992W        W44886   3.986  15.665  11.691  0.0849  0.1135  0.0396
28993W        W44887  13.068   1.191  13.126  0.0959 -0.0420 -0.0731
28994W        W44888  10.197  14.667  14.452  0.2017 -0.1320  0.0188
28995W        W44889  14.056  12.786  14.920 -0.1982  0.2310  0.1929
28996W        W44890  17.066  17.206  11.731  0.0069  0.2421 -0.0777
28997W        W44891   2.376   0.823  15.136  0.2699 -0.0241  0.0179
28998W        W44892  17.930   7.464   0.848  0.4095 -0.3396  0.0102
28999W        W44893   2.629  13.477  15.205  0.1469 -0.1183  0.2096
29000W        W44894  18.463  18.570  11.587  0.0503 -0.1968  0.1427
29001W        W44895  11.808  10.528   0.591 -0.0086  0.2810 -0.0768
29002W        W44896  16.083  10.356   4.515  0.3107 -0.1016 -0.0927
29003W        W44897  18.311   1.010  12.539 -0.2531  0.1179 -0.0305
29004W        W44898  17.185  11.732   1.688 -0.3009  0.0201  0.0022
29005W        W44899   2.409  17.698  15.047  0.1052  0.0989 -0.3773
29006W        W44900  14.564   9.649  13.601  0.0898 -0.4438 -0.1369
29007W        W44901  12.749  14.460  11.582 -0.0779  0.0128 -0.2184
29008W        W44902   6.130  16.600  12.483  0.0834 -0.3266  0.0696
29009W        W44903  17.268   2.739  12.953 -0.1004  0.0968  0.0500
29010W        W44904   2.731   4.870  13.738  0.2072 -0.2391 -0.0720
29011W        W44905   4.302   8.518   0.047  0.0370 -0.3777 -0.3826
29012W        W44906  15.243   2.710  12.070  0.3200  0.1590  0.1188
29013W        W44907   1.118   0.239   0.027  0.2356 -0.3975  0.0331
29014W        W44908  16.134  12.389   5.279 -0.2780  0.1624 -0.3004
29015W        W44909   3.995  13.185  12.744 -0.0629 -0.4053  0.0860
29016W        W44910  16.086   1.324  11.723 -0.0241 -0.0343  0.2874
29017W        W44911   9.536   0.672  14.000 -0.0743  0.0747  0.1499
29018W        W44912  12.878  10.360  11.149 -0.1406  0.4388 -0.1174
29019W        W44913   5.391  11.249  11.899  0.0018  0.0332 -0.0632
29020W        W44914  17.990   8.610   5.081 -0.2785  0.1100  0.0067
29021W        W44915  13.052  12.702   2.200 -0.1685  0.0746  0.1246
29022W        W44916   0.869  16.741  11.290  0.2035  0.3891 -0.1291
29023W        W44917  15.572  13.022  13.016 -0.0874  0.0464  0.0977
29024W        W44918  18.389   8.148  10.466  0.2482 -0.1153  0.0698
29025W        W44919   5.790   2.371   0.038  0.1440 -0.1228 -0.0093
29026W        W44920  10.640   3.206   0.315 -0.0663 -0.0367  0.1469
29027W        W44921   2.757  13.772  12.986  0.0438  0.2532 -0.2527
29028W        W44922   6.413   4.828  11.645 -0.2271 -0.1764 -0.0815
29029W        W44923  11.099  15.707  12.777  0.2691 -0.0496  0.2487
29030W        W44924  12.814   8.095  14.626  0.5117  0.4180 -0.2908
29031W        W44925  11.470  15.641   2.132 -0.1118 -0.0369 -0.1871
29032W        W44926   1.863   9.787   4.573  0.3380  0.0784 -0.4039
29033W        W44927   9.016   1.347   0.706  0.0023  0.3181  0.1205
29034W        W44928   4.347  17.766  11.117 -0.4655 -0.1074 -0.1183
29035W        W44929   5.197   9.537  15.426  0.2035  0.0793 -0.1788
29036W        W44930  13.453  11.344  15.310  0.0589 -0.0158  0.3293
29037W        W44931   1.242   6.288   1.291 -0.1403  0.0622 -0.1176
29038W        W44932   8.212  18.425   2.691  0.2891 -0.0251 -0.0644
29039W        W44933  15.330  18.475  11.118  0.0261 -0.2984  0.3063
29040W        W44934   8.786   9.015  11.689  0.1014  0.1277 -0.3388
29041W        W44935  14.403   7.583   3.827  0.3390  0.3997 -0.1690
29042W        W44936  12.623  16.683   0.193 -0.0264 -0.1261  0.2676
29043W        W44937   9.144  16.904  11.184  0.0575  0.2662  0.1052
29044W        W44938  13.687   9.972  11.769 -0.1043  0.0607  0.2454
29045W        W44939   8.930   4.317   1.182 -0.1559  0.0602  0.1638
29046W        W44940   2.171  14.618   4.956  0.2846 -0.0187  0.1127
29047W        W44941   7.525  17.079  10.998  0.2851  0.4451 -0.1180
29048W        W44942   1.125  16.890   5.201 -0.1278  0.0292 -0.1051
29049W        W44943  16.313   0.187   4.557 -0.0144 -0.1494 -0.3824
29050W        W44944   4.854   9.110   1.204 -0.1464 -0.1831 -0.2526
29051W        W44945  18.502  16.856   1.288 -0.1137 -0.0365  0.2943
29052W        W44946   9.534  12.258   1.039  0.0552  0.2748  0.4213
29053W        W44947   8.832   9.526  10.661  0.1203  0.2292  0.0882
29054W        W44948  11.646  14.934   4.846 -0.0092  0.1989 -0.2456
29055W        W44949  18.723   0.439   2.285  0.1093  0.2172  0.2664
29056W        W44950   0.165  10.408   5.289 -0.1993  0.1701  0.0864
29057W        W44951  13.311  13.374   4.880  0.0340 -0.0723 -0.0916
29058W        W44952   7.694   4.004  13.287 -0.0469  0.0767 -0.0383
29059W        W44953   3.804   8.236   2.640 -0.4074  0.1009 -0.2627
29060W        W44954  14.416   4.074   2.527 -0.2142  0.2134  0.0253
29061W        W44955  11.300  17.926   5.483  0.1005 -0.2458 -0.1263
29062W        W44956  11.613  17.177  13.877  0.0346  0.0562  0.2536
29063W        W44957   1.130  10.742  13.075  0.0115  0.0578  0.2190
29064W        W44958   6.393   4.518   3.503 -0.0600  0.2343 -0.0942
29065W        W44959   6.191   8.692  12.464  0.2955 -0.2281 -0.1328
29066W        W44960   3.251  12.374  11.198  0.0665  0.3308 -0.2637
29067W        W44961   4.936   5.900  12.158  0.0152  0.1084  0.1539
29068W        W44962   7.553  11.111  11.588 -0.1398  0.0518  0.1154
29069W        W44963   8.817   9.369  14.030 -0.2036 -0.1915  0.1639
29070W        W44964   3.093  18.639  12.820 -0.3457  0.0093  0.3577
29071W        W44965  11.603   5.568   1.233 -0.1049 -0.1399  0.0445
29072W        W44966  17.814  18.280   4.645 -0.2248  0.2629  0.1896
29073W        W44967   6.585   1.099   0.675  0.0255  0.1332  0.3598
29074W        W44968   7.341   0.740  10.893 -0.1938  0.0112  0.0221
29075W        W44969  18.702   0.983  12.182  0.3379 -0.2132 -0.3675
29076W        W44970   3.963  16.266   2.516 -0.0136  0.0547  0.3367
29077W        W44971   6.750   5.243  10.685  0.1374 -0.0314 -0.1020
29078W        W44972  18.481   2.200  14.864  0.2919 -0.0001  0.1705
29079W        W44973   0.388  17.781  13.340 -0.2273  0.1800  0.5069
29080W        W44974   8.749   6.457   1.837  0.2465 -0.0453  0.0732
29081W        W44975   7.059   1.435  14.824  0.0817 -0.1249 -0.2811
29082W        W44976   9.370   9.116   4.303  0.0208  0.0703 -0.0170
29083W        W44977  18.229   5.033  12.237  0.2765 -0.2673  0.0823
29084W        W44978  14.341   8.571  12.712  0.2427 -0.3249 -0.5477
29085W        W44979  16.676  18.506   0.580 -0.0972  0.0522 -0.0659
29086W        W44980  16.865  11.843   9.816  0.0472  0.1019 -0.1981
29087W        W44981  11.441   9.952  14.668  0.4133  0.1496  0.1598
29088W        W44982   1.494  17.716  12.020  0.0326 -0.0944  0.0778
29089W        W44983   9.203   9.280  11.459 -0.0638 -0.0251 -0.2261
29090W        W44984   3.373   9.018   2.328 -0.0063  0.2051  0.3780
29091W        W44985   1.194  15.484   4.475 -0.2253 -0.1388  0.3083
29092W        W44986  15.152  17.692  15.480  0.1566 -0.2093  0.0950
29093W        W44987  15.462  16.985  14.258 -0.0630 -0.3712  0.1127
29094W        W44988   5.371   6.388  13.637 -0.0226  0.0932 -0.0395
29095W        W44989   4.167  15.909  12.434  0.0812  0.0880  0.4296
29096W        W44990  13.345  17.322   2.859 -0.0937 -0.1674 -0.0212
29097W        W44991  15.047  13.118   5.253  0.4360  0.0401 -0.0782
29098W        W44992  10.798   3.191   4.055 -0.0255  0.1653  0.0228
29099W        W44993   3.459   3.916   5.372 -0.1232 -0.0679 -0.0798
29100W        W44994   4.588  14.815   0.457 -0.1793 -0.1478  0.2990
29101W        W44995  10.195   8.409  12.254  0.3989  0.1482 -0.2278
29102W        W44996  18.880  16.941   4.594  0.0785 -0.0446 -0.1573
29103W        W44997  16.508   2.523   5.820 -0.0438 -0.1165 -0.0065
29104W        W44998   4.488  18.601  15.161 -0.0987 -0.1514  0.2042
29105W        W44999  10.670   1.407  14.469 -0.2119 -0.2420 -0.0309
29106W        W45000   6.189  10.611  11.752  0.1546  0.2566 -0.0320
29107W        W45001   5.614   0.327   5.756  0.1536  0.2031 -0.0473
29108W        W45002  14.035   8.137  13.891  0.1830  0.0069  0.0195
29109W        W45003  15.641  18.783  14.625 -0.0349 -0.0644  0.1420
29110W        W45004  17.218   1.898  13.372 -0.0121  0.0763 -0.2001
29111W        W45005  11.019   9.747   0.789 -0.1824  0.1013 -0.2904
29112W        W45006  16.930  13.662  15.447  0.1989 -0.0017  0.2142
29113W        W45007   3.564   5.241   3.889  0.1679  0.4554  0.3773
29114W        W45008   9.539   0.692  11.149 -0.0692  0.0627  0.1097
29115W        W45009  11.686  15.433  14.886  0.2163  0.0395  0.0542
29116W        W45010  17.632   1.943  11.504 -0.5790  0.0337  0.3502
29117W        W45011   0.239   0.729  11.866 -0.2517 -0.0444  0.1424
29118W        W45012   6.464  15.289   5.855 -0.0882  0.0392 -0.3964
29119W        W45013   4.764   4.353   5.083  0.5903  0.0190  0.2581
29120W        W45014  17.334   9.578   2.984  0.2085  0.0194  0.1696
29121W        W45015   3.546  14.307  14.191  0.4221  0.0074  0.1859
29122W        W45016   8.718   4.241   2.623  0.1721 -0.2525 -0.2056
29123W        W45017   9.508  15.203   5.459 -0.0620  0.2763  0.4823
29124W        W45018  18.730   3.152   1.576  0.0639 -0.0065  0.1670
29125W        W45019  11.213   9.380   5.210  0.0761  0.2952  0.0688
29126W        W45020   7.498   7.084  14.478 -0.1205 -0.0687 -0.1239
29127W        W45021   7.104  11.237   2.120  0.0727  0.0611 -0.0430
29128W        W45022   7.295   4.200   3.122 -0.1403  0.0612 -0.1002
29129W        W45023  18.651  10.301  11.089 -0.0848 -0.2088 -0.0171
29130W        W45024  16.015   1.764   4.287 -0.3066 -0.0724 -0.2145
29131W        W45025  15.342  14.797  12.095 -0.2061 -0.0352 -0.1605
29132W        W45026  12.874   4.507  14.187 -0.1353  0.0613  0.3287
29133W        W45027   4.983  18.469  15.117 -0.1505  0.0917 -0.0669
29134W        W45028   5.243  11.465   0.944 -0.0488  0.1175 -0.0808
29135W        W45029   3.713  17.823  14.652  0.0856  0.0485  0.2898
29136W        W45030  11.422  16.661   3.812  0.0413 -0.1163 -0.0897
29137W        W45031  11.177   7.586  10.880  0.1635  0.0618  0.0659
29138W        W45032  13.854   8.780  11.128 -0.4825 -0.0386  0.1964
29139W        W45033  14.634   8.923  14.996 -0.2230  0.0494 -0.1895
29140W        W45034   6.367  14.396  15.245  0.3109  0.1082  0.2548
29141W        W45035  17.546  17.412   4.316 -0.1910 -0.2265  0.3655
29142W        W45036  13.401  16.868  13.487 -0.1508  0.1874 -0.3904
29143W        W45037   3.832   6.630   3.666 -0.0733 -0.0441 -0.0683
29144W        W45038  10.186   6.382   2.261  0.3106 -0.1409 -0.1349
29145W        W45039  12.240  18.756  11.542 -0.0514 -0.0877  0.1460
29146W        W45040   5.313   1.633  13.773  0.2506  0.1974  0.2749
29147W        W45041   1.601  18.731  10.553 -0.4410 -0.0052  0.2506
29148W        W45042  13.349   3.581  11.905 -0.0041  0.0099  0.1130
29149W        W45043  15.394  15.322   1.473 -0.1464 -0.0100  0.3540
29150W        W45044  16.527   2.669   5.183  0.1975  0.1544 -0.0169
29151W        W45045   1.267   9.328   3.079 -0.0179  0.0107  0.2033
29152W        W45046  18.571   5.103  14.963 -0.0557  0.0686  0.0638
29153W        W45047   3.723   4.621   0.089  0.0775  0.1690  0.1371
29154W        W45048  11.658   7.238   0.390 -0.1123 -0.1158 -0.0960
29155W        W45049  13.220  10.454   5.421  0.0829  0.2583 -0.1564
29156W        W45050  10.240  15.742   5.599 -0.1472  0.2017  0.4882
29157W        W45051   4.483   6.037   1.108 -0.3364 -0.1583 -0.0730
29158W        W45052   7.295  18.133   0.926  0.1741 -0.3390 -0.4173
29159W        W45053  10.788  10.942  13.504 -0.1497 -0.4028 -0.0106
29160W        W45054   2.179  12.896  15.098 -0.1070  0.2652 -0.3815
29161W        W45055   8.446   4.431  13.408  0.1420  0.0914  0.1363
29162W        W45056  11.732   3.335  11.488 -0.1030 -0.0362 -0.0148
29163W        W45057   0.126   0.469  14.715 -0.1046  0.2650  0.1167
29164W        W45058  17.149   7.953  15.062  0.5392 -0.0968  0.0891
29165W        W45059   9.413  11.897  12.776  0.0014 -0.1469 -0.3479
29166W        W45060   1.653  11.461  14.768  0.1801 -0.0682  0.3304
29167W        W45061   0.480  12.177  11.908  0.0550  0.1431  0.0457
29168W        W45062  15.517   0.568  10.976 -0.1118  0.3366  0.0005
29169W        W45063   9.702   6.819   1.555  0.2653 -0.0198  0.5619
29170W        W45064   4.630  18.328   3.372 -0.0966 -0.0551 -0.0439
29171W        W45065   8.863  15.820  12.937  0.2628 -0.0731 -0.2848
29172W        W45066   2.296   3.547  14.068  0.2201 -0.0112  0.0657
29173W        W45067  16.921   9.369   2.959  0.0155 -0.0251 -0.3662
29174W        W45068  11.417  16.549   1.876 -0.0317  0.1178 -0.0198
29175W        W45069  17.509   2.414   2.743  0.0282  0.2292  0.0206
29176W        W45070   0.462  15.720  14.957  0.0884  0.0334 -0.0866
29177W        W45071   2.874  15.331  12.921 -0.0444  0.0389 -0.3248
29178W        W45072  16.880   4.913  10.656  0.1713  0.1784 -0.0891
29179W        W45073  10.784  11.250  14.319 -0.1882 -0.0769  0.1983
29180W        W45074   2.137   6.947  14.174  0.2882 -0.1710 -0.0538
29181W        W45075  16.244   8.632   4.722 -0.0062  0.0970  0.2931
29182W        W45076  16.262   0.256   2.480  0.1231 -0.0075  0.1679
29183W        W45077  17.891  17.104   4.072 -0.1423 -0.0978  0.1009
29184W        W45078  10.204  13.805   0.657  0.3377  0.0156  0.0673
29185W        W45079  15.881  14.399  11.514 -0.0654  0.0093  0.0087
29186W        W45080   9.898   9.395  14.092  0.2359 -0.2200 -0.1327
29187W        W45081   4.731   1.221  11.854  0.0347 -0.0889 -0.1349
29188W        W45082   3.611   9.824  11.871  0.0856 -0.2803 -0.2382
29189W        W45083  12.028   9.172   1.982 -0.1917 -0.0839  0.1688
29190W        W45084   4.464   9.615   1.183  0.0978  0.0345 -0.0602
29191W        W45085   8.569  16.504  13.804 -0.1336 -0.3021 -0.0867
29192W        W45086   8.567  16.619  10.603  0.1871  0.1130 -0.4166
29193W        W45087  14.294  12.542  12.995 -0.2055  0.1823 -0.0626
29194W        W45088   2.382  18.009   4.871 -0.1084 -0.3891 -0.0189
29195W        W45089  13.248  14.483  11.247 -0.0696 -0.0006 -0.0598
29196W        W45090   5.183  13.888  10.948  0.4316  0.3113  0.2633
29197W        W45091  10.004   4.254  12.380 -0.0648 -0.0486  0.0330
29198W        W45092  17.591   3.781   2.968  0.0295 -0.0246  0.1792
29199W        W45093   8.647   5.388   4.753 -0.0110  0.2468  0.0421
29200W        W45094   1.641   5.009  12.768  0.2404 -0.0061 -0.4320
29201W        W45095  11.417  12.271  10.977  0.0700 -0.3309  0.0623
29202W        W45096  14.990   6.418   0.261 -0.2510  0.0721 -0.3082
29203W        W45097  16.848   5.615  10.826  0.2214 -0.3733 -0.0580
29204W        W45098   7.329   1.471   2.706 -0.2046 -0.1255  0.1974
29205W        W45099   9.726  11.642   3.314  0.1010 -0.1319 -0.2123
29206W        W45100  16.869   1.855  14.582  0.4375 -0.0806  0.2509
29207W        W45101   4.734   4.952  11.471  0.4959 -0.0535  0.0024
29208W        W45102   3.651   8.562   4.380 -0.0374 -0.2070 -0.0008
29209W        W45103   6.409   5.790  15.049 -0.0216 -0.1172  0.0232
29210W        W45104   5.909   9.784   5.286  0.1668  0.1197  0.1636
29211W        W45105   7.260  13.003  12.435  0.0248  0.1156 -0.0752
29212W        W45106   9.098   7.733   0.888 -0.0964  0.2081  0.2344
29213W        W45107  18.683   1.503   3.843 -0.0592  0.1001 -0.3995
29214W        W45108  16.708   6.252  13.399  0.3151 -0.3910  0.0291
29215W        W45109   7.474   6.940   3.803  0.2261 -0.1620  0.1068
29216W        W45110  14.243   3.975  10.722 -0.2186 -0.2902 -0.0717
29217W        W45111   2.236  10.266  12.066 -0.2228  0.0069 -0.0958
29218W        W45112   5.515   2.271  14.601  0.1970 -0.3552 -0.2130
29219W        W45113   6.104   2.206   3.903  0.0388  0.1805  0.1510
29220W        W45114  17.180  14.743  11.225 -0.2571  0.0251 -0.0118
29221W        W45115  17.338   1.404   1.246 -0.0174  0.0966 -0.3532
29222W        W45116  13.662  10.352   3.738 -0.1756 -0.3532 -0.3793
29223W        W45117  16.923   5.055  12.081 -0.1581 -0.1202 -0.1011
29224W        W45118  11.187  18.721  13.972 -0.2297 -0.4388  0.2751
29225W        W45119  16.328   5.966  14.693  0.0541  0.0438  0.3013
29226W        W45120  11.109  17.072   0.602 -0.2616 -0.0323 -0.0148
29227W        W45121   8.290  13.340   2.293 -0.0926  0.1376 -0.1981
29228W        W45122   1.693   0.615   0.031 -0.0335  0.0711 -0.0733
29229W        W45123  17.169   0.244   1.509 -0.0097 -0.0079 -0.2551
29230W        W45124  10.982  15.000   5.210 -0.1865  0.1260 -0.2078
29231W        W45125  12.481   6.003  11.570  0.0377 -0.1373  0.2054
29232W        W45126   2.609   2.986   0.995 -0.0930 -0.2987  0.0120
29233W        W45127   2.280  15.438  13.497  0.1337 -0.0725  0.0800
29234W        W45128  14.752   9.367  14.769 -0.1304 -0.1836  0.0376
29235W        W45129   2.191  14.723  14.755 -0.0522  0.1216  0.0908
29236W        W45130  10.088  18.130   3.658 -0.1010 -0.2852 -0.0678
29237W        W45131  17.936   8.304   3.818  0.0121 -0.2938 -0.1986
29238W        W45132  11.820   2.023  13.517  0.0297 -0.0527 -0.0954
29239W        W45133  10.262   5.739   2.793  0.0491 -0.0432 -0.5177
29240W        W45134  16.201   0.015  13.774  0.1592  0.2447  0.0169
29241W        W45135  15.414   0.626  14.580  0.1992 -0.0401  0.2570
29242W        W45136   7.165  10.786  12.660 -0.0436  0.2888  0.1956
29243W        W45137   0.014  11.536  13.147 -0.0520  0.0820 -0.2977
29244W        W45138   9.678   9.678   2.328 -0.1092  0.2568  0.2570
29245W        W45139  13.120   4.149  13.902  0.1038 -0.0869 -0.0442
29246W        W45140  15.115  17.350   2.294  0.1176 -0.1411 -0.2088
29247W        W45141   8.487  18.201   0.501  0.2088  0.1565  0.1512
29248W        W45142   2.958   2.489   5.414  0.0991 -0.0328 -0.0885
29249W        W45143   2.370  11.058  10.523 -0.0295  0.1784  0.0158
29250W        W45144   4.296  10.489   2.160  0.1234  0.3631 -0.0239
29251W        W45145  11.024  16.636  15.425  0.0915 -0.0887  0.1418
29252W        W45146  18.412   6.275   2.142 -0.0234  0.1700 -0.0796
29253W        W45147   5.773   6.400  15.482  0.1919  0.1448  0.3501
29254W        W45148  14.974  18.809   3.645 -0.0029 -0.2230 -0.2980
29255W        W45149   2.113   5.492  11.491 -0.0630  0.2433  0.0586
29256W        W45150   2.444  11.582  11.843  0.1197  0.0194 -0.2768
29257W        W45151  16.626   3.543  13.180  0.0059 -0.0211 -0.2389
29258W        W45152   4.575  14.263   1.646 -0.0139 -0.1288 -0.0529
29259W        W45153  14.392  12.473   0.972  0.0351  0.5426  0.5145
29260W        W45154  18.084   0.996   3.568 -0.0230  0.1091 -0.1753
29261W        W45155  15.783  15.466  11.925 -0.0370 -0.2681  0.1458
29262W        W45156   1.695  14.974  13.959 -0.1627 -0.1179  0.0852
29263W        W45157  15.739  15.648  13.507 -0.5115 -0.0595  0.0607
29264W        W45158   9.470   6.219  14.512 -0.1546 -0.0742 -0.3378
29265W        W45159  12.463  16.927  15.269 -0.1601 -0.0731  0.3463
29266W        W45160  18.529   1.645  11.397 -0.0433  0.1589  0.1412
29267W        W45161   0.498   4.204  13.086 -0.0777 -0.1065  0.3335
29268W        W45162  13.483   7.768   5.497  0.1912  0.1253 -0.1432
29269W        W45163  16.923   6.000   2.879 -0.1184 -0.0599  0.2089
29270W        W45164  11.541  15.244  10.999  0.3032  0.2217 -0.3094
29271W        W45165  11.372  10.337  11.890 -0.1092  0.0160  0.3360
29272W        W45166   3.762  14.161   4.576 -0.0217 -0.0204 -0.0380
29273W        W45167   6.166  15.725  11.075 -0.2395  0.0883 -0.1370
29274W        W45168   1.155  11.545   4.213  0.0099  0.0155 -0.2562
29275W        W45169   7.126   2.014   5.241 -0.2679 -0.0243 -0.0156
29276W        W45170   4.778   5.715   0.227 -0.2854 -0.1172  0.2733
29277W        W45171   1.953  14.776  15.218 -0.0210 -0.2790 -0.0609
29278W        W45172   9.399   9.856  12.329 -0.1251  0.0144 -0.1281
29279W        W45173   3.738   0.081  11.984 -0.2347  0.0160  0.0249
29280W        W45174  13.605  17.006   4.500  0.0020 -0.1063 -0.0965
29281W        W45175  18.552   5.780   2.426  0.3108 -0.2500 -0.0314
29282W        W45176   8.942  14.026  14.998 -0.1178 -0.0891 -0.4241
29283W        W45177   5.243   3.853   0.983 -0.2045 -0.1092  0.0422
29284W        W45178  18.407   3.086  13.203  0.0451  0.0896  0.0392
29285W        W45179  13.311  13.555   2.564 -0.3240  0.0724 -0.0311
29286W        W45180  14.959  17.096   1.477  0.2026 -0.1273  0.2222
29287W        W45181  15.406  14.589   2.053 -0.4785 -0.2985  0.0925
29288W        W45182   5.501   8.188  13.520  0.0378  0.2913  0.3726
29289W        W45183   3.000   0.409   2.416 -0.0914  0.1486  0.0835
29290W        W45184  17.823  17.856   0.386  0.0184  0.2518  0.1884
29291W        W45185   4.597   0.381  11.516  0.0363 -0.2117 -0.0490
29292W        W45186   3.074  17.252   2.407  0.3697 -0.0695 -0.3591
29293W        W45187   1.454  15.815   4.737 -0.2190  0.1040 -0.0553
29294W        W45188   2.421  13.971  10.835 -0.0143  0.1666 -0.1522
29295W        W45189   8.216   6.800   1.913  0.0848 -0.0503  0.0845
29296W        W45190   2.214  16.918  12.962 -0.1501 -0.2443  0.1380
29297W        W45191   2.442   7.157  10.972  0.0719  0.2144  0.0403
29298W        W45192  11.264  18.228  13.781 -0.1235 -0.1764 -0.1237
29299W        W45193  14.982  10.441   0.096 -0.2058  0.0444  0.0898
29300W        W45194   7.501  11.698  14.140 -0.0466 -0.0070 -0.1155
29301W        W45195  10.035  13.241   2.947  0.1170 -0.0238  0.1004
29302W        W45196  17.253   1.952   4.821  0.1199  0.4346 -0.0007
29303W        W45197   2.440   7.619   2.467  0.2542 -0.1630 -0.0535
29304W        W45198   7.128   7.292  13.404 -0.1934 -0.0799  0.0947
29305W        W45199  16.462   6.971  13.312 -0.0676  0.2364 -0.2896
29306W        W45200   9.037  16.694   5.182  0.0588 -0.1741  0.1779
29307W        W45201   0.337  14.763   1.296 -0.1786 -0.3311  0.1878
29308W        W45202   6.986   2.453   2.401  0.2062 -0.3040 -0.3554
29309W        W45203  10.893   7.981  10.218  0.1537 -0.1485 -0.0492
29310W        W45204  17.935   9.104   5.021  0.3396  0.0580  0.0020
29311W        W45205   8.710  10.269   1.352 -0.0274 -0.0263  0.1272
29312W        W45206  13.864   4.917   0.526  0.0443 -0.0686 -0.0703
29313W        W45207   8.813   2.671  15.125  0.3178 -0.1636 -0.1230
29314W        W45208  11.370   5.514   3.409 -0.0616  0.2066 -0.3741
29315W        W45209   7.354   3.986   4.913 -0.0926 -0.0995  0.3338
29316W        W45210   9.070   6.158  15.066 -0.0958 -0.1546 -0.4015
29317W        W45211   1.679  16.053  11.414  0.3550  0.2768 -0.0604
29318W        W45212  12.428   4.385   2.090 -0.4262  0.0537  0.2990
29319W        W45213   7.842  15.885  13.349 -0.2416  0.1702 -0.1087
29320W        W45214   5.334  14.028  12.086 -0.1748  0.3898  0.0785
29321W        W45215  18.014  16.211   1.337 -0.4987 -0.1623  0.1373
29322W        W45216   6.328  13.615   1.121  0.0346 -0.0250 -0.1947
29323W        W45217   7.694   6.833   0.298  0.1561 -0.0374  0.1265
29324W        W45218  16.789  14.943   0.118 -0.3358  0.1942 -0.0323
29325W        W45219   7.622   4.100   4.471 -0.2928  0.1715  0.0043
29326W        W45220  16.745  12.755  10.715 -0.1411 -0.0469  0.0517
29327W        W45221  18.716  14.466   2.027  0.1670 -0.0135 -0.0248
29328W        W45222   8.903  15.714  13.954 -0.0658  0.1070 -0.0211
29329W        W45223   2.429   4.261   1.103 -0.3659  0.1658  0.0462
29330W        W45224  16.626  18.877   2.662  0.3189  0.1238  0.2728
29331W        W45225   2.287  17.214  12.136  0.0316  0.0767  0.1396
29332W        W45226   8.959   4.461   2.951 -0.0561  0.4390  0.0173
29333W        W45227   2.777   5.957   3.843 -0.2468 -0.0748  0.0773
29334W        W45228  12.631   2.597   9.511  0.0080  0.0452 -0.0889
29335W        W45229   0.907   4.926   3.506 -0.1629 -0.2628  0.0728
29336W        W45230  17.997  16.129   3.831 -0.3946 -0.1401 -0.2894
29337W        W45231   7.357   4.937  12.743 -0.4743 -0.0568  0.1069
29338W        W45232   6.185  18.718   4.660  0.1604 -0.1482  0.0016
29339W        W45233   4.929   2.328   0.275  0.2328 -0.2334  0.0488
29340W        W45234   4.811  11.451  15.154 -0.2585  0.1195  0.1802
29341W        W45235  13.903   2.908   4.819 -0.1956  0.0614 -0.0076
29342W        W45236  15.942  14.292   2.558 -0.0754  0.0822  0.0329
29343W        W45237  17.211  10.997  12.747 -0.1120  0.1232  0.1850
29344W        W45238   7.277   4.658  13.194 -0.0600 -0.1861 -0.2667
29345W        W45239   6.413   8.025  13.650 -0.5046 -0.1702  0.0141
29346W        W45240   2.421   7.532  13.438  0.0735 -0.0818  0.1316
29347W        W45241  14.915   4.711  11.954 -0.1441  0.3239 -0.0470
29348W        W45242   4.250  11.621   3.306  0.0450 -0.4531  0.1491
29349W        W45243   1.376  11.779   2.506  0.1789  0.1441 -0.2402
29350W        W45244  15.396   0.878  12.013 -0.1199 -0.0581 -0.4136
29351W        W45245  16.743  10.528  14.615 -0.0076 -0.2153 -0.0302
29352W        W45246   6.073  17.217   5.156  0.3094 -0.1985 -0.1180
29353W        W45247  15.203  16.733  15.071 -0.0981  0.0672 -0.1154
29354W        W45248   5.667  18.813   3.680 -0.4194  0.0292  0.5269
29355W        W45249  15.763  14.476   0.418  0.0085 -0.3496  0.1712
29356W        W45250   9.715  16.982   3.506  0.0504  0.2162  0.1765
29357W        W45251   0.656   8.171  11.997  0.0875 -0.2314  0.1663
29358W        W45252  13.996   6.548  14.265  0.1822  0.5864  0.0555
29359W        W45253  11.999   1.601  13.606  0.0776  0.2272 -0.0938
29360W        W45254  15.838   4.743   0.025 -0.0740 -0.1808 -0.0590
29361W        W45255   4.714  16.844  14.748  0.1815  0.0315 -0.1919
29362W        W45256   9.316  18.821   1.489  0.2010 -0.0410 -0.0469
29363W        W45257   0.661   5.188  13.342 -0.2713  0.4130 -0.0868
29364W        W45258  11.895   2.417   2.957 -0.0881  0.0263  0.0348
29365W        W45259   4.937   5.079   4.369 -0.1006 -0.2354  0.2423
29366W        W45260  12.259   4.341  15.408 -0.2267  0.0020 -0.1774
29367W        W45261  17.049   7.724  14.220  0.0820 -0.1924  0.0081
29368W        W45262   9.300   6.837  12.765 -0.0594  0.1103 -0.3069
29369W        W45263   6.661   4.794   0.305  0.1942 -0.1609 -0.0977
29370W        W45264   8.671   9.940  11.418  0.0603  0.0011  0.3974
29371W        W45265   1.571   7.994  12.009 -0.1100  0.1545  0.1141
29372W        W45266   1.527   8.116   4.501  0.3356  0.0094  0.3004
29373W        W45267   4.074  15.320   4.960 -0.1422 -0.2452 -0.0037
29374W        W45268   1.347  14.510  12.735 -0.3091 -0.1765 -0.1207
29375W        W45269   1.501   6.371  14.280  0.0868 -0.1936 -0.1945
29376W        W45270   9.511  13.592   0.170 -0.1218 -0.2218 -0.3429
29377W        W45271  14.242   6.398  13.256 -0.0384  0.0665 -0.1738
29378W        W45272   0.393   9.242   9.740  0.0810  0.2645 -0.0244
29379W        W45273   7.812   6.554   1.147 -0.3454 -0.3535  0.0017
29380W        W45274  16.745   6.582  11.869  0.1810 -0.3673 -0.0317
29381W        W45275   5.235  16.992   0.817 -0.1884  0.2139  0.3760
29382W        W45276  10.796  11.498   4.622  0.0365  0.2529  0.0796
29383W        W45277   8.633   6.948   1.628  0.0976  0.0622  0.2697
29384W        W45278  14.794   6.545  14.780  0.2100 -0.2108 -0.0381
29385W        W45279   7.044   1.785   0.010  0.3933 -0.0936  0.2293
29386W        W45280   0.656   7.089  13.538 -0.2083 -0.0658 -0.1097
29387W        W45281  14.886   2.333   1.791  0.2009 -0.1870 -0.1397
29388W        W45282   0.574   0.503   2.349 -0.0631 -0.1367 -0.4220
29389W        W45283  15.912   3.670  11.703 -0.0441 -0.0407 -0.2696
29390W        W45284  14.627   7.285   1.115 -0.2746  0.1930  0.0462
29391W        W45285   9.997   9.151  12.735  0.1292  0.4051  0.0168
29392W        W45286  12.151   5.112  13.168 -0.0641  0.1004  0.3969
29393W        W45287  14.276   3.164  14.502 -0.0863  0.0319 -0.2177
29394W        W45288  18.689   4.165   5.521 -0.3188 -0.1866  0.3561
29395W        W45289  14.156  10.712   1.916  0.6492 -0.2319  0.1505
29396W        W45290   6.803   4.651  12.058  0.1600 -0.0096  0.0696
29397W        W45291  10.260   9.578   5.019 -0.1491 -0.1114 -0.0783
29398W        W45292  12.953  16.869   5.506 -0.1073  0.0623  0.1623
29399W        W45293  12.481  11.765  11.435  0.2768  0.0547 -0.4587
29400W        W45294   3.157   5.462   2.985 -0.0424 -0.0328  0.1103
29401W        W45295  13.624   6.187   4.293 -0.1688 -0.1479  0.3332
29402W        W45296   7.869   7.379  14.797  0.4127  0.2959  0.0858
29403W        W45297  14.798   5.678   3.131  0.0059  0.0419 -0.1067
29404W        W45298  10.463  13.066  13.984 -0.1051 -0.2233  0.0038
29405W        W45299  15.966  18.741  12.187 -0.0582 -0.0221 -0.0101
29406W        W45300   4.063  15.615  13.694  0.1103 -0.3637 -0.0604
29407W        W45301   4.402   5.597   4.911 -0.1293 -0.1524 -0.2468
29408W        W45302  18.565   0.592  11.177  0.2004  0.1305 -0.1505
29409W        W45303  17.638  17.219   3.612 -0.0386 -0.2526  0.0486
29410W        W45304   0.919  17.845  12.727 -0.2419  0.1111 -0.3261
29411W        W45305  16.853   0.298  14.821  0.0547  0.2465  0.0279
29412W        W45306  14.028   3.605  15.102 -0.0122 -0.0010 -0.1951
29413W        W45307  11.960   8.090   4.034 -0.2840 -0.2953 -0.1898
29414W        W45308   3.412  14.934   2.626  0.1189 -0.2890  0.0971
29415W        W45309  16.961   3.861   3.378  0.0847  0.1062  0.0015
29416W        W45310   8.050  12.675   3.017  0.1455  0.0859  0.1564
29417W        W45311   9.000  10.648  13.839 -0.2909  0.3852  0.1601
29418W        W45312   3.517   3.332  15.214 -0.1517 -0.2243 -0.1270
29419W        W45313  18.340  12.724  10.292  0.1238 -0.1028  0.0297
29420W        W45314  12.534   4.680   3.467  0.1082 -0.0572  0.0368
29421W        W45315  11.888   8.369  13.836  0.1091  0.1494  0.2343
29422W        W45316   4.188   1.425   1.962  0.1761 -0.1277 -0.0957
29423W        W45317   5.555  13.081   0.416  0.0871  0.1483 -0.1100
29424W        W45318   0.192   0.095  15.030  0.1317  0.2102  0.0838
29425W        W45319   0.623  12.396  14.151 -0.1447 -0.2267  0.0734
29426W        W45320   7.381  12.412  13.121  0.1181 -0.1308  0.1007
29427W        W45321  16.167  16.455   4.878 -0.1905 -0.2609  0.0610
29428W        W45322   7.246   0.810  11.516 -0.2592 -0.3610  0.3303
29429W        W45323   7.380  11.443   5.571 -0.0699 -0.3285  0.4547
29430W        W45324   1.310   8.752  11.794  0.0343  0.0148  0.4138
29431W        W45325   2.288   0.472   5.131  0.1752  0.3665 -0.2557
29432W        W45326  11.798   9.495  14.536 -0.1132  0.1878 -0.1154
29433W        W45327   7.826  17.626  12.252  0.1774  0.2640  0.0500
29434W        W45328  14.186  10.641   0.633  0.1207 -0.1439 -0.1228
29435W        W45329   4.328   4.481   3.962  0.1775  0.1677 -0.1699
29436W        W45330   7.096   0.430  11.194 -0.0944  0.2478  0.0134
29437W        W45331  15.379  11.247   1.306  0.0862  0.3685  0.3698
29438W        W45332   7.193   0.975  15.470 -0.1293 -0.0231  0.3607
29439W        W45333   4.655   2.109   1.068  0.0691 -0.0035 -0.3348
29440W        W45334  17.178  13.760  12.350 -0.0526  0.1898 -0.1857
29441W        W45335  16.480   3.955  13.826 -0.0317  0.0886  0.1083
29442W        W45336  11.760   0.209   5.038 -0.0670 -0.1269 -0.0050
29443W        W45337  18.597   5.731  13.495  0.2561 -0.1462  0.2396
29444W        W45338  17.081  13.960  13.516 -0.0485  0.0925  0.3808
29445W        W45339  15.365  16.814   4.035 -0.1032 -0.0253 -0.2659
29446W        W45340   2.343  16.919  13.836 -0.0125 -0.4272 -0.0271
29447W        W45341   3.266  11.274  13.740  0.0946  0.2258 -0.0223
29448W        W45342   1.605   2.769   5.458  0.0709  0.0033 -0.0760
29449W        W45343  16.047   1.339   2.882 -0.2463 -0.0761  0.0183
29450W        W45344  17.670  10.632  13.996  0.0662  0.5160  0.1763
29451W        W45345  16.517   0.853  15.003  0.2188 -0.2042 -0.1866
29452W        W45346   5.602   3.170  14.669 -0.1452  0.0528  0.0490
29453W        W45347   9.628   2.691  12.886  0.0089 -0.2820 -0.2013
29454W        W45348  18.160  17.797  11.820 -0.0769  0.0607 -0.0911
29455W        W45349   0.743  14.496  11.348 -0.0346 -0.0107 -0.1301
29456W        W45350  14.102   5.182  12.545 -0.2702 -0.2623  0.2960
29457W        W45351  14.703  17.799   2.937 -0.0264  0.0617 -0.3066
29458W        W45352   3.285  15.345   4.068 -0.0004  0.1081 -0.1634
29459W        W45353  12.735   1.223   5.070  0.1285  0.2321  0.1592
29460W        W45354   8.527  18.185   3.499  0.0932 -0.0123  0.4753
29461W        W45355   4.168  11.414   5.529  0.2253 -0.2405 -0.0923
29462W        W45356  13.539   6.902  11.183 -0.2338  0.1425  0.0486
29463W        W45357  13.113  16.206  13.437 -0.2344  0.0826 -0.1142
29464W        W45358  14.857  15.218  11.123  0.1145  0.1214 -0.0944
29465W        W45359   5.847   4.763   0.649 -0.1996  0.2136 -0.1286
29466W        W45360   0.151   7.647   4.255  0.0701 -0.1733  0.0298
29467W        W45361  17.570   6.396  13.473 -0.0049 -0.1153  0.1258
29468W        W45362  12.957   2.928  10.744  0.1544  0.0106  0.1794
29469W        W45363   7.767   5.904   3.757  0.1111  0.0265  0.0832
29470W        W45364  12.194  15.438   4.240  0.0746  0.2091  0.0263
29471W        W45365   4.979   8.008  12.002 -0.1276 -0.1240  0.1615
29472W        W45366   4.452  18.248  14.832  0.0183  0.3660  0.0395
29473W        W45367   0.514  10.601   0.869  0.4240 -0.1122 -0.1939
29474W        W45368  18.151  13.720  11.742  0.0907 -0.0797 -0.0484
29475W        W45369  13.152   2.869  12.527 -0.0944 -0.1275  0.2129
29476W        W45370  11.217  12.105   0.264 -0.0444  0.1952 -0.2717
29477W        W45371  18.343   8.518   3.943 -0.1856 -0.0252 -0.0789
29478W        W45372   8.492  11.490  13.095  0.3420 -0.0274  0.1931
29479W        W45373   6.786   5.616  14.467  0.0569  0.2649 -0.0080
29480W        W45374  16.799  13.005   2.249 -0.2609 -0.0002 -0.1280
29481W        W45375  15.811  13.718  14.624  0.0981 -0.3508  0.2504
29482W        W45376   4.947   1.140  15.172  0.0080 -0.1621  0.3111
29483W        W45377  11.721   4.708   3.102  0.0357  0.1683  0.2817
29484W        W45378   3.338   8.244   0.239 -0.2772 -0.0262  0.0068
29485W        W45379   8.247   4.908  13.973  0.0786 -0.1642 -0.2717
29486W        W45380   7.741   8.886   1.686 -0.0059 -0.3074  0.0569
29487W        W45381   9.559   4.157   0.200  0.1548  0.2073 -0.0606
29488W        W45382  16.808  10.562   1.685 -0.4354  0.1241 -0.0437
29489W        W45383  13.089   1.741   1.614 -0.3425  0.0215 -0.1699
29490W        W45384   9.104   1.582   1.125  0.1589 -0.0042 -0.4157
29491W        W45385   6.932  14.542   3.196 -0.1694 -0.1612  0.0711
29492W        W45386   9.073   0.546  13.318  0.0944  0.2589 -0.1321
29493W        W45387  15.601  14.083  15.005  0.3629  0.3215  0.0662
29494W        W45388   1.055   2.031   3.599 -0.1647  0.1746  0.0202
29495W        W45389  13.984  12.337   4.488  0.0993 -0.3392  0.0064
29496W        W45390   8.349  17.924  13.889  0.0547 -0.2412  0.1751
29497W        W45391  18.477   7.206  13.842  0.1478 -0.1235  0.0133
29498W        W45392   7.589   6.417   4.981  0.0475  0.3230 -0.0161
29499W        W45393  12.044  14.062  11.874  0.0837  0.2473 -0.0715
29500W        W45394  16.441   9.657   5.010  0.0727 -0.0055 -0.2923
29501W        W45395   0.767   6.887  12.336  0.1255  0.1085  0.0013
29502W        W45396  12.070  10.212  11.411 -0.1081  0.2113 -0.0117
29503W        W45397  13.224  13.931   1.614  0.1239  0.0790  0.0909
29504W        W45398   3.399   1.474   0.910  0.1460 -0.1341 -0.1579
29505W        W45399   8.723   5.779   0.974 -0.3008  0.0413 -0.1351
29506W        W45400  16.733  17.693   2.360  0.1809 -0.2254 -0.0521
29507W        W45401  14.488   7.141   3.444  0.1382 -0.1640 -0.2876
29508W        W45402   6.165   6.182   3.932  0.3477  0.1173  0.0040
29509W        W45403  13.303   4.379   4.265 -0.1708 -0.1908 -0.1800
29510W        W45404   0.792  10.442   0.122  0.0749  0.1243 -0.1801
29511W        W45405   4.277  14.933  12.985  0.1057  0.3021  0.1340
29512W        W45406   6.122  17.197   4.057 -0.3011  0.1232  0.0047
29513W        W45407   6.124   6.428  11.581  0.1888 -0.0619  0.1412
29514W        W45408  17.789   5.382   1.577 -0.2375 -0.0433  0.1298
29515W        W45409   9.953  13.400   1.551 -0.4033 -0.0018 -0.1546
29516W        W45410   3.670   4.944   5.260 -0.0384  0.1156 -0.2378
29517W        W45411   4.609  13.335   0.271  0.1071 -0.1825  0.2988
29518W        W45412  18.178   2.943   1.647  0.1323  0.2248  0.2292
29519W        W45413   3.186  14.697   2.164  0.2030  0.0155  0.0717
29520W        W45414   9.088  12.543  10.983 -0.0044  0.0251  0.0522
29521W        W45415   4.021  16.422  10.381  0.1466  0.4018 -0.1582
29522W        W45416   3.103  15.552   2.527  0.3023 -0.3445 -0.0568
29523W        W45417   6.323   0.480   2.070  0.1924 -0.2259 -0.0568
29524W        W45418  18.527   4.669  11.506 -0.1123  0.4451 -0.1620
29525W        W45419  13.961  16.491  13.808  0.3087  0.0501 -0.2292
29526W        W45420   1.538   0.082  11.219 -0.0929  0.1970 -0.1977
29527W        W45421   4.572   2.980   1.158 -0.0366 -0.1249  0.1528
29528W        W45422  18.675   7.599  11.767  0.0776 -0.0422 -0.0185
29529W        W45423   1.462  17.251  14.845  0.1083  0.1183  0.1340
29530W        W45424  14.358   0.215   3.057  0.0189  0.1279 -0.1934
29531W        W45425   0.438  18.703  12.610  0.3834  0.1545  0.2027
29532W        W45426  15.936   6.494  12.095 -0.1874  0.3625 -0.0888
29533W        W45427  10.777   9.119   1.252  0.0074  0.0627 -0.1361
29534W        W45428  16.800   8.644  13.322  0.0489  0.1477 -0.0482
29535W        W45429   0.208   6.379  11.545  0.2223 -0.1926 -0.0043
29536W        W45430   8.326   2.014   5.933 -0.0559 -0.0244 -0.2695
29537W        W45431   7.717   1.386  10.351 -0.3364  0.4327 -0.1214
29538W        W45432  17.438  14.014   1.088  0.5043  0.0365  0.1732
29539W        W45433   1.500  16.938  10.923 -0.1937 -0.1390  0.0880
29540W        W45434   2.756  16.108   5.061  0.0961 -0.4076  0.2613
29541W        W45435  15.840  15.648   3.541 -0.1884 -0.0734  0.4523
29542W        W45436   1.085   0.264   5.035 -0.4335 -0.1802 -0.1491
29543W        W45437  15.599   0.544  13.341  0.4662 -0.0223 -0.1894
29544W        W45438  16.004  16.202  10.824  0.0736 -0.4624  0.0385
29545W        W45439  11.282  14.442   1.345 -0.1701  0.1500  0.1082
29546W        W45440   5.542   8.703   4.945  0.1295 -0.0549 -0.4235
29547W        W45441   0.037  10.401   0.897 -0.3351  0.1525 -0.2023
29548W        W45442  12.383   4.526   4.380 -0.1136  0.1287 -0.0908
29549W        W45443   1.115  15.523  14.403  0.1008 -0.2839  0.2338
29550W        W45444   3.252   3.855  13.971 -0.0924  0.2597  0.3829
29551W        W45445   6.973   8.401   3.628  0.1590 -0.1398  0.1107
29552W        W45446  17.017  12.287   0.874 -0.1250  0.1037  0.1446
29553W        W45447  13.721   1.735  11.272  0.0856 -0.1613 -0.1735
29554W        W45448   4.032  15.333   0.425  0.2547 -0.2811  0.3344
29555W        W45449   9.986  13.240  13.113  0.1190  0.1243 -0.0137
29556W        W45450  16.562   4.679   3.803  0.2839 -0.0518  0.0161
29557W        W45451   0.502  18.073  12.511 -0.3691  0.0401 -0.1998
29558W        W45452  14.573   3.466  11.754  0.2579 -0.0162 -0.1581
29559W        W45453   0.469  14.271   0.232 -0.0961  0.0814 -0.1388
29560W        W45454  11.239  12.747   1.176 -0.2608  0.0179  0.0438
29561W        W45455  12.927   3.264  14.515 -0.1109 -0.0262  0.2023
29562W        W45456  10.828  17.740   2.703 -0.1965 -0.2201  0.2330
29563W        W45457   0.828   1.425  13.411 -0.0683 -0.2260  0.0091
29564W        W45458  18.243  15.345  13.222 -0.0384 -0.1846  0.0464
29565W        W45459   8.511  16.274  12.892 -0.3056  0.0410  0.0238
29566W        W45460   0.832   1.726   5.217  0.2322 -0.0728 -0.1354
29567W        W45461   5.886   0.540   5.427 -0.0159  0.3822  0.0116
29568W        W45462  10.067   1.947  11.210 -0.2981 -0.2415 -0.0510
29569W        W45463   7.691   4.510   0.725  0.2965  0.1962 -0.0307
29570W        W45464   6.516   8.105  14.144 -0.2449 -0.5334 -0.0663
29571W        W45465  14.792  10.959   1.763 -0.1809  0.0631  0.0136
29572W        W45466  10.700   2.465   3.372 -0.2304  0.1201 -0.0644
29573W        W45467  11.346   3.938   5.198  0.0503  0.1419 -0.0876
29574W        W45468  10.668  15.122  13.346 -0.1275 -0.0948  0.0720
29575W        W45469  15.136  17.119  10.510  0.2981 -0.0434 -0.0278
29576W        W45470   4.680   3.380   2.295  0.0585 -0.1862 -0.0654
29577W        W45471  15.243   6.856   3.687  0.0082  0.3321 -0.4278
29578W        W45472   0.571   0.786   3.249  0.0518 -0.0186  0.2087
29579W        W45473   7.607   4.420  12.172 -0.0324 -0.0432 -0.1038
29580W        W45474   2.960   8.385  10.716 -0.1980 -0.1323 -0.0502
29581W        W45475  17.999   8.021   2.623 -0.1850 -0.1647 -0.0586
29582W        W45476   3.141  18.849   3.851  0.2718  0.0507 -0.2779
29583W        W45477  12.656  15.794  13.433 -0.4432  0.0810  0.2783
29584W        W45478   6.709  18.621   4.036  0.2781  0.2986  0.5150
29585W        W45479  18.657   0.476  15.079 -0.2048  0.0773  0.5895
29586W        W45480   5.492   1.787   5.238  0.0254 -0.0802 -0.1246
29587W        W45481   1.644  13.590  14.555  0.0359  0.0100  0.0085
29588W        W45482  18.520  15.272  14.123  0.1520  0.1909 -0.1688
29589W        W45483   8.769  13.962  11.243  0.3273 -0.1695 -0.3171
29590W        W45484  11.437   1.292  15.087  0.4138 -0.0597 -0.2708
29591W        W45485   5.816   6.508  12.770 -0.0589  0.0867 -0.2272
29592W        W45486   4.210  11.995   2.889  0.0195 -0.2247  0.2025
29593W        W45487  10.868  12.543  12.288 -0.1310  0.0455 -0.0159
29594W        W45488  12.089   5.736   3.272 -0.2306 -0.3140  0.0298
29595W        W45489  16.509  13.732   3.261 -0.0136  0.0400 -0.0508
29596W        W45490  13.987   1.417  10.439 -0.2063 -0.1538 -0.2933
29597W        W45491  18.043   4.321  12.844  0.3625 -0.0219 -0.1726
29598W        W45492   1.396   3.606  14.571 -0.4165 -0.0389 -0.1415
29599W        W45493  13.311   3.985   3.299 -0.2855  0.3775  0.1607
29600W        W45494   4.215   1.020  14.302 -0.1437 -0.5452  0.2051
29601W        W45495  12.570  14.875   0.303 -0.0526 -0.1268 -0.0628
29602W        W45496   4.636  14.423   4.145  0.0867  0.2611  0.0295
29603W        W45497  14.038   9.386  12.907 -0.0411 -0.1821  0.1571
29604W        W45498   1.514  18.242   5.111  0.1270 -0.2653 -0.1291
29605W        W45499  14.362   6.264  11.695 -0.1706  0.0024  0.3114
29606W        W45500  14.736   4.752  10.941  0.0302  0.4381 -0.0987
29607W        W45501   5.927  11.159   4.017  0.1751  0.0200 -0.0743
29608W        W45502   7.064  11.365  13.760 -0.2298  0.1462 -0.1449
29609W        W45503   6.390  16.406   1.047 -0.2165 -0.1898  0.0767
29610W        W45504  14.426  16.728   4.311  0.1080  0.3374 -0.0782
29611W        W45505  11.749   4.657   2.575 -0.1477 -0.0145  0.1280
29612W        W45506   3.648   0.274  14.888 -0.0242  0.0810 -0.0470
29613W        W45507   9.252  14.483   0.226 -0.0006 -0.2175 -0.2684
29614W        W45508   7.148  18.239   3.879 -0.0219 -0.0882 -0.3035
29615W        W45509  13.873   1.825  13.193 -0.2007 -0.0261  0.1935
29616W        W45510  10.360   2.434   5.128  0.0718  0.0898 -0.2270
29617W        W45511   0.349  18.555  10.229  0.1314 -0.1593 -0.3331
29618W        W45512   0.191   7.773  11.415  0.2071 -0.1242 -0.0740
29619W        W45513   7.717   1.218   1.644  0.0345 -0.1458 -0.2326
29620W        W45514   4.480   7.365   3.598  0.3033  0.0032  0.2802
29621W        W45515  18.692   3.603  12.320 -0.1253  0.1401 -0.0626
29622W        W45516   6.679  13.319  15.127  0.1157 -0.0378 -0.1640
29623W        W45517  15.945   7.922   3.081  0.3593 -0.0331 -0.0288
29624W        W45518   6.085  18.867  10.731 -0.0469 -0.0747  0.1936
29625W        W45519   8.210  16.791   2.179  0.2502 -0.1933 -0.2565
29626W        W45520   8.285   2.865   4.840 -0.0043  0.0114 -0.1568
29627W        W45521   2.967   4.408  13.329 -0.0606  0.0647 -0.3354
29628W        W45522   8.177  16.721   5.917 -0.2124  0.0586 -0.2944
29629W        W45523  13.650  15.213   6.009  0.1613 -0.1695 -0.0792
29630W        W45524   7.682   5.626  14.165 -0.1127  0.1632 -0.3685
29631W        W45525   0.290  17.655  10.491 -0.0834  0.0498 -0.1728
29632W        W45526   7.201  10.007   1.015  0.0333  0.1027  0.1349
29633W        W45527  10.311   5.252   2.804  0.1672 -0.1527 -0.1941
29634W        W45528  13.441  18.164  12.242 -0.2628  0.0781 -0.1523
29635W        W45529  18.077   7.257   1.297  0.3031 -0.1554 -0.0590
29636W        W45530   0.368  11.920   3.087 -0.2450  0.0528 -0.0849
29637W        W45531   8.236   0.492   5.071  0.0872  0.0169 -0.0119
29638W        W45532  13.265   9.655  11.834 -0.2268 -0.0069 -0.0816
29639W        W45533  11.927  11.934  14.363  0.2740 -0.0873 -0.3443
29640W        W45534  13.447   2.234   3.391 -0.4789  0.0838 -0.0094
29641W        W45535   6.298  11.325  10.882 -0.0174  0.1086 -0.0671
29642W        W45536  10.537   6.582   5.054  0.0781 -0.2503 -0.1456
29643W        W45537  12.600   2.516   2.124 -0.3412 -0.1653 -0.0794
29644W        W45538   9.028  15.143   5.076  0.0559  0.0206 -0.2471
29645W        W45539  15.356   4.607  14.311 -0.1642 -0.2665 -0.1745
29646W        W45540  14.961  17.057  12.447 -0.0755  0.2131 -0.2611
29647W        W45541   9.161  12.324   0.750  0.1037 -0.1436 -0.0912
29648W        W45542  14.503   3.223  14.942 -0.2709 -0.4719 -0.1337
29649W        W45543   1.912   0.354   0.943  0.2056 -0.0786  0.2855
29650W        W45544  13.619  18.605  10.293  0.0567 -0.3405  0.1127
29651W        W45545  10.377  14.922  11.731 -0.0167  0.0479 -0.0220
29652W        W45546  16.672   5.101   2.846  0.2666 -0.1990 -0.3469
29653W        W45547   4.321   5.522  13.814  0.0350 -0.1467 -0.1385
29654W        W45548   0.502   9.970   2.772  0.1568 -0.0784 -0.1007
29655W        W45549   3.877  17.934   3.545  0.0197 -0.3924  0.2047
29656W        W45550  10.249   8.585  13.896  0.1591 -0.1870  0.1256
29657W        W45551  15.782  17.898  12.550  0.2571  0.3302  0.0420
29658W        W45552  11.367  13.689   3.977 -0.0366  0.0242 -0.1348
29659W        W45553   8.623   5.842  14.134  0.2354 -0.4328  0.0986
29660W        W45554   8.230  13.804  13.529 -0.0902 -0.1520  0.2411
29661W        W45555  10.053   9.485   4.522 -0.1842  0.2285  0.1879
29662W        W45556  14.441   3.676  13.193 -0.0362  0.0968  0.1557
29663W        W45557   5.409   9.775  14.982 -0.2567  0.1783 -0.0828
29664W        W45558  12.518  14.128   2.357 -0.0852 -0.1223  0.3262
29665W        W45559  13.977   6.083   1.195  0.0524 -0.0503  0.0333
29666W        W45560  15.911  16.725  11.090  0.0238  0.0632 -0.3378
29667W        W45561  12.768  16.257   4.953 -0.0082 -0.1618 -0.0835
29668W        W45562   8.428   0.676   2.554  0.1099 -0.0734 -0.1631
29669W        W45563  18.520  10.442   1.436  0.1765  0.0142  0.3114
29670W        W45564  14.023  17.109  15.344 -0.0840  0.3204  0.1977
29671W        W45565  16.739  16.768   2.845  0.3565 -0.1047 -0.1343
29672W        W45566   1.225  14.696  11.384  0.1934 -0.4277  0.1833
29673W        W45567  13.098  12.684   5.253 -0.1546  0.3589  0.1925
29674W        W45568  17.464  18.667  11.738  0.0509  0.0697  0.1969
29675W        W45569  14.355   1.175   1.210 -0.0898 -0.1420  0.0492
29676W        W45570   8.616   0.217   2.323 -0.2681 -0.0110  0.0003
29677W        W45571   6.048  12.511  11.843  0.0413 -0.1215 -0.1909
29678W        W45572  10.969  16.694   3.990 -0.0254 -0.0398  0.0329
29679W        W45573  14.105   7.612  11.230  0.1300  0.1910 -0.0193
29680W        W45574   5.573  15.891  13.551 -0.2110 -0.0723 -0.0021
29681W        W45575  15.112  18.700   6.035 -0.2346 -0.2029  0.1805
29682W        W45576   0.669  14.317  12.185 -0.1558  0.0084  0.2450
29683W        W45577   7.285  15.969   5.256  0.0907 -0.1229 -0.1730
29684W        W45578  12.470  17.125   4.422  0.0759 -0.0342  0.0652
29685W        W45579   5.453   1.360  12.357  0.0503 -0.0804  0.1661
29686W        W45580   1.313  14.549   4.407 -0.3267  0.1367 -0.1768
29687W        W45581  13.346  15.184   3.186  0.0066 -0.2364 -0.1226
29688W        W45582   1.188  18.624  11.452 -0.2713 -0.1901 -0.2490
29689W        W45583  13.315  10.029  11.427  0.1299  0.0328  0.0965
29690W        W45584  15.023   5.260   2.168 -0.1345  0.3969  0.1555
29691W        W45585  16.397  17.340   2.597 -0.3436  0.1783 -0.3129
29692W        W45586  11.267  17.342  10.440 -0.3042  0.1398 -0.0847
29693W        W45587  18.233   2.217  11.681  0.2147 -0.1519  0.1079
29694W        W45588  14.897  15.199   5.457 -0.0449 -0.4059 -0.2148
29695W        W45589   0.667   3.084  14.918 -0.1690 -0.0176  0.0593
29696W        W45590   0.592   8.626   2.851  0.1665  0.1261 -0.1209
29697W        W45591  11.349  11.059  13.028 -0.4257  0.1811  0.1911
29698W        W45592   1.082  10.364   1.482 -0.1146 -0.1897 -0.1718
29699W        W45593  11.723   3.554   2.746 -0.0226 -0.0771 -0.2225
29700W        W45594   9.242  17.704   2.910 -0.1065 -0.2312  0.0252
29701W        W45595   0.118   9.687  14.080 -0.1627 -0.0393  0.3396
29702W        W45596  18.667  16.929   2.342 -0.3359 -0.2141 -0.0418
29703W        W45597  11.007   1.111   1.503  0.2843  0.1269  0.5654
29704W        W45598  15.111  11.374   4.656  0.1476  0.1202  0.0675
29705W        W45599  16.985   0.253  11.835 -0.1899  0.2351  0.1676
29706W        W45600   9.957   9.025  15.005 -0.1770 -0.3034  0.0015
29707W        W45601  10.643   5.114  13.557  0.3417 -0.1865 -0.0296
29708W        W45602   8.559  17.466   5.217 -0.0619 -0.0409  0.0049
29709W        W45603  18.825  18.521   4.343 -0.2071  0.3340 -0.0535
29710W        W45604   4.113  12.395   0.352 -0.1498 -0.2836 -0.0836
29711W        W45605  13.881   3.135  14.901  0.0272 -0.3320  0.1962
29712W        W45606   1.655  15.191   4.627  0.0674  0.0530  0.1039
29713W        W45607  18.207   2.777   4.321  0.0118  0.1328 -0.0052
29714W        W45608  18.644   1.531   2.911 -0.2585  0.1049 -0.0631
29715W        W45609  10.413   0.680  13.222 -0.1770  0.0631 -0.2476
29716W        W45610  11.384  16.045  11.979  0.0270  0.0223  0.0559
29717W        W45611  17.198   6.540   1.599 -0.0575 -0.1463  0.2574
29718W        W45612   1.732  17.027   3.503 -0.1019  0.0208  0.1143
29719W        W45613   7.567   7.375   2.924 -0.0769  0.1428 -0.1111
29720W        W45614  16.268   7.970  11.787  0.2205 -0.0656  0.0433
29721W        W45615  10.517  11.881   3.834  0.0691  0.5122 -0.0849
29722W        W45616   2.433   1.209   3.311  0.1072  0.1574 -0.1980
29723W        W45617   0.549  16.732  10.810  0.0755 -0.2127 -0.0880
29724W        W45618  13.017  10.297   4.975  0.0986 -0.0234  0.1894
29725W        W45619   2.122  14.620   4.074 -0.1084 -0.3881  0.2686
29726W        W45620   0.109  17.505  11.442 -0.1674 -0.0113  0.2784
29727W        W45621   7.889   2.543  13.674  0.2715  0.3750  0.0666
29728W        W45622   4.960  12.356  14.030  0.1685  0.0258 -0.2406
29729W        W45623   4.686   0.025   0.425 -0.1117  0.0002 -0.0418
29730W        W45624  17.095   6.701   3.894  0.0394 -0.0759  0.1577
29731W        W45625   5.547  16.625  14.698 -0.2942 -0.1736 -0.0613
29732W        W45626   0.044  14.035   5.247 -0.2699  0.0190 -0.2140
29733W        W45627   8.746  12.303  11.899  0.1485 -0.1186  0.0600
29734W        W45628  13.606   0.886   2.840 -0.1159 -0.0137  0.0330
29735W        W45629   7.967  14.464   2.355 -0.3221 -0.2216  0.2722
29736W        W45630   6.044  16.917  13.906 -0.0228  0.0738 -0.2001
29737W        W45631  12.615  18.464   2.273 -0.1289 -0.1327 -0.0563
29738W        W45632  15.533  13.129  11.298 -0.2057  0.1006  0.1014
29739W        W45633   4.218   3.178   1.996  0.3915 -0.1403 -0.0405
29740W        W45634  17.359   0.646  13.853  0.0953 -0.1544 -0.2292
29741W        W45635   4.559   7.321  11.805  0.1010  0.0043 -0.2264
29742W        W45636   3.799   3.408  12.362 -0.0991  0.1539  0.0519
29743W        W45637   8.975   2.331   3.590 -0.0317 -0.0141  0.2652
29744W        W45638  12.649  11.347   5.184  0.0802 -0.2546  0.2385
29745W        W45639  10.679  12.942   5.196 -0.3274  0.1184  0.0055
29746W        W45640  11.486   5.028   3.466 -0.1335 -0.1964 -0.3967
29747W        W45641  17.917  18.772  14.088 -0.3153  0.0984 -0.3213
29748W        W45642   4.945  13.427  10.782 -0.0350  0.2429  0.1464
29749W        W45643   3.077   1.491   5.214 -0.0414 -0.4319  0.1801
29750W        W45644   7.555   7.751  13.183  0.2915  0.2503 -0.0297
29751W        W45645   8.791  17.680  11.569 -0.0842  0.1030  0.0347
29752W        W45646   4.711   0.966  13.387  0.0141 -0.2865  0.1016
29753W        W45647  12.174   4.071  12.023  0.4577  0.1778 -0.0403
29754W        W45648   5.365   4.289  11.003 -0.3385  0.0307  0.0214
29755W        W45649  14.611  10.675   5.792 -0.0344  0.0897  0.2289
29756W        W45650  15.752   8.156  12.468 -0.0578 -0.0814 -0.0461
29757W        W45651   2.643   9.572   1.026  0.1130  0.2527 -0.3264
29758W        W45652   4.649  14.048   2.669  0.0428  0.1187 -0.0351
29759W        W45653   9.246  18.775   5.470 -0.0570  0.2471  0.0192
29760W        W45654   3.660   0.306  14.389  0.0772  0.1450 -0.2851
29761W        W45655  17.755   0.472   5.862  0.0943  0.2401 -0.2389
29762W        W45656  13.438   9.475   0.003  0.1111 -0.2776  0.0609
29763W        W45657   0.191   7.704  13.322 -0.2377  0.2120  0.0429
29764W        W45658  16.934   2.712   3.833 -0.0654 -0.0747  0.1627
29765W        W45659   4.281  12.615   4.765  0.0195 -0.1567  0.0514
29766W        W45660  10.643   7.382  10.931 -0.0620  0.0535 -0.0722
29767W        W45661   0.260  18.217   0.839  0.1941 -0.1276 -0.0751
29768W        W45662   3.579   5.641   3.602  0.0493 -0.2267 -0.1331
29769W        W45663  13.961  18.854   1.471  0.1695 -0.1707 -0.0215
29770W        W45664  14.246   1.749  14.451  0.0134 -0.0787 -0.1647
29771W        W45665  12.302  16.591  14.289 -0.1013 -0.1478  0.1397
29772W        W45666  18.410  17.297   0.923 -0.2214  0.3314 -0.1082
29773W        W45667   4.882   8.030   4.769 -0.2902  0.2362  0.2337
29774W        W45668  18.690  16.178  11.130 -0.0059 -0.2300 -0.0721
29775W        W45669   1.099   7.829  11.888 -0.0195 -0.1737  0.1358
29776W        W45670  13.079  10.621  12.063  0.1044  0.0040  0.2956
29777W        W45671  15.692   1.064  14.647 -0.2580  0.2741  0.1164
29778W        W45672  17.344  16.186   0.208  0.1202  0.3178 -0.1115
29779W        W45673  15.853  13.638  15.240  0.0679  0.0404 -0.0028
29780W        W45674  10.030  12.741   3.181 -0.1735  0.0780 -0.3597
29781W        W45675   0.645  16.442  15.418 -0.1402  0.1890 -0.1809
29782W        W45676   6.022   2.107  13.425 -0.0286  0.1998 -0.3142
29783W        W45677  14.483  10.871   9.760  0.1099  0.1028 -0.2959
29784W        W45678   7.342   0.999   4.762 -0.0864  0.0787 -0.0427
29785W        W45679  11.730  13.417  14.134  0.1967  0.2235  0.0372
29786W        W45680   8.643   0.207  13.388 -0.0858 -0.0248  0.1376
29787W        W45681   1.122   8.749  12.331 -0.0629  0.0234  0.1224
29788W        W45682   5.624   8.140  12.590 -0.2024  0.2033 -0.1311
29789W        W45683   0.290  14.100  14.218 -0.1968  0.2471  0.0829
29790W        W45684   4.319   6.848   3.583 -0.0436 -0.1828 -0.0279
29791W        W45685   1.768  16.805   2.591  0.0469 -0.1104  0.0234
29792W        W45686  15.163  13.672   2.821 -0.0815  0.2763  0.1079
29793W        W45687   8.493  14.777   3.974 -0.0061  0.0105  0.2416
29794W        W45688   8.558  14.837  11.873  0.0150  0.2169 -0.1173
29795W        W45689  18.661   1.288   9.501  0.3564  0.0013 -0.1134
29796W        W45690   9.586  14.320   5.927  0.1348 -0.1854 -0.0371
29797W        W45691  13.981  12.899  14.392  0.0187 -0.0190 -0.1145
29798W        W45692  12.363   9.209   2.339 -0.0129  0.2628 -0.1594
29799W        W45693  15.768   7.110   1.321 -0.0193 -0.6260 -0.0673
29800W        W45694   3.313   3.344   2.776  0.3435 -0.0239 -0.0932
29801W        W45695   2.571  12.421   0.738 -0.1212  0.0839  0.0382
29802W        W45696  18.267  17.203   2.199  0.0538  0.0441 -0.0485
29803W        W45697  17.443   2.982   0.830  0.1408  0.1538  0.0844
29804W        W45698   4.121   3.935   0.514 -0.0334  0.1994  0.1491
29805W        W45699  10.758  11.946   0.232 -0.1978 -0.2271  0.1988
29806W        W45700   3.975  16.519   0.884  0.0873  0.1225  0.3550
29807W        W45701  14.765   4.638  10.212  0.2737  0.2191  0.1719
29808W        W45702  15.418   6.137  12.583  0.3273 -0.1807 -0.0634
29809W        W45703  10.000   2.489  13.135 -0.0730 -0.1751  0.0181
29810W        W45704  10.828  10.383  11.225  0.0301  0.0540  0.1260
29811W        W45705   5.827   2.885   2.477  0.1236  0.0609  0.2628
29812W        W45706   4.074   9.072  10.397 -0.0741 -0.2217  0.2340
29813W        W45707  17.123  17.777   1.789  0.4894  0.1129  0.0066
29814W        W45708  14.524  10.438  12.624 -0.1024  0.0315 -0.1426
29815W        W45709  18.171   6.223   0.225  0.2092 -0.0027 -0.1436
29816W        W45710  10.881  12.599   9.732 -0.3378 -0.0832  0.2164
29817W        W45711   0.883   7.819  10.637 -0.1735  0.0638  0.0931
29818W        W45712  13.659  16.620   3.782  0.0670  0.2341 -0.2808
29819W        W45713  10.776   6.048   0.359  0.2599  0.2293 -0.3620
29820W        W45714   3.090  13.702   3.609  0.2559  0.0392  0.0204
29821W        W45715  18.771  12.083  14.465  0.2367  0.0779  0.1966
29822W        W45716   5.560   6.148  15.032 -0.2426  0.2253  0.0845
29823W        W45717  18.231   4.323  10.513 -0.0215 -0.1513 -0.1484
29824W        W45718   2.952  12.555  14.172 -0.1293 -0.0701  0.0268
29825W        W45719  17.176  10.931  13.799 -0.2734 -0.1247 -0.1592
29826W        W45720   5.055  10.962   1.813  0.6346 -0.3017 -0.1828
29827W        W45721  13.288  17.786  12.670 -0.1800  0.0584 -0.0747
29828W        W45722   0.504   1.106   2.864 -0.3750 -0.0189  0.3291
29829W        W45723   2.009   2.418  14.726 -0.1522  0.1733  0.3329
29830W        W45724   8.688   0.598   5.281  0.0736  0.2599  0.2183
29831W        W45725  18.384   7.175   0.762 -0.0213  0.1261  0.0001
29832W        W45726   7.250  14.817   4.430 -0.3069  0.0124  0.0807
29833W        W45727   1.304  16.049  13.185  0.1734 -0.0646 -0.1763
29834W        W45728   9.549  18.102  13.180  0.0490 -0.1454 -0.2637
29835W        W45729   1.045   7.243   0.883  0.0304 -0.2135  0.1029
29836W        W45730   3.404   8.444  10.594 -0.1188  0.1309 -0.1894
29837W        W45731  10.878   1.948  11.044 -0.2640 -0.1619  0.0790
29838W        W45732   4.114  16.420  12.027  0.0137  0.1852 -0.0172
29839W        W45733  14.370  14.358   0.035  0.0871 -0.2353  0.1380
29840W        W45734  12.104   8.861  15.472  0.1482 -0.1025  0.0574
29841W        W45735   5.391  13.938  14.193 -0.0302  0.0745  0.1777
29842W        W45736   3.221   8.601   1.989  0.0671  0.1147 -0.0215
29843W        W45737  11.420   9.879  10.961  0.2860  0.0098  0.3272
29844W        W45738  15.873   3.264   2.031 -0.1009 -0.5056 -0.0296
29845W        W45739  16.763   7.943   2.433  0.0846 -0.1449 -0.1186
29846W        W45740   7.759  17.881   4.502 -0.1129  0.2185  0.2648
29847W        W45741  13.841  10.185  13.570  0.3432 -0.2444 -0.1147
29848W        W45742  12.128  11.305   4.286  0.0376  0.0577  0.0543
29849W        W45743  17.545  13.719  13.713 -0.0225  0.3573  0.2494
29850W        W45744   4.594  16.202  12.248  0.0069 -0.1562  0.1322
29851W        W45745  16.178  11.282  14.913 -0.0397  0.0099  0.2538
29852W        W45746   0.741   5.893  10.465  0.0589  0.0645 -0.2682
29853W        W45747   6.234  12.199   2.162 -0.1908  0.0445  0.0254
29854W        W45748   8.140   3.823   0.485 -0.1404 -0.1214  0.1245
29855W        W45749   0.092   1.049   3.142  0.0415  0.2286  0.0331
29856W        W45750   3.077   9.021  11.820  0.0299 -0.2334  0.0715
29857W        W45751   8.434   9.553   2.731 -0.4563 -0.0205  0.0595
29858W        W45752   7.366  18.790  12.483 -0.0429  0.3016 -0.1823
29859W        W45753   0.500   4.769   4.339  0.4301 -0.2073  0.2673
29860W        W45754  13.848   8.345  12.921  0.2405  0.0180 -0.2564
29861W        W45755  11.016   4.221   1.245  0.0285  0.0965 -0.0307
29862W        W45756   4.050  10.109   0.097  0.0135 -0.0174  0.0139
29863W        W45757   8.176  12.422   4.822 -0.0675 -0.1704 -0.0928
29864W        W45758  17.793   2.986   2.059  0.0385 -0.0453  0.0726
29865W        W45759  10.922   8.287   0.512  0.0757  0.0434 -0.4136
29866W        W45760   4.166  14.445   4.558  0.0303  0.1197  0.0885
29867W        W45761   4.252   5.831  14.212  0.0263 -0.0794 -0.2218
29868W        W45762   3.638  11.378  12.631 -0.0622 -0.1961  0.0592
29869W        W45763   7.534   2.681  10.151 -0.0277 -0.1135  0.1209
29870W        W45764   4.593  12.401   1.220  0.1170  0.0487 -0.0762
29871W        W45765  11.108   0.218  14.320  0.0361  0.1170  0.0697
29872W        W45766  14.875  15.125   4.237 -0.1920 -0.1345 -0.0653
29873W        W45767   7.092   4.854   0.575 -0.0352  0.0029 -0.0776
29874W        W45768   7.191   6.260   3.040 -0.0931  0.1329 -0.1488
29875W        W45769  18.505  12.440  12.115  0.0730 -0.1389 -0.0634
29876W        W45770   1.132   4.340  14.049  0.0987 -0.1413 -0.0178
29877W        W45771   3.920   2.086  14.059 -0.3101  0.1690  0.0558
29878W        W45772  10.447  14.477  12.667 -0.0381 -0.2676  0.0314
29879W        W45773  16.026  11.753   5.881 -0.1470  0.1316 -0.0533
29880W        W45774   4.889   0.891  12.164 -0.0714  0.3552  0.1614
29881W        W45775   6.696   9.108  12.090 -0.0892  0.0445  0.4042
29882W        W45776  13.999   7.849  13.097 -0.1950  0.2833  0.3824
29883W        W45777  18.651  18.676   4.889 -0.0493  0.0689  0.0907
29884W        W45778  14.489  12.619  14.640 -0.3851 -0.0598 -0.2377
29885W        W45779  13.695   8.430  11.497 -0.0454  0.0010  0.2501
29886W        W45780  12.931  18.728   1.576  0.0075 -0.0916 -0.1922
29887W        W45781   1.959   1.707  15.254 -0.0840  0.1250 -0.0289
29888W        W45782  15.416  11.436  11.378 -0.0519  0.0501 -0.1690
29889W        W45783  18.215   6.161   1.322 -0.2627  0.1611 -0.0318
29890W        W45784   7.635  11.111  14.538 -0.1400  0.0107  0.1516
29891W        W45785  16.923  17.554   0.340  0.1530  0.0227 -0.1428
29892W        W45786  11.911  13.860   4.060 -0.0668  0.3144  0.0469
29893W        W45787  13.769   7.803  11.716 -0.0601 -0.3056  0.1515
29894W        W45788   7.986   5.409  13.223 -0.0480 -0.3069 -0.0007
29895W        W45789  15.953   1.957  14.300 -0.1870  0.1439  0.0447
29896W        W45790  12.529   6.740  10.842 -0.1120  0.0499  0.2185
29897W        W45791   4.166   4.140  13.874  0.0889  0.1019  0.0417
29898W        W45792  17.034   5.723   3.711  0.1207 -0.0176 -0.1628
29899W        W45793  16.791   4.729   4.371 -0.0936 -0.0661 -0.0391
29900W        W45794   0.135   0.246  12.793  0.2350  0.0386 -0.1792
29901W        W45795  13.749  11.863  14.611 -0.0682 -0.2214 -0.1294
29902W        W45796   6.709   0.697  11.614  0.0219  0.0369  0.1430
29903W        W45797  16.700   1.291  13.793 -0.1495 -0.1780  0.2598
29904W        W45798  18.097   8.978   0.004  0.1316 -0.1420 -0.1244
29905W        W45799  17.263  12.170   0.386  0.2044 -0.1275  0.1897
29906W        W45800   4.656   3.945   2.274  0.0654 -0.2246  0.3833
29907W        W45801   2.601  10.279  10.701 -0.0843 -0.0683 -0.2455
29908W        W45802  15.054  14.873   2.317  0.3081  0.1434 -0.4376
29909W        W45803  15.401   8.955  12.594  0.0761 -0.2966 -0.4235
29910W        W45804   8.086  16.513  15.241 -0.3495 -0.1006  0.1043
29911W        W45805  12.742   0.023  11.801 -0.0330  0.2513 -0.0221
29912W        W45806   1.818   4.605   0.287 -0.0091 -0.3951 -0.1466
29913W        W45807  10.067   1.102   2.804 -0.1700 -0.0468  0.0921
29914W        W45808   9.532   5.370  11.918 -0.0675  0.1578 -0.0099
29915W        W45809  12.814  10.235  14.931 -0.0112 -0.2091  0.0120
29916W        W45810   4.422  17.217   0.545 -0.0435  0.0616 -0.1037
29917W        W45811   5.159  16.073   0.532 -0.0143  0.0590  0.1132
29918W        W45812   4.446   5.542   0.833 -0.0123 -0.2263 -0.2225
29919W        W45813   0.216   0.333   1.222  0.1437  0.1138 -0.3900
29920W        W45814   9.563  13.607  13.018 -0.3826 -0.2986  0.3207
29921W        W45815  10.227  10.197  11.801  0.0109  0.1680 -0.2175
29922W        W45816  13.623   4.728   2.677  0.1231  0.3213 -0.0597
29923W        W45817  12.107  17.272  14.607 -0.0172  0.0601 -0.2948
29924W        W45818   0.146   0.305  11.033  0.0109 -0.4847 -0.2595
29925W        W45819   7.156   2.549  14.989  0.1464 -0.0486  0.3748
29926W        W45820  13.602   9.248  13.186 -0.0488 -0.0653 -0.0084
29927W        W45821   5.804   0.729  10.649  0.0599  0.1816 -0.0328
29928W        W45822  12.731   1.083   3.608 -0.0179  0.1095 -0.0367
29929W        W45823   9.097  13.256   5.208  0.0571  0.2515  0.0193
29930W        W45824  18.029   7.642  14.132  0.3836  0.1088  0.0498
29931W        W45825  18.079  11.286   5.586  0.0953  0.1030 -0.0165
29932W        W45826   8.103   3.847  11.012  0.0772  0.0104 -0.1895
29933W        W45827   2.025   8.278   1.216  0.0279  0.3217 -0.0342
29934W        W45828  16.515   1.566   4.265  0.2082 -0.3015  0.0142
29935W        W45829  18.160   3.155   3.624 -0.1558  0.0098  0.1035
29936W        W45830   4.398   0.965   0.536 -0.0937 -0.3359  0.1463
29937W        W45831   6.393   3.010   1.923 -0.1363 -0.1545  0.0224
29938W        W45832   2.625   4.387   0.505 -0.2095 -0.0071 -0.3610
29939W        W45833   5.506  14.416   3.758  0.0973 -0.1014 -0.0213
29940W        W45834   5.647  16.424   9.686 -0.0961  0.0389 -0.1022
29941W        W45835   0.045   5.108  14.054 -0.1555  0.1095 -0.1328
29942W        W45836  18.501  13.706  13.026  0.0330  0.2201  0.0760
29943W        W45837   1.090  11.013   2.202  0.0863  0.2446 -0.1429
29944W        W45838   2.518  15.699  14.734 -0.0827 -0.4050 -0.0282
29945W        W45839   6.334  10.477   2.190 -0.0426  0.0095  0.1124
29946W        W45840  18.063   6.523   2.633 -0.2684  0.1090  0.0471
29947W        W45841   9.309  11.455   3.871 -0.1629  0.3492 -0.0541
29948W        W45842  11.296   0.279   0.387 -0.0150 -0.0737  0.1943
29949W        W45843  18.775  17.509   3.192  0.2335 -0.0946 -0.0092
29950W        W45844  11.151  18.542   1.218  0.0424 -0.1484  0.4265
29951W        W45845  13.805  14.333   1.163  0.0137  0.1361 -0.1203
29952W        W45846   5.173   0.316  13.515 -0.2689 -0.1538  0.0067
29953W        W45847   9.965   0.817  12.174  0.1385 -0.0230 -0.0887
29954W        W45848   9.062   5.681  15.152 -0.1905 -0.1503  0.0608
29955W        W45849   0.134   8.996  12.217 -0.1733 -0.3335  0.0930
29956W        W45850   7.783  12.267   4.293  0.3434 -0.3913 -0.2021
29957W        W45851  13.222  15.985  12.592 -0.0711 -0.0517  0.3549
29958W        W45852   5.642  14.074   1.076 -0.1030 -0.3272 -0.2190
29959W        W45853  18.736  13.536   3.201  0.2317  0.0871 -0.0437
29960W        W45854  11.028   2.904   0.578  0.2029  0.1486  0.3191
29961W        W45855  10.066   1.838  12.427 -0.0148 -0.0548 -0.0765
29962W        W45856   7.082  15.492   5.020  0.1002 -0.1172 -0.3267
29963W        W45857  13.201   6.433   0.883  0.1199 -0.3982  0.0025
29964W        W45858   3.547  11.716  13.000 -0.0716 -0.1201 -0.0643
29965W        W45859   3.400   7.457  10.438  0.1116  0.0323 -0.4454
29966W        W45860  15.156  11.970  12.880 -0.2191 -0.0052  0.1675
29967W        W45861   1.936  11.188  15.090  0.4401 -0.1156 -0.4343
29968W        W45862   5.923  15.771  11.484  0.1809  0.3138 -0.3098
29969W        W45863   6.969   8.820  12.984 -0.0680 -0.0588 -0.4254
29970W        W45864   3.140  14.146   2.859 -0.1262 -0.0302  0.0390
29971W        W45865  16.061   7.533   2.640  0.0417 -0.0929  0.1418
29972W        W45866   5.031   9.644   0.391  0.3780  0.0676  0.2384
29973W        W45867  15.819  13.993  12.338  0.3159  0.1328 -0.3021
29974W        W45868  11.928   0.351   4.335  0.0835 -0.0144  0.2246
29975W        W45869   5.235   3.026  14.963  0.2739  0.1440  0.2249
29976W        W45870   6.879  17.943   3.550  0.0244 -0.2806  0.0411
29977W        W45871   3.038  15.060  13.750  0.0565  0.0907  0.2448
29978W        W45872   0.475   3.083  12.186  0.1588 -0.2177  0.5129
29979W        W45873   7.871   4.125   2.697 -0.3580  0.0860 -0.2970
29980W        W45874   8.843   6.667  13.796  0.0815  0.0385  0.3766
29981W        W45875   2.577   4.277  13.079 -0.2099  0.1463  0.1961
29982W        W45876  11.944  13.029  10.795 -0.0923 -0.0409 -0.1430
29983W        W45877   4.743  18.116  11.979 -0.0257 -0.2174  0.1837
29984W        W45878   7.629  10.443   0.055  0.4976 -0.0600  0.0887
29985W        W45879  12.889   2.212   3.506 -0.3319 -0.0671  0.0007
29986W        W45880  17.739   2.773  15.199  0.0709  0.0261  0.0853
29987W        W45881   0.359  12.359  11.432  0.3859 -0.0864  0.1751
29988W        W45882  15.051  10.362  12.625 -0.0277 -0.1067 -0.2092
29989W        W45883   7.704  14.202   5.143 -0.5262 -0.0798 -0.0350
29990W        W45884  10.780   5.903  11.273 -0.3336 -0.0936 -0.0118
29991W        W45885  12.305  10.475   3.725 -0.1435 -0.2049  0.5899
29992W        W45886  11.953   7.374   1.679 -0.2541 -0.0238  0.0424
29993W        W45887  17.476   9.011  12.269 -0.0579 -0.2041 -0.0223
29994W        W45888  16.185   7.079   4.963  0.0307 -0.1366  0.2277
29995W        W45889   9.134   9.600   3.922  0.0644 -0.2216 -0.1338
29996W        W45890   3.059   1.485   9.603 -0.1327 -0.1799  0.0810
29997W        W45891  13.488   6.835  14.372  0.2596  0.1555 -0.1185
29998W        W45892  17.556   1.896   2.847  0.0680 -0.1414 -0.2932
29999W        W45893  13.763  13.203   4.889 -0.2017  0.3058  0.1608
30000W        W45894  13.990   6.499   4.348  0.1437 -0.1187 -0.0119
30001W        W45895   8.848  11.919  14.192 -0.0784 -0.0586 -0.1473
30002W        W45896   9.350  13.839   5.866 -0.4766 -0.1749  0.2704
30003W        W45897   2.537   4.899  13.255  0.2948 -0.1114 -0.0317
30004W        W45898  18.395  16.502  10.653  0.0981  0.3401  0.2056
30005W        W45899  15.611   0.687   3.232 -0.2376 -0.2303  0.1186
30006W        W45900   0.248   3.042   4.116 -0.1717 -0.1904  0.2376
30007W        W45901  10.167   8.963  14.198  0.4053  0.0779 -0.0278
30008W        W45902   3.570  10.408  10.147  0.1120  0.3379 -0.0715
30009W        W45903   0.141   1.163  11.569  0.4649 -0.1442 -0.2808
30010W        W45904  16.655   3.102   2.439 -0.2780 -0.2929  0.3657
30011W        W45905  15.754   5.555  14.719  0.0422  0.1285  0.3809
30012W        W45906  15.229  17.411  12.173  0.3445  0.3281  0.1172
30013W        W45907  13.778  17.406   1.491 -0.0763  0.1831 -0.0920
30014W        W45908   2.885   3.336   1.678 -0.1006 -0.1192  0.2811
30015W        W45909   0.973   9.505   4.636 -0.0114 -0.1745  0.3917
30016W        W45910  15.365  16.536   2.912 -0.0653 -0.2835  0.2268
30017W        W45911  17.887   2.997  10.837 -0.0751 -0.0400 -0.1219
30018W        W45912   0.667   9.214   4.428  0.0430 -0.0348 -0.2585
30019W        W45913   8.618  17.850  14.437  0.1496 -0.0973  0.1450
30020W        W45914  10.680  15.555   5.886 -0.0393  0.3152  0.4398
30021W        W45915  17.193   3.912  14.427  0.2450 -0.0559  0.3990
30022W        W45916  12.697   4.553   3.937 -0.2632  0.1461  0.2174
30023W        W45917  12.783  17.245  15.088  0.0238 -0.0859  0.2515
30024W        W45918  13.799  14.404  11.945  0.0287  0.2132 -0.0638
30025W        W45919  12.946  16.285  11.791 -0.2102 -0.1457 -0.5507
30026W        W45920   7.571  11.723   4.355 -0.0500 -0.0892 -0.0617
30027W        W45921  11.930   9.847  11.120 -0.0554 -0.2459 -0.0291
30028W        W45922   7.839  18.494  13.431  0.0040 -0.1120 -0.1919
30029W        W45923  14.104  13.418  14.608 -0.0585 -0.0927  0.1933
30030W        W45924  15.406   0.436   2.891 -0.3553 -0.0914  0.2047
30031W        W45925  12.812  16.615  14.359  0.0552 -0.0623 -0.3636
30032W        W45926  18.162  14.136  12.062 -0.0009  0.2961 -0.2494
30033W        W45927   0.622   1.826   1.015 -0.3697  0.1366 -0.3040
30034W        W45928  12.242   8.483  10.411 -0.3609 -0.0024 -0.0564
30035W        W45929   5.041   5.195   2.498 -0.2061 -0.0141  0.0983
30036W        W45930  16.955   5.018  11.553  0.1959  0.2193  0.3130
30037W        W45931  15.765  11.979   4.195 -0.1409  0.0946  0.0289
30038W        W45932  14.177  11.906  14.224  0.3591  0.1371  0.0693
30039W        W45933  15.038  10.090   4.690  0.1871  0.0238  0.1566
30040W        W45934  14.098   8.259   2.913  0.0293  0.0591  0.2751
30041W        W45935  13.331   9.561   4.427  0.0467  0.0896  0.3361
30042W        W45936  14.063   6.654  12.223  0.0951 -0.0024 -0.1471
30043W        W45937   1.244   2.762  12.673 -0.0053 -0.0282 -0.1676
30044W        W45938   1.530  10.330   3.826  0.2271 -0.1521 -0.0740
30045W        W45939  18.365  16.519   3.745 -0.0867  0.1070  0.1017
30046W        W45940  10.494   4.110  14.186 -0.1722  0.4404  0.1933
30047W        W45941  11.673   9.192   5.367 -0.1346  0.2829  0.2242
30048W        W45942  15.856   7.998   5.254  0.1210 -0.2983 -0.0128
30049W        W45943   8.135   5.695   0.079  0.1962 -0.0406 -0.0927
30050W        W45944   7.416   4.905   3.905  0.0951 -0.0176  0.0569
30051W        W45945   9.307   5.945  11.255 -0.0234 -0.0224 -0.1299
30052W        W45946  16.966  11.070  13.188 -0.0527 -0.1639 -0.0319
30053W        W45947  12.184  18.402  13.822 -0.2221 -0.3152 -0.1615
30054W        W45948   5.259   8.368  11.576  0.0749  0.2685 -0.0930
30055W        W45949  16.659  15.899  14.772  0.2577  0.1398  0.0406
30056W        W45950  10.561   0.120  13.457  0.1492  0.0697  0.0575
30057W        W45951   1.577   2.689   2.651  0.2376 -0.2111  0.2339
30058W        W45952  10.879   2.218   2.665  0.0258  0.3092  0.2191
30059W        W45953   4.169   1.278   0.902  0.3375 -0.1158 -0.1410
30060W        W45954   9.567   7.165  12.527  0.2031  0.1531 -0.0468
30061W        W45955  16.512   1.982  14.114 -0.0323 -0.0625  0.0102
30062W        W45956  10.117  18.746   4.720  0.0031 -0.3119 -0.1527
30063W        W45957  13.070  16.596   1.338  0.0037 -0.0522 -0.1959
30064W        W45958  14.664  15.948  10.518 -0.1957 -0.0418 -0.1879
30065W        W45959  14.820  11.120  13.017  0.1782 -0.1982  0.2452
30066W        W45960  14.404  14.539   5.653 -0.2515  0.3054 -0.0993
30067W        W45961  11.511  11.776  15.143  0.1362 -0.0073  0.1151
30068W        W45962   3.837  14.931   1.428 -0.0518  0.2056 -0.0204
30069W        W45963  14.737  13.550  11.604 -0.2316  0.1787 -0.0520
30070W        W45964  15.102   7.171  15.289 -0.1562  0.2249 -0.0219
30071W        W45965  12.066  11.782   2.522  0.0916 -0.0948 -0.0514
30072W        W45966   3.003  13.619   2.733 -0.0504  0.4530  0.2247
30073W        W45967  12.376   0.731  13.644  0.1504 -0.1692  0.2165
30074W        W45968   9.519   0.480  12.746  0.3057  0.0453  0.3026
30075W        W45969  14.801   6.526   0.739  0.3070  0.1336  0.0998
30076W        W45970   0.389  14.641  11.899  0.2319  0.1587  0.2761
30077W        W45971  15.650  15.691   3.086 -0.0008 -0.0514  0.1362
30078W        W45972   3.343  17.918  15.326  0.0183  0.0544 -0.1296
30079W        W45973  15.375   7.737   1.812 -0.2473  0.0605  0.3371
30080W        W45974   1.051  15.090  12.717 -0.0312  0.0693 -0.0841
30081W        W45975   5.869  18.436  11.605  0.0382  0.3307 -0.2449
30082W        W45976   3.125  15.409  11.768 -0.3327  0.2322  0.0797
30083W        W45977  11.552   9.223   0.539  0.1576  0.0167 -0.1579
30084W        W45978   7.774   4.752  14.390 -0.3111  0.2132  0.1227
30085W        W45979   5.451   7.697   0.317  0.1140 -0.4318 -0.1233
30086W        W45980  14.275  11.738   5.936 -0.0360  0.0791  0.2325
30087W        W45981  11.663   6.352   9.971  0.2006  0.1077  0.1549
30088W        W45982   2.320  10.009  14.721  0.0079  0.0293  0.0984
30089W        W45983   9.330  10.272   3.720  0.0148  0.0728 -0.1635
30090W        W45984   0.301  11.129  13.059  0.1077 -0.1961  0.0384
30091W        W45985  18.242   1.595   0.817  0.0370 -0.0054  0.2270
30092W        W45986   5.607  12.874   4.985 -0.1150  0.1886  0.0894
30093W        W45987   4.887   3.361   0.861  0.0356 -0.1549 -0.1804
30094W        W45988   3.542   6.810   2.497  0.3195  0.1974  0.1390
30095W        W45989   5.694   5.752   4.559 -0.0160  0.2848  0.1643
30096W        W45990   4.840  10.320  10.820 -0.0666  0.0373 -0.0393
30097W        W45991  13.770  11.349  12.746  0.2095 -0.1810 -0.1061
30098W        W45992   6.044  10.479  14.069 -0.4090  0.0402  0.0271
30099W        W45993   2.964   7.133   3.134  0.0581 -0.0607 -0.0429
30100W        W45994  15.293   1.267   0.692 -0.0593 -0.0257  0.1340
30101W        W45995   9.716   4.490   3.486  0.0130 -0.3085 -0.2725
30102W        W45996   6.150  14.917   0.996 -0.0466  0.0029  0.3527
30103W        W45997  18.490  17.223  12.190  0.1545  0.0959 -0.0729
30104W        W45998   0.737   3.813   3.606 -0.1001  0.0195 -0.1059
30105W        W45999  16.001   8.480   5.143  0.0280  0.2454 -0.2482
30106W        W46000  13.308  17.976  13.115  0.2775 -0.0457  0.0909
30107W        W46001   0.096  12.542   3.868  0.1930  0.1032  0.3116
30108W        W46002  16.805   0.834  14.108 -0.0413  0.2403  0.0784
30109W        W46003  12.638   9.656   3.837  0.0686  0.3034 -0.3289
30110W        W46004   1.087   3.870  14.289  0.0339  0.0665  0.0099
30111W        W46005  11.515  13.133  11.684 -0.2112  0.1100 -0.0155
30112W        W46006  18.744   4.771  15.383  0.0588  0.0916 -0.0161
30113W        W46007  17.781   7.904   1.970 -0.1812  0.0411 -0.2932
30114W        W46008  14.413  18.492  11.287 -0.0389 -0.1431 -0.1070
30115W        W46009   3.129   7.343  11.817  0.1043  0.1123 -0.4308
30116W        W46010  11.277   4.732   0.690  0.1087  0.0303 -0.0187
30117W        W46011  12.720   1.683  13.094 -0.2243  0.1942 -0.2824
30118W        W46012  17.905  11.240   0.860  0.1685  0.0693 -0.3482
30119W        W46013   1.081  17.435   5.256  0.1280 -0.2546  0.0015
30120W        W46014  15.946  11.976   2.860 -0.0975  0.1629 -0.2994
30121W        W46015   4.040   4.926  13.065  0.1841 -0.0076  0.0568
30122W        W46016   6.752   8.405   4.499 -0.0286 -0.0592 -0.0204
30123W        W46017   1.906   5.755   3.571  0.1038  0.1834  0.1211
30124W        W46018  14.632   6.280   3.123 -0.0260 -0.1274 -0.0464
30125W        W46019  10.802   7.378   0.996  0.0364  0.0243 -0.2211
30126W        W46020   6.696   5.609  12.976 -0.0416 -0.2194 -0.1382
30127W        W46021   3.975   4.399  10.263  0.0396 -0.2156  0.1403
30128W        W46022   8.008  17.561  11.571  0.2098  0.0875  0.0311
30129W        W46023  10.556   7.993  14.412  0.1790 -0.0091  0.2581
30130W        W46024   8.544   3.102   2.015  0.0592  0.2700 -0.2413
30131W        W46025   8.488  14.578   4.754 -0.1032  0.1142 -0.1168
30132W        W46026   3.631   3.985   3.450  0.0516  0.2454  0.1798
30133W        W46027  16.105   9.486   0.703  0.0652 -0.2071  0.0209
30134W        W46028   2.755  12.207  13.385  0.2160  0.2076  0.1261
30135W        W46029  10.720  10.129  13.018 -0.1753  0.0881  0.1836
30136W        W46030  12.301  13.531  14.192  0.2510 -0.0259  0.1292
30137W        W46031   5.946  14.384   0.123  0.0448 -0.0217 -0.0991
30138W        W46032   7.137   8.977  12.376 -0.1838  0.0109 -0.2186
30139W        W46033  15.926   6.099   4.617 -0.0275 -0.0661  0.2541
30140W        W46034  15.221  15.964  13.437  0.1143 -0.3416  0.1932
30141W        W46035   3.595  15.900   3.611  0.1066 -0.0140  0.3957
30142W        W46036  10.858  16.648  13.035  0.3339  0.0947 -0.1060
30143W        W46037   6.567  12.410   3.738  0.1906 -0.0877  0.0369
30144W        W46038   0.221   1.230   1.826  0.0618  0.2747 -0.0639
30145W        W46039  10.788   9.059  13.231 -0.0950 -0.2576 -0.1783
30146W        W46040   8.266  16.624   1.329  0.4488 -0.1559 -0.3539
30147W        W46041   5.349  15.336   1.257 -0.1004 -0.1875 -0.1397
30148W        W46042  16.034  11.601  12.814 -0.0070 -0.3127  0.1184
30149W        W46043  15.824   1.306  12.130 -0.1710 -0.0198 -0.0985
30150W        W46044   5.769   6.980  11.579  0.0878 -0.1855 -0.0014
30151W        W46045  11.925  16.362   3.888 -0.2120 -0.1222  0.2412
30152W        W46046   1.990  14.942   0.577 -0.0358 -0.1668 -0.1753
30153W        W46047   9.761   5.636  13.442 -0.0574  0.0399 -0.1471
30154W        W46048  14.854   4.673  15.085 -0.2325  0.0924  0.3605
30155W        W46049   2.311   1.800   1.332  0.0672  0.0835 -0.0694
30156W        W46050   8.114  12.848   9.576 -0.1570 -0.2282  0.0330
30157W        W46051  10.030  14.586  12.913  0.3012 -0.0673  0.1804
30158W        W46052   6.862   4.305  11.048 -0.0469  0.3359  0.0908
30159W        W46053  18.514   9.215  13.143 -0.1775 -0.0351  0.0902
30160W        W46054  10.419  17.565   2.337  0.2787 -0.1145 -0.3194
30161W        W46055   3.403   9.416   4.775  0.0961 -0.3334  0.0836
30162W        W46056   0.958   9.823   3.654 -0.1553 -0.0055 -0.2390
30163W        W46057  13.179   2.587   3.692  0.0681  0.0845 -0.0805
30164W        W46058   7.181  15.446  12.303  0.0447  0.0043  0.2133
30165W        W46059   1.182   9.572   5.101  0.0147 -0.0853  0.0943
30166W        W46060  14.741   6.449  11.929 -0.2837 -0.2244 -0.1744
30167W        W46061   1.321  18.881   1.645  0.0899  0.1526 -0.3177
30168W        W46062   3.661  11.195  11.390 -0.0412  0.0744  0.1497
30169W        W46063  13.209  11.086  13.114 -0.0400 -0.0803 -0.1911
30170W        W46064  14.556   1.631  12.612 -0.1197  0.3020 -0.0150
30171W        W46065   9.382   1.799  10.386 -0.1975 -0.0477  0.1219
30172W        W46066   0.976   3.115  12.067 -0.1123  0.0943 -0.1564
30173W        W46067  12.295  16.067   1.568  0.0350  0.1821 -0.3869
30174W        W46068   2.600  16.010   4.021  0.0378 -0.1607 -0.0414
30175W        W46069  15.460  13.257   5.579  0.2511  0.0255  0.2493
30176W        W46070   8.899   9.565  11.800 -0.0242 -0.0171  0.0588
30177W        W46071  13.321  10.918   2.418 -0.0248 -0.2629  0.3094
30178W        W46072   9.379   8.302   2.849  0.1558 -0.1414 -0.0295
30179W        W46073  13.579   7.818  14.683  0.3390 -0.1339 -0.1233
30180W        W46074  16.248   2.531   2.537  0.1090  0.0744  0.2421
30181W        W46075  13.067  10.971   3.907  0.3533  0.0993 -0.1967
30182W        W46076   3.238   9.454  15.327 -0.2256 -0.0672 -0.0862
30183W        W46077  16.207  18.510  13.209  0.0359  0.3620  0.4061
30184W        W46078  15.981   3.912   3.129 -0.2571 -0.1754 -0.0440
30185W        W46079   7.682  11.817   2.386  0.1757  0.2047 -0.0946
30186W        W46080   5.360   4.323   1.753  0.1506  0.0962  0.0346
30187W        W46081  12.272   6.252  14.692 -0.0933 -0.0423  0.0724
30188W        W46082  13.625  10.374  12.617  0.0707  0.2129  0.1244
30189W        W46083  16.608  17.295   0.761 -0.3485  0.1719  0.5564
30190W        W46084   3.975   0.504   2.458 -0.0572  0.0482 -0.0367
30191W        W46085   8.790  17.737   0.609  0.1681  0.2474  0.1052
30192W        W46086   6.466  10.074  12.466 -0.1266  0.1691  0.0260
30193W        W46087  16.020  15.966   1.369  0.0036  0.0129 -0.0589
30194W        W46088  10.519   1.674   0.754 -0.3672 -0.2638  0.1889
30195W        W46089   7.947   4.218  10.679  0.2867 -0.0873 -0.1585
30196W        W46090  17.833  10.133  14.813 -0.2436 -0.0534  0.0768
30197W        W46091   6.595  17.494   1.067  0.1326  0.3477  0.1746
30198W        W46092   4.823   3.888  13.549 -0.0315  0.1844 -0.1453
30199W        W46093  17.038  18.712  15.123  0.2612  0.2646 -0.0039
30200W        W46094   6.198   9.172  15.476  0.0075  0.0477  0.0440
30201W        W46095  10.191   7.999   2.757  0.0483  0.0044  0.1079
30202W        W46096   7.443   7.469   1.030  0.1214  0.0708  0.2770
30203W        W46097  18.436   2.569   2.055  0.0982 -0.0652 -0.1155
30204W        W46098  16.322  12.562  13.850 -0.2625  0.0700  0.1863
30205W        W46099  11.786   8.899   2.375  0.2693 -0.1721  0.2531
30206W        W46100   7.480  18.738   1.920 -0.1517 -0.0907 -0.0189
30207W        W46101  12.216   2.158   1.249  0.3962  0.0136 -0.2201
30208W        W46102  17.486   8.076  14.362  0.0799  0.0913  0.1052
30209W        W46103   7.688   8.875  12.452 -0.2129  0.3376  0.4194
30210W        W46104   8.102   4.864  11.923  0.1566 -0.1214  0.0170
30211W        W46105  13.061  18.146   2.616 -0.0069  0.3110 -0.1488
30212W        W46106   1.463   6.175   4.292  0.0055 -0.0211  0.2435
30213W        W46107   3.097  12.073   3.881 -0.0141 -0.2627 -0.1677
30214W        W46108  14.910  16.732   4.344 -0.1566  0.1419 -0.3068
30215W        W46109  11.183  13.057   0.264  0.2773 -0.3341  0.0298
30216W        W46110   5.250  11.761   4.341 -0.1277  0.3586 -0.1012
30217W        W46111   8.373   9.094  14.082 -0.0833  0.0401  0.2245
30218W        W46112  17.972  17.777  10.667  0.0658  0.1949  0.4647
30219W        W46113  13.802   7.650   3.642  0.0870  0.0065  0.0343
30220W        W46114   9.789   3.159  10.954 -0.3290 -0.0225 -0.2389
30221W        W46115  11.052  11.905  14.692 -0.2092  0.1132  0.1164
30222W        W46116   9.625  11.513  13.086 -0.3046  0.1438 -0.0863
30223W        W46117   1.139   3.482  13.420  0.0115 -0.0777 -0.5190
30224W        W46118  13.818  14.404  14.331 -0.0359 -0.1047  0.0115
30225W        W46119  15.254   1.030   3.450 -0.0484  0.1389  0.1295
30226W        W46120   2.397   3.898  13.500  0.1826  0.0711  0.0510
30227W        W46121   6.306   8.014   0.323  0.1763 -0.1790 -0.0364
30228W        W46122   1.899   6.944  10.194 -0.0122  0.0372  0.0622
30229W        W46123  16.805   8.812  11.387 -0.1080  0.0249 -0.2547
30230W        W46124  11.816   4.671  11.204  0.0204  0.4965 -0.1977
30231W        W46125  14.049  12.285  11.124 -0.2528 -0.2041  0.0096
30232W        W46126  17.812  11.257  12.825 -0.0359  0.1500  0.2264
30233W        W46127  16.893  18.436   2.566  0.1145 -0.0541  0.0103
30234W        W46128   8.498  14.521   3.143  0.1470  0.0929 -0.0312
30235W        W46129  17.314   1.424   9.765 -0.0157 -0.0414 -0.1697
30236W        W46130   1.495  10.536   0.671  0.1050  0.1164  0.0075
30237W        W46131  13.106   7.696  12.803  0.1377 -0.4481  0.1377
30238W        W46132   9.145   3.341  11.948 -0.3315  0.0027 -0.0516
30239W        W46133   9.337   2.858  13.819 -0.1807 -0.0622 -0.5380
30240W        W46134   1.745   5.326   1.458 -0.4584 -0.0327 -0.1279
30241W        W46135   4.151  16.439  11.208  0.1180 -0.1900 -0.1288
30242W        W46136  14.460  15.678   2.923  0.2232 -0.2369 -0.0413
30243W        W46137   5.208  17.916   2.665 -0.1531 -0.1540  0.1427
30244W        W46138   3.515   2.703   0.221  0.0959  0.0698 -0.1790
30245W        W46139  16.359   4.545  14.200  0.1474  0.1116  0.1795
30246W        W46140   2.690   4.910   4.409  0.1726  0.1199  0.0625
30247W        W46141   4.451  18.285   0.608 -0.2626  0.0249 -0.0244
30248W        W46142  12.679   6.634   0.892 -0.1293 -0.3177  0.0764
30249W        W46143   0.220  17.632   4.335 -0.0222  0.0644 -0.0628
30250W        W46144   6.079   7.046  13.646  0.1490  0.0493  0.0847
30251W        W46145  12.258   1.002  14.347  0.0538  0.0191 -0.0373
30252W        W46146   0.963  18.135   1.268 -0.0906 -0.0247  0.3117
30253W        W46147   0.664   4.185  11.488 -0.2224 -0.1920  0.0980
30254W        W46148   8.336   2.647   2.090  0.1257 -0.0092 -0.3472
30255W        W46149  10.776  14.637  13.570 -0.1561 -0.2399 -0.0540
30256W        W46150   5.812   9.448   5.648  0.2274  0.0483 -0.2264
30257W        W46151   7.788  18.140   2.609  0.2453 -0.1382  0.0295
30258W        W46152  17.190   8.288   2.445  0.0037  0.3892 -0.0534
30259W        W46153   4.966   2.286  14.274 -0.1354 -0.0701  0.1092
30260W        W46154  14.739  16.797   0.072  0.0830  0.1034 -0.2661
30261W        W46155  14.766   3.120   5.453  0.0975 -0.3004  0.0041
30262W        W46156   4.826   8.366   3.658 -0.2460  0.1280 -0.1235
30263W        W46157  15.234   1.673   1.059 -0.1318  0.2006 -0.0604
30264W        W46158   2.604  18.517   2.640  0.3888  0.0091 -0.1677
30265W        W46159  18.104  15.772   2.156 -0.2270 -0.2356  0.3295
30266W        W46160  17.614  11.408   2.578  0.3210  0.2135 -0.3227
30267W        W46161  11.261   3.289   3.623  0.2373  0.1268 -0.0082
30268W        W46162   6.115  18.636  14.624 -0.1208  0.0704 -0.0222
30269W        W46163  11.400   1.885   5.717  0.3138  0.0468 -0.1180
30270W        W46164   0.682   0.218  13.793 -0.0253  0.0039 -0.1819
30271W        W46165  10.570  12.253  13.558 -0.1750 -0.1190 -0.0348
30272W        W46166   3.958  13.398  15.121 -0.1952  0.1709 -0.1585
30273W        W46167   6.059   3.124  12.821  0.0005  0.2848  0.1235
30274W        W46168   2.450  16.392  12.068  0.1326  0.1639 -0.1046
30275W        W46169   7.079   5.756   4.614  0.1628 -0.1440  0.0924
30276W        W46170  11.704   8.892  15.213  0.0837 -0.0367 -0.1368
30277W        W46171  16.784  18.033  12.294 -0.0092  0.0745  0.0820
30278W        W46172   3.509  13.101  11.706 -0.1013  0.2083 -0.2892
30279W        W46173   1.781  18.243  10.562 -0.1098  0.0440  0.1223
30280W        W46174  12.847  12.825  13.630  0.1148  0.0768  0.1315
30281W        W46175   0.000   4.487   2.624  0.2583  0.1699 -0.0551
30282W        W46176  15.418   9.515   0.042 -0.2250 -0.0864  0.0649
30283W        W46177  14.336  10.667  11.577  0.1522  0.0287  0.2465
30284W        W46178  14.250   7.642   3.395  0.2889  0.0355  0.1087
30285W        W46179  11.298   8.675   4.641 -0.2196  0.0384  0.0800
30286W        W46180   4.144   2.151   2.607 -0.0632  0.2996 -0.0536
30287W        W46181   6.720   5.061   0.838 -0.1237 -0.0380  0.0361
30288W        W46182  16.894   2.346   4.568  0.0219 -0.1899  0.0646
30289W        W46183  10.262   3.009   1.008  0.0134 -0.2240  0.0838
30290W        W46184  12.367  12.205   2.440 -0.1743 -0.0798  0.3870
30291W        W46185   8.879   5.941   2.361  0.3516  0.1704 -0.2499
30292W        W46186   3.432  17.601   1.126  0.0627  0.3201  0.0729
30293W        W46187  15.482  12.659  13.357 -0.3133 -0.2873 -0.2798
30294W        W46188  10.225   2.972  11.804 -0.0101  0.0739  0.2558
30295W        W46189   1.410  15.266   3.142  0.0358  0.2976 -0.0145
30296W        W46190  10.046   7.196  12.566 -0.1960 -0.1649 -0.0720
30297W        W46191  10.987  18.013   0.039  0.2599  0.1083 -0.0846
30298W        W46192   7.643  11.848   3.500 -0.2248  0.4002  0.1930
30299W        W46193  14.563   3.368  15.444  0.4443 -0.0557  0.1298
30300W        W46194   0.363   3.256   1.311 -0.0577 -0.3100 -0.1259
30301W        W46195   2.661  14.070  12.563  0.0133  0.3937  0.1636
30302W        W46196  11.646  16.919   5.119 -0.0767  0.0325  0.2015
30303W        W46197  18.720   1.774  14.661  0.0631 -0.1028 -0.1250
30304W        W46198   7.622   8.721   5.751  0.2420  0.0248 -0.0473
30305W        W46199  13.290  17.466   1.184  0.2700  0.0776  0.1377
30306W        W46200  12.026  13.733  11.303  0.3008 -0.2625 -0.0328
30307W        W46201  18.778   8.421   3.569 -0.0900  0.2357  0.2349
30308W        W46202   8.658  17.063  10.248  0.1409 -0.4819 -0.1058
30309W        W46203   1.141  16.006  10.851 -0.2605 -0.0193  0.0339
30310W        W46204  12.909   5.843  13.860  0.3386 -0.1019  0.0140
30311W        W46205  18.100   8.849   2.971  0.0302  0.0574  0.1943
30312W        W46206  14.858   2.810   4.752  0.2553  0.1098  0.0168
30313W        W46207  12.269  10.430  13.329 -0.0797  0.0323  0.1732
30314W        W46208   6.660  11.336   0.094  0.1853 -0.3492 -0.2035
30315W        W46209   7.227  13.914   4.080 -0.0763 -0.2284  0.0653
30316W        W46210  14.537  16.093  13.020 -0.0832 -0.0735 -0.2431
30317W        W46211  10.528   4.816  11.519 -0.2468  0.1998 -0.1189
30318W        W46212  14.938  10.410  11.056  0.4225 -0.1372 -0.2069
30319W        W46213  11.326  10.453   4.306  0.0889  0.3104  0.0155
30320W        W46214   4.512   4.276  13.582  0.0577 -0.2435 -0.0730
30321W        W46215   2.426  14.617   3.378  0.2103 -0.3104 -0.0044
30322W        W46216  10.238  11.324  14.143 -0.0085  0.2987  0.0419
30323W        W46217   6.556  17.482   3.059 -0.1547  0.2979  0.2344
30324W        W46218   2.297  11.727  12.263  0.2131  0.0939  0.0152
30325W        W46219  12.876   1.303   4.094 -0.1170  0.1567  0.3618
30326W        W46220   9.245   3.606   4.939  0.0048  0.1369 -0.0641
30327W        W46221  16.462   0.852   1.338 -0.1915  0.2348  0.0287
30328W        W46222  10.936   4.058  13.222 -0.1022  0.0730 -0.0777
30329W        W46223  16.110   7.083  10.773 -0.2446  0.0962 -0.3835
30330W        W46224  16.927   8.213  12.961  0.0033 -0.2293 -0.2546
30331W        W46225  14.248  11.652  13.640 -0.3080  0.1152 -0.1126
30332W        W46226   0.285  16.379   0.280  0.0101 -0.1411  0.1003
30333W        W46227   5.676  13.412   3.738 -0.0353 -0.3149 -0.0601
30334W        W46228   1.166   4.659   1.959 -0.0428  0.0319  0.0736
30335W        W46229   9.939  14.744  11.836  0.3015  0.3232 -0.1757
30336W        W46230  12.644  16.747  11.611  0.0667 -0.0372  0.0185
30337W        W46231  11.178   5.947  13.870  0.0206 -0.0757 -0.0333
30338W        W46232  11.154  17.651   4.817  0.1744  0.1332 -0.0500
30339W        W46233   5.105   3.135  13.390  0.4549 -0.0492  0.0586
30340W        W46234  10.374   7.502  12.189  0.1742  0.2271 -0.0635
30341W        W46235   8.350  18.012   3.935 -0.1513 -0.0365 -0.1491
30342W        W46236   7.399   9.393  14.148 -0.4272  0.2042  0.2143
30343W        W46237   2.785   5.649   4.743  0.2250 -0.0584 -0.0470
30344W        W46238  11.392   9.181   9.748  0.1277  0.0799  0.0715
30345W        W46239   9.401   8.946   5.600  0.0490  0.3234 -0.0318
30346W        W46240  13.119   5.139  11.623  0.0017 -0.0896 -0.1991
30347W        W46241  12.798  16.493   2.131 -0.3269  0.0624  0.0338
30348W        W46242  14.965  16.619   1.608 -0.2368  0.1623 -0.0159
30349W        W46243  15.498   0.592   0.743  0.0319  0.2547 -0.0892
30350W        W46244  11.173   9.958   2.587 -0.1295  0.3387  0.3454
30351W        W46245  17.538   0.307   0.546 -0.1051 -0.1405  0.1749
30352W        W46246   2.295   8.739  12.673  0.0183  0.1225  0.0781
30353W        W46247   2.885  14.821  15.329 -0.0064 -0.1510 -0.0734
30354W        W46248   7.686   7.644   4.362  0.0334  0.2942 -0.2195
30355W        W46249  17.847   5.360   0.123  0.0284  0.1482  0.0765
30356W        W46250  10.593  14.314  11.851  0.1451  0.0227  0.3651
30357W        W46251   1.724   9.647   5.596 -0.2071 -0.3406  0.2558
30358W        W46252   2.552   5.754   2.393 -0.0836  0.1427  0.2870
30359W        W46253  11.273  12.796  14.231 -0.0735 -0.1605 -0.1596
30360W        W46254   9.094  18.310  14.007  0.1754  0.4057  0.2138
30361W        W46255  13.403  11.787   5.585  0.1072  0.0712 -0.0024
30362W        W46256   7.018  16.379   4.857 -0.0506 -0.1269  0.1665
30363W        W46257   0.291   6.721  14.278  0.1531 -0.2739  0.3236
30364W        W46258  14.951   1.889   3.702  0.1189 -0.0593 -0.0135
30365W        W46259  13.804  10.743  12.272  0.2512  0.1711 -0.1220
30366W        W46260   4.337  12.745   0.867  0.1897  0.0239  0.0222
30367W        W46261  12.244   8.241   3.375 -0.0435 -0.3260  0.0365
30368W        W46262   2.134   0.098   1.541  0.0616  0.0448 -0.3372
30369W        W46263  10.888   1.867   0.101  0.0710  0.0399 -0.1110
30370W        W46264  12.233   5.389   0.555  0.1486 -0.2083 -0.0594
30371W        W46265  15.893  11.998  14.470 -0.0282  0.2453 -0.3753
30372W        W46266  13.309   2.151   2.787 -0.2529  0.1882 -0.0407
30373W        W46267  13.632  16.623  11.597  0.2013  0.2960  0.0793
30374W        W46268   5.428   2.388  14.129 -0.1379 -0.0832 -0.0683
30375W        W46269   7.326  13.929  12.884  0.4107 -0.0389  0.1026
30376W        W46270   0.287   2.697   0.840  0.1647 -0.3066 -0.0289
30377W        W46271   3.868  12.631   3.882 -0.2332  0.2900  0.0545
30378W        W46272  17.952   9.818   3.682 -0.3044  0.3058 -0.1036
30379W        W46273   2.259   4.898  11.602 -0.1650  0.2968 -0.2771
30380W        W46274  16.717  11.202  12.754  0.0750  0.1330  0.2484
30381W        W46275   8.055  16.095   1.144  0.2221  0.1259  0.0092
30382W        W46276  14.346  13.896  11.579  0.2520  0.3685  0.1924
30383W        W46277   1.742   0.320  12.822 -0.1166  0.3388  0.1332
30384W        W46278  16.985   1.041   0.172 -0.2988  0.3633  0.1381
30385W        W46279   4.123   4.084  11.649  0.1602  0.1328  0.2466
30386W        W46280  15.289   8.989   3.000  0.1452  0.1206 -0.1766
30387W        W46281   8.249  14.399   1.160  0.0715 -0.0382 -0.2173
30388W        W46282  18.011  17.293   0.143  0.0062 -0.1952  0.0226
30389W        W46283   2.666  14.649   4.890  0.2846 -0.0092  0.2678
30390W        W46284  14.821   9.719   3.733 -0.2955 -0.1848  0.0419
30391W        W46285  13.540  11.017   4.871  0.2265  0.1701 -0.0416
30392W        W46286   8.921  18.666   4.187 -0.0509 -0.1053 -0.0174
30393W        W46287   5.544   0.217  12.479  0.1265 -0.0573 -0.1893
30394W        W46288   1.569   2.346  14.372 -0.2727  0.1320 -0.2474
30395W        W46289   8.038   3.865  14.918  0.3084 -0.2263 -0.1066
30396W        W46290   0.019  10.677  13.083 -0.1630 -0.0991  0.1064
30397W        W46291  13.949  18.351  11.515 -0.3290  0.0333  0.1709
30398W        W46292  18.206   3.492  10.987 -0.0113  0.4345  0.0182
30399W        W46293  16.600   5.742  10.389  0.0242 -0.1666  0.2301
30400W        W46294  11.726   2.671   2.391  0.3588 -0.0113 -0.0777
30401W        W46295   3.880  12.883  15.006  0.3011  0.0854  0.3487
30402W        W46296   9.212   5.102   3.489  0.1591  0.0464  0.1595
30403W        W46297  15.230   5.996   0.561 -0.1043 -0.2511  0.0711
30404W        W46298   7.824  12.194  11.686 -0.2480 -0.2308 -0.0943
30405W        W46299   3.658   4.520  12.750 -0.1398  0.0604  0.0400
30406W        W46300  17.527  13.335   4.075 -0.0783  0.1443  0.2151
30407W        W46301   3.566   3.381  13.833  0.1660  0.0523  0.0316
30408W        W46302   6.441  18.209  14.748  0.1229  0.0178  0.0089
30409W        W46303  12.957  16.991  11.290  0.5044 -0.0118 -0.1371
30410W        W46304   3.803   2.958  13.163  0.1632  0.0454 -0.2780
30411W        W46305  17.813  14.750  14.789  0.3255 -0.1734  0.0018
30412W        W46306   8.454   4.157   4.158  0.0466 -0.0305  0.0443
30413W        W46307   6.153  16.686   1.872  0.0562 -0.2036 -0.0641
30414W        W46308  10.387  10.580  13.815  0.4854  0.2037 -0.1117
30415W        W46309  17.881  11.537   2.993  0.4059 -0.0055  0.2370
30416W        W46310  16.417   5.035   1.118  0.3043 -0.0308 -0.0181
30417W        W46311  16.712  16.630  14.338 -0.1999  0.3845  0.1842
30418W        W46312  15.149   9.281   2.444 -0.2399  0.2376 -0.3080
30419W        W46313  13.354   7.838   4.041  0.1086 -0.0524 -0.0641
30420W        W46314   5.340  15.146   4.394 -0.0138  0.1010 -0.0119
30421W        W46315  16.009   7.654  14.668  0.2049 -0.1611  0.3340
30422W        W46316  17.426   2.191   3.223  0.0910  0.0814  0.1388
30423W        W46317   2.968  15.808  12.754  0.0163  0.1370  0.0568
30424W        W46318   3.708   7.903   1.701  0.1347  0.1586 -0.0506
30425W        W46319  14.428  17.729   5.237  0.0400 -0.0929 -0.0506
30426W        W46320   9.333   4.430  11.231  0.1441 -0.0390  0.0115
30427W        W46321  11.608  13.506   2.164 -0.1578  0.0380 -0.2495
30428W        W46322  10.982  13.297   4.445 -0.0509  0.0328  0.1788
30429W        W46323   6.854  12.705   4.227  0.1573 -0.0360  0.1460
30430W        W46324   4.523  13.908  14.326  0.1826 -0.1290 -0.0397
30431W        W46325   5.946   1.198  14.079 -0.0341 -0.2512  0.0920
30432W        W46326   3.551  18.231   0.414 -0.0502  0.1299  0.1316
30433W        W46327  17.844  13.463  14.501  0.0673 -0.2038 -0.2199
30434W        W46328   3.743   1.367  15.081 -0.1374  0.0090  0.1182
30435W        W46329   1.341  13.110  11.639 -0.2328  0.3214 -0.1678
30436W        W46330  13.392  15.844  11.598  0.0117  0.0596 -0.1986
30437W        W46331  11.347   0.013  11.408  0.0242 -0.2559  0.0180
30438W        W46332  14.693  13.425   0.022 -0.1569  0.5007 -0.2429
30439W        W46333  18.278   3.025   5.331 -0.2167  0.5828 -0.1305
30440W        W46334  14.036  13.506   1.771  0.0597  0.0340  0.3182
30441W        W46335  13.758  13.350   2.774  0.2170  0.0731  0.1356
30442W        W46336  13.964  17.009  11.420  0.2440  0.0181  0.2038
30443W        W46337   6.260   2.668   0.972  0.0879 -0.1825  0.1984
30444W        W46338  16.766  12.159  13.064 -0.2175 -0.4638 -0.2436
30445W        W46339  11.211  10.760   4.732  0.3021  0.1688 -0.4386
30446W        W46340   9.948  10.640  11.862  0.1504 -0.2946 -0.1628
30447W        W46341   7.836  14.518  15.386 -0.1707 -0.0560  0.2317
30448W        W46342   4.008   4.727   1.371 -0.0429  0.1003 -0.2826
30449W        W46343   2.899  12.665   0.398  0.1411 -0.0070  0.0350
30450W        W46344  18.843  16.822   9.666 -0.2872  0.1117  0.1129
30451W        W46345  12.000  11.981  12.850 -0.2415 -0.1040  0.3956
30452W        W46346   1.955  12.762  10.243 -0.2437  0.3102 -0.1197
30453W        W46347  18.421  17.291  11.708 -0.1616 -0.2841 -0.2654
30454W        W46348   2.641   5.143  11.471  0.1938 -0.0695 -0.2039
30455W        W46349  14.877   9.055   5.137  0.0587  0.2255 -0.0851
30456W        W46350  13.433   8.493  13.135 -0.2285  0.1008 -0.0661
30457W        W46351  16.305  11.270  11.939  0.0395 -0.0238  0.2992
30458W        W46352   5.164   6.575   2.395  0.5209  0.2330 -0.1070
30459W        W46353   0.890  17.198   0.194  0.2938  0.2412 -0.2930
30460W        W46354  16.012  13.876   0.200 -0.1268 -0.0499 -0.0110
30461W        W46355  15.537   1.891  14.108  0.2797 -0.0155 -0.1496
30462W        W46356  13.349   7.458  13.198  0.1516 -0.1406  0.0157
30463W        W46357  10.014   8.142   1.951 -0.1753  0.1000 -0.0456
30464W        W46358  15.673  14.958  14.954 -0.3073  0.0416 -0.2265
30465W        W46359   9.432  17.174  13.586 -0.1976  0.0393  0.0203
30466W        W46360  12.779   6.202  12.956  0.0897 -0.3767 -0.1173
30467W        W46361   1.469   4.504  12.566  0.2047 -0.1522  0.2783
30468W        W46362   0.114  14.102   5.710  0.0615  0.1969 -0.0519
30469W        W46363   7.094  12.360   5.709 -0.0666 -0.0295 -0.2312
30470W        W46364   4.456  11.288   3.605 -0.1511  0.0628 -0.2654
30471W        W46365   5.052  11.882   1.214 -0.0680 -0.1083  0.0137
30472W        W46366   3.179  11.630  11.929 -0.1286  0.3468  0.1563
30473W        W46367   4.986  18.191  10.105  0.4315 -0.1439  0.2136
30474W        W46368   9.947   9.198   5.075 -0.0098  0.0608 -0.0788
30475W        W46369  11.205  18.548   2.829  0.1999 -0.1813 -0.3689
30476W        W46370  16.096   3.742  13.099  0.3614 -0.0413  0.1923
30477W        W46371   4.241   7.161  14.776 -0.0472  0.1039  0.1301
30478W        W46372   3.984   9.558   2.630 -0.1448 -0.0646  0.0516
30479W        W46373   8.024   8.181   2.378 -0.2548  0.0681  0.2184
30480W        W46374   1.656   8.498   3.382 -0.1520 -0.0527 -0.0462
30481W        W46375  14.075   7.522  12.653  0.0032 -0.0821 -0.1001
30482W        W46376  10.828   4.612   4.071 -0.3506  0.1390  0.0882
30483W        W46377   2.141   8.950  10.487 -0.0318  0.2393  0.3993
30484W        W46378  11.071   2.908   3.304 -0.1296 -0.0028 -0.1207
30485W        W46379   3.603   6.418  10.458 -0.0921  0.3249 -0.0597
30486W        W46380   8.743  13.877   5.998 -0.1188 -0.1057 -0.2647
30487W        W46381   4.600  14.159  15.132 -0.1083 -0.0878  0.0193
30488W        W46382  16.297   9.459  12.694  0.2749 -0.0299 -0.2085
30489W        W46383   9.339  18.750   2.352 -0.0042 -0.2011  0.1798
30490W        W46384  16.694   3.612  14.602  0.3343  0.1242 -0.2351
30491W        W46385   2.353   3.091  13.225 -0.2730  0.0168  0.1845
30492W        W46386   9.326   5.632   4.341 -0.0923 -0.1704  0.3120
30493W        W46387  15.069  13.325   4.712  0.0595 -0.0591 -0.0787
30494W        W46388   9.935   7.031  10.102  0.1962  0.0146  0.2658
30495W        W46389  13.238  15.176   4.961  0.2287  0.1502 -0.0957
30496W        W46390   2.377  10.258  11.216 -0.1616  0.1353  0.0568
30497W        W46391   9.595  12.342   3.721 -0.0028  0.0203 -0.0425
30498W        W46392  18.582   6.127  13.781  0.0707  0.1098 -0.2020
30499W        W46393   4.433   2.645   0.190  0.1202  0.1315  0.0271
30500W        W46394   2.295  17.609  10.906 -0.0900  0.0135  0.2295
30501W        W46395  10.270  17.704   0.801  0.0758 -0.0508  0.0793
30502W        W46396   6.599  12.287   0.430  0.2253 -0.1516 -0.2848
30503W        W46397  18.046  10.306  14.121  0.0043 -0.0565 -0.0400
30504W        W46398  17.683   3.029   2.613 -0.1328  0.2668  0.2376
30505W        W46399   4.832  18.439  13.284 -0.4974  0.2533  0.1140
30506W        W46400  14.321   4.715   4.849  0.1265 -0.2708  0.0358
30507W        W46401   7.976   2.896  14.181  0.0523 -0.0339 -0.2848
30508W        W46402   3.266  11.873  11.302  0.1866  0.1549 -0.0031
30509W        W46403   4.309   8.657  13.373  0.1928  0.2304  0.1209
30510W        W46404  15.107  17.559  11.678  0.2378 -0.0276  0.1575
30511W        W46405  16.535   3.447   5.513  0.2467 -0.1383  0.2615
30512W        W46406   4.722   5.797  15.062  0.2260 -0.0624  0.2897
30513W        W46407  14.734   5.419   4.820 -0.0714 -0.0927 -0.0322
30514W        W46408  10.855  16.349   0.883  0.1018 -0.0654  0.0046
30515W        W46409   8.349  14.708   9.761 -0.0532  0.2588  0.1163
30516W        W46410   1.113  13.730   3.364 -0.1924  0.4408 -0.0177
30517W        W46411  14.476  18.036  10.195  0.0965 -0.0035  0.1258
30518W        W46412  16.573  14.650  14.089 -0.1537 -0.1179 -0.3052
30519W        W46413   9.454   0.229  12.260 -0.0199  0.0241 -0.1325
30520W        W46414  15.258   2.490  13.426  0.1216  0.0079  0.0380
30521W        W46415   5.622  11.735  12.213 -0.0687 -0.1951  0.0280
30522W        W46416   7.447  17.961  15.154 -0.0587  0.1827  0.0841
30523W        W46417   2.643   9.052   3.122  0.1567 -0.0368 -0.2443
30524W        W46418  13.550   8.013  11.259 -0.1667 -0.1737  0.1066
30525W        W46419  13.277   6.195   4.733 -0.3629  0.1829  0.0233
30526W        W46420  18.389   0.559  13.330 -0.3810 -0.0793  0.0143
30527W        W46421   3.475  10.735  11.557  0.0630 -0.0369 -0.1505
30528W        W46422  17.730   8.455  13.559 -0.2725 -0.2624  0.1926
30529W        W46423   5.427  11.080   4.371  0.4499 -0.2245  0.0761
30530W        W46424   3.715  12.448  13.612 -0.0392 -0.0511 -0.4174
30531W        W46425  13.784   9.220  13.702  0.2284 -0.1283 -0.0484
30532W        W46426  10.536  16.686   1.184 -0.0180 -0.1499 -0.2194
30533W        W46427  10.837   0.983   5.679 -0.1666  0.4701 -0.0391
30534W        W46428   8.961   2.573  13.552  0.0733  0.1392  0.2366
30535W        W46429   8.659  12.314  13.931  0.3162 -0.0283 -0.1521
30536W        W46430  17.417   2.988  12.410  0.3348 -0.2664  0.1284
30537W        W46431   2.438   3.494   3.270  0.3738 -0.1165 -0.3703
30538W        W46432  10.305   4.135   4.518 -0.1178  0.4233 -0.0616
30539W        W46433   1.442   4.924   2.339  0.1217  0.1472 -0.1566
30540W        W46434  16.999  17.643   4.366  0.0585  0.2450  0.0985
30541W        W46435  13.970  15.219   2.393 -0.4833  0.1074 -0.0762
30542W        W46436  17.116  12.615  10.990  0.0413 -0.1835 -0.2056
30543W        W46437  17.625   6.201  11.735 -0.1876  0.2208 -0.3970
30544W        W46438  18.283  17.559  14.679  0.0777  0.1696  0.0428
30545W        W46439  10.886  17.319  13.703 -0.2747  0.2335  0.1224
30546W        W46440  14.599   4.516   3.899 -0.0138  0.2226  0.2773
30547W        W46441   8.745   5.226   0.201 -0.1018  0.2594  0.2240
30548W        W46442  15.677  10.973  11.124 -0.0918  0.3113  0.1215
30549W        W46443   7.632  17.609  14.490  0.0284  0.1874 -0.1210
30550W        W46444   9.548   9.841   3.972  0.0249 -0.0071  0.2669
30551W        W46445   0.130  17.929  12.182  0.4850 -0.0170  0.0555
30552W        W46446  10.823  14.094   4.657 -0.0727  0.0380  0.0825
30553W        W46447  11.076   4.439   9.772 -0.1726  0.3464  0.0319
30554W        W46448  15.720  10.873   1.017 -0.1241  0.1145  0.3091
30555W        W46449   7.621   2.997   4.164 -0.1674 -0.0528 -0.0785
30556W        W46450  11.224   5.878   1.500  0.1340 -0.0954  0.3129
30557W        W46451   2.667  17.123  11.725  0.1282 -0.2581 -0.0469
30558W        W46452   7.256   4.799  12.280  0.1274  0.3263 -0.0255
30559W        W46453   1.144   4.446  11.309  0.1137  0.0724  0.1401
30560W        W46454   6.508  18.502  14.292  0.1667  0.1163  0.0079
30561W        W46455  15.488  14.431  12.390 -0.1947  0.0420  0.0678
30562W        W46456  15.869   4.949  12.282 -0.0712  0.1650  0.0075
30563W        W46457  12.503  14.678   1.476 -0.1976 -0.0700 -0.3984
30564W        W46458  14.887  15.219   4.912  0.0797  0.2834  0.1098
30565W        W46459  12.889   3.717   3.608  0.0812  0.0261  0.2135
30566W        W46460  15.712  13.871   3.833  0.0586  0.1091  0.0713
30567W        W46461   6.782   8.055   0.779 -0.2404  0.1151 -0.4283
30568W        W46462   8.270  14.961  10.755  0.1158 -0.1954  0.3287
30569W        W46463  16.367   6.034  12.199 -0.2615  0.1287 -0.2231
30570W        W46464   9.539   0.765   5.764 -0.2840  0.4167 -0.0365
30571W        W46465   0.991   8.137  13.702 -0.1616 -0.1149 -0.1291
30572W        W46466   9.216   1.897   3.426  0.0965  0.0958  0.1690
30573W        W46467   7.970  14.538  14.866  0.0467  0.0876  0.1558
30574W        W46468   7.167  14.355  12.739 -0.3369 -0.3267 -0.2134
30575W        W46469  13.607   1.505   3.437  0.3764  0.0260  0.3596
30576W        W46470   1.786   5.033  11.573  0.4143  0.1253 -0.0356
30577W        W46471  10.815  18.368  12.666  0.2287  0.0150  0.1566
30578W        W46472  10.504   1.970   2.363 -0.1326  0.0295 -0.0037
30579W        W46473  18.358  13.578  11.256  0.3049  0.0795 -0.0804
30580W        W46474   4.934   2.741   3.511  0.4433 -0.3554 -0.2973
30581W        W46475  15.510  15.233  13.607 -0.5508  0.1970  0.1088
30582W        W46476   4.256  13.938  13.550  0.0382 -0.3162 -0.0139
30583W        W46477  12.562  18.459   3.360  0.1056 -0.2205  0.1002
30584W        W46478  10.302  12.026   1.157  0.3680  0.0123  0.4816
30585W        W46479   0.998   5.251  13.689  0.1428  0.0293  0.1207
30586W        W46480  10.047  12.860  12.717 -0.0010 -0.3576  0.0791
30587W        W46481  15.089   8.066   0.683 -0.1298 -0.2676  0.0037
30588W        W46482  10.107  12.017  14.804  0.1036 -0.4279 -0.3042
30589W        W46483  17.462  11.332   3.762 -0.0348 -0.1682  0.1417
30590W        W46484   8.767  11.099   3.164 -0.4536 -0.3701 -0.1152
30591W        W46485  12.135  16.061   3.235 -0.5963 -0.2181  0.1061
30592W        W46486  14.307  11.657   1.571 -0.2489 -0.2386  0.1651
30593W        W46487  13.409  12.090   2.620  0.0096 -0.3178  0.1734
30594W        W46488  17.666   2.780  10.442 -0.1356 -0.3238  0.0075
30595W        W46489  11.715  14.792   3.003  0.0165  0.2729 -0.1225
30596W        W46490   7.117   5.905   9.662  0.2317 -0.3369  0.1958
30597W        W46491  13.923  17.231  11.869  0.2236 -0.1398  0.0531
30598W        W46492   5.601   9.625  12.652 -0.0543  0.1434  0.2642
30599W        W46493   5.206   6.071   1.661  0.1099 -0.0408  0.0008
30600W        W46494  15.888  16.006   3.879 -0.0411 -0.0707  0.1709
30601W        W46495  17.127  14.270  12.391  0.0585 -0.3126 -0.2839
30602W        W46496  12.014  12.319  13.225  0.0942  0.1466  0.1030
30603W        W46497  11.117   0.162  13.135 -0.0893 -0.2043 -0.0008
30604W        W46498  16.894   6.090  14.689 -0.0384 -0.0149  0.2189
30605W        W46499  17.012  18.023  10.834  0.0088  0.1732 -0.0114
30606W        W46500   3.503  12.695  14.075  0.2530 -0.0449  0.2313
30607W        W46501   1.294   2.776   5.053 -0.3068 -0.0516 -0.2003
30608W        W46502  10.093   3.201  13.065  0.3283  0.1681  0.3327
30609W        W46503  17.341   5.439   0.348 -0.1835  0.1016  0.0583
30610W        W46504   1.885   5.956  10.372 -0.2312  0.0346  0.1852
30611W        W46505  18.365   9.119   5.301 -0.3148 -0.2971 -0.0573
30612W        W46506  12.702   7.934  12.401  0.1433 -0.0407  0.1400
30613W        W46507   1.068   1.680   1.471 -0.1634 -0.0475  0.2071
30614W        W46508   1.832  13.310  15.175 -0.1116 -0.1039 -0.0619
30615W        W46509   1.442  12.789   4.516  0.3611  0.0954  0.3566
30616W        W46510   8.890  10.616  14.327 -0.2163  0.0125  0.0389
30617W        W46511  16.558   0.986   0.846  0.3316 -0.2251  0.0865
30618W        W46512   1.931   8.113  12.441  0.0989 -0.0844 -0.2234
30619W        W46513   4.385  11.953  10.470  0.0534 -0.0210  0.2701
30620W        W46514   8.333  12.328  13.297  0.1506 -0.0999  0.1900
30621W        W46515   5.977  10.401  13.051  0.1992  0.2702 -0.0321
30622W        W46516  15.698  10.576  11.784  0.1166  0.0055 -0.0277
30623W        W46517  11.780   3.445   0.845  0.0336 -0.3534  0.1027
30624W        W46518   0.376  15.580  15.474  0.1877  0.0831 -0.2190
30625W        W46519   8.776  18.185   3.931 -0.1047 -0.1690 -0.0741
30626W        W46520   1.546  17.528  15.265  0.0149  0.1473  0.1101
30627W        W46521  13.211   7.535   4.825 -0.1617 -0.0099 -0.0446
30628W        W46522  16.019   4.586   3.812  0.2489 -0.1404 -0.1363
30629W        W46523  13.608  16.070  14.277 -0.2777  0.2486 -0.1529
30630W        W46524   2.348  15.708   3.103 -0.1298  0.0510  0.1217
30631W        W46525   4.240   5.126  11.007 -0.0404 -0.0984  0.0406
30632W        W46526  15.736   0.158   3.267  0.0731  0.0933  0.3119
30633W        W46527  12.399  13.068  11.717  0.2674  0.1037  0.2807
30634W        W46528  14.601   2.364   3.664  0.2815 -0.1479 -0.1313
30635W        W46529   6.941   5.072  14.482 -0.3418 -0.0682  0.0898
30636W        W46530   2.131   4.104  12.861 -0.0728  0.2959  0.2123
30637W        W46531   1.961   4.088  10.573  0.0356 -0.1796 -0.0804
30638W        W46532  10.386  16.770  13.376  0.2642 -0.1019  0.0145
30639W        W46533  15.115  17.312   1.040 -0.0944 -0.2822 -0.1822
30640W        W46534   9.287  16.115  13.366 -0.3169 -0.0345 -0.1037
30641W        W46535  17.359   9.011   0.742 -0.0003 -0.0138 -0.1876
30642W        W46536  17.377   0.447  12.302  0.2755  0.1778  0.0517
30643W        W46537   5.512   0.082  11.939 -0.0960 -0.1686 -0.0210
30644W        W46538  16.309   1.019  14.091 -0.0169  0.2202 -0.1303
30645W        W46539  10.013   7.245   2.732  0.2339 -0.0775  0.1031
30646W        W46540  15.825  10.876  12.592 -0.0827  0.0244  0.0517
30647W        W46541   9.025   0.558  11.854 -0.2585  0.0753 -0.2116
30648W        W46542  14.524   8.435   3.895  0.5151  0.0766  0.1355
30649W        W46543  16.946   0.474   1.921 -0.3280 -0.0374 -0.0579
30650W        W46544   6.321  10.354   4.851 -0.2738 -0.0669 -0.0564
30651W        W46545  12.275   0.335   3.909  0.0483  0.2291 -0.1171
30652W        W46546   7.418   2.805   4.988  0.3230  0.0922  0.0803
30653W        W46547  17.056   8.526  10.837  0.0009 -0.3109 -0.6305
30654W        W46548   9.100  13.989  11.875  0.1192 -0.2536  0.0697
30655W        W46549  15.403   7.208  14.879 -0.3385  0.1659  0.3250
30656W        W46550   3.983   1.670   1.157 -0.1034  0.0987  0.1498
30657W        W46551  14.885  18.146   5.322  0.3356  0.2694  0.3193
30658W        W46552  17.655  12.771   3.277  0.0298 -0.2848 -0.0287
30659W        W46553   5.037  17.183   4.969  0.1313 -0.0246  0.0817
30660W        W46554   5.934   2.315  14.200  0.0576 -0.3751  0.1818
30661W        W46555   4.775   2.362  13.830 -0.0858  0.0981 -0.0229
30662W        W46556  15.554   6.777   3.084  0.1623 -0.2356  0.2665
30663W        W46557  10.301   5.895   0.093 -0.1455  0.2256 -0.3886
30664W        W46558   3.248   5.456   1.080  0.1252 -0.1257  0.1118
30665W        W46559   7.339   0.102   2.406  0.0679  0.1598 -0.1914
30666W        W46560   4.246   7.296   4.307  0.1062  0.4110  0.3841
30667W        W46561  17.826   1.079   2.535  0.2060  0.0056 -0.0931
30668W        W46562  18.057   9.809   0.442 -0.0277 -0.2234 -0.2903
30669W        W46563   2.399  17.343  13.409 -0.0237 -0.0217  0.1965
30670W        W46564   1.948  12.299   4.933  0.2157  0.0009  0.1395
30671W        W46565  12.227   8.822  14.957  0.0883 -0.1060 -0.2553
30672W        W46566  18.225  11.239   3.250 -0.2560  0.0375  0.0191
30673W        W46567  13.713  16.589  15.059  0.0219  0.3305  0.0329
30674W        W46568  10.816  18.468  14.808  0.0687  0.0337 -0.4143
30675W        W46569   5.178  11.214   2.372  0.0917  0.0649  0.3160
30676W        W46570  11.360   0.433  11.076 -0.0665 -0.5942 -0.3124
30677W        W46571   5.324  13.034  11.961  0.3377 -0.1206  0.0006
30678W        W46572   5.079   1.691   4.148  0.0107  0.3971 -0.0424
30679W        W46573  15.222   4.136   4.183 -0.0508  0.3063  0.3837
30680W        W46574   1.640   4.250   3.940 -0.0500  0.2578 -0.0750
30681W        W46575  10.738   6.262   3.275 -0.2296 -0.2376  0.1779
30682W        W46576   2.723  10.717  10.548 -0.0993 -0.8017  0.2141
30683W        W46577  17.653  15.901   3.319 -0.1977 -0.3607 -0.2408
30684W        W46578   1.296  11.091  15.407 -0.2171 -0.0481 -0.3449
30685W        W46579   2.715  15.852   2.257 -0.0759  0.1344 -0.3996
30686W        W46580  17.653   1.164   5.282 -0.0021  0.1394 -0.2113
30687W        W46581   3.360  13.103  13.888  0.1754 -0.0111 -0.1184
30688W        W46582   2.063  12.708   1.306  0.1547  0.1373  0.0467
30689W        W46583  17.607  15.160   5.371 -0.0339  0.1165 -0.0263
30690W        W46584  10.399  13.038  14.658  0.0603  0.2053 -0.0249
30691W        W46585  14.624   5.329   0.033  0.2582  0.1043 -0.1150
30692W        W46586   0.790  12.099  14.989  0.0714 -0.2997  0.1511
30693W        W46587  12.472   8.406  15.126  0.2956  0.2882 -0.2108
30694W        W46588   8.650  14.956   3.007 -0.1591  0.2869 -0.1824
30695W        W46589   7.508   4.316  14.127 -0.0340 -0.3492 -0.2952
30696W        W46590  14.593  14.817  11.510  0.0182  0.1808  0.0663
30697W        W46591   8.096  12.753   2.419 -0.2019  0.1746  0.5435
30698W        W46592  12.687   1.789   1.978  0.0154 -0.0468 -0.1047
30699W        W46593   5.543   7.092  11.045  0.0491  0.2160 -0.0815
30700W        W46594   5.094   2.423  13.291 -0.2955 -0.0451  0.0370
30701W        W46595   4.428  11.987  14.033 -0.0696  0.1737  0.1240
30702W        W46596  15.165   8.527   1.286 -0.1643 -0.0341 -0.4156
30703W        W46597  16.132  17.919   3.872  0.2168  0.1141 -0.0224
30704W        W46598  15.854  15.474  14.817 -0.0938  0.0097 -0.2887
30705W        W46599  10.765  12.196   1.494  0.1317  0.0117 -0.2993
30706W        W46600  14.967   9.148  11.670  0.1401  0.0353  0.1515
30707W        W46601  17.325   5.248  14.242  0.0310 -0.5167  0.1964
30708W        W46602  17.180   6.328  15.060  0.1049  0.3439 -0.1481
30709W        W46603   1.792  14.671   4.510 -0.0892 -0.0041  0.1018
30710W        W46604   3.810   1.593   0.604  0.1888 -0.0761  0.0769
30711W        W46605  13.604   2.603  11.437  0.2690 -0.1689 -0.1659
30712W        W46606   1.727  12.894  11.138 -0.1748 -0.2215 -0.1523
30713W        W46607   6.850   4.006  10.271 -0.1328  0.1755 -0.2110
30714W        W46608  12.187  18.523   6.354  0.2041  0.0816  0.1183
30715W        W46609   2.493   0.485   0.863 -0.5456 -0.1759  0.0751
30716W        W46610   9.171   5.051   0.849 -0.5325  0.0379  0.2764
30717W        W46611  16.027  13.869   3.036 -0.1265 -0.4153  0.0823
30718W        W46612  12.863   6.314  13.949 -0.1504  0.0563 -0.0283
30719W        W46613   7.656  12.561  15.196  0.1498  0.1014 -0.1328
30720W        W46614  16.548  18.207  12.668 -0.0254  0.0562  0.1145
30721W        W46615   2.902  13.334   2.205  0.1807  0.1804  0.0508
30722W        W46616   5.919  12.677  14.331 -0.1043  0.2279 -0.2605
30723W        W46617   0.181   5.639  13.247  0.1991 -0.1695 -0.2574
30724W        W46618  14.819  15.210  15.360 -0.1004  0.3394  0.0574
30725W        W46619   7.859  15.655  14.702 -0.1770  0.1608 -0.3638
30726W        W46620  18.618  11.858   4.311  0.3178 -0.0218  0.0159
30727W        W46621   8.325  12.056   1.797  0.2758  0.3023 -0.0679
30728W        W46622  18.526   2.740  11.609  0.0729 -0.2192  0.1109
30729W        W46623   9.594   8.425  12.221 -0.1213  0.1642 -0.0479
30730W        W46624   2.980  15.924  12.012  0.0356  0.3275 -0.1916
30731W        W46625  11.184  13.700   2.469 -0.1978 -0.0209  0.0049
30732W        W46626  17.323   1.650   0.756 -0.0196 -0.0568  0.1737
30733W        W46627  13.861   3.850  14.065 -0.2525 -0.1776 -0.0338
30734W        W46628   7.798  14.381   0.328  0.5236 -0.0037 -0.1487
30735W        W46629   5.228  17.881   1.120 -0.1615 -0.1700 -0.1282
30736W        W46630   9.227  11.526  12.440  0.2215  0.1060 -0.2851
30737W        W46631   8.867   5.416   4.317 -0.0626 -0.0593  0.0437
30738W        W46632   3.910   1.107   0.496  0.0132 -0.5413 -0.0446
30739W        W46633   3.143  17.885   3.706 -0.1964 -0.0798  0.3462
30740W        W46634   3.181  18.284  12.323  0.0213  0.0328 -0.0312
30741W        W46635  15.649  14.981   1.083  0.1038 -0.1778 -0.1073
30742W        W46636   2.596  12.306   0.185 -0.4433 -0.0693 -0.2745
30743W        W46637   6.170   4.297   3.996  0.0192 -0.1284  0.0134
30744W        W46638   7.896   4.082   3.986  0.2704  0.1287 -0.0079
30745W        W46639   3.879   8.551  11.252  0.5366 -0.0132 -0.3941
30746W        W46640   8.911   7.764   2.509 -0.3507 -0.0627 -0.2196
30747W        W46641   7.057  12.891   3.227 -0.1520  0.2674 -0.3216
30748W        W46642  11.333  15.651  12.353  0.0515 -0.4668  0.0507
30749W        W46643  15.002  15.838  13.896 -0.0143 -0.1688  0.0052
30750W        W46644  14.351   9.406   4.550  0.0578  0.0502  0.1785
30751W        W46645  18.404   7.827  12.784  0.1037  0.0652  0.0084
30752W        W46646   7.510   6.000  14.445 -0.1707 -0.3986  0.0315
30753W        W46647   8.289   3.762   4.950 -0.0429  0.1513 -0.1110
30754W        W46648  14.153  17.434  11.331 -0.3551  0.0089 -0.0858
30755W        W46649   6.882   5.769  14.946  0.0045  0.0615  0.1412
30756W        W46650  17.619  10.534   3.800  0.3730  0.0518  0.1066
30757W        W46651  18.118  15.000  13.927  0.2072 -0.3629 -0.4387
30758W        W46652   3.743  10.698  11.966 -0.1449 -0.1381  0.1135
30759W        W46653   6.600   4.873  15.268  0.6092  0.1198 -0.0539
30760W        W46654  13.981   9.632   1.685 -0.1841 -0.2118  0.3305
30761W        W46655   0.094   2.239  14.699  0.0008  0.0081 -0.4676
30762W        W46656  11.715  11.987   4.412  0.1680 -0.3131  0.2129
30763W        W46657  13.283   4.449   5.167 -0.0990  0.0377  0.0186
30764W        W46658  17.080  16.866  13.257 -0.3444  0.1437  0.0834
30765W        W46659   1.805   7.859  13.522 -0.2008  0.0528 -0.0516
30766W        W46660  11.289  10.507   5.264 -0.4957  0.0655  0.3762
30767W        W46661   2.406   5.026   3.912  0.2730  0.2269  0.1647
30768W        W46662  15.425  11.840  11.638  0.1056 -0.2906  0.2263
30769W        W46663   0.613  10.358  14.525 -0.0776 -0.0053  0.1397
30770W        W46664   1.138   3.292   2.083  0.0988  0.3452  0.3028
30771W        W46665  14.612   1.277   5.114 -0.1730 -0.0806 -0.2245
30772W        W46666   3.208   4.793   3.681 -0.0453  0.0002 -0.0377
30773W        W46667  10.428   9.298   2.856  0.0007  0.0886  0.3777
30774W        W46668  18.547   6.521   4.897 -0.1585 -0.2368 -0.1574
30775W        W46669   7.156   4.184   2.358  0.0537  0.1817  0.1986
30776W        W46670   2.311   4.579   2.765  0.0757  0.0769 -0.3460
30777W        W46671   1.743   5.659   2.726 -0.0926 -0.1762  0.0636
30778W        W46672   3.295   4.298   3.802 -0.1535  0.1148 -0.2103
30779W        W46673  18.190  10.158   3.032  0.4345  0.1033 -0.0489
30780W        W46674  18.471  16.145   3.041  0.0884  0.0019 -0.0538
30781W        W46675  12.104  13.960   1.981  0.0965  0.0258  0.2356
30782W        W46676   6.654  12.497   2.080 -0.6637 -0.0696 -0.1139
30783W        W46677   1.911  14.407   3.087 -0.2603 -0.1442 -0.0523
30784W        W46678  14.442  14.993  14.361  0.1058 -0.1983  0.0281
30785W        W46679  18.112   0.919   1.145 -0.0534 -0.0699  0.0018
30786W        W46680   0.437  12.232   2.737  0.1002 -0.1433 -0.2643
30787W        W46681   4.202  16.549  14.903 -0.1355  0.3094  0.1029
30788W        W46682  13.320   1.364  11.516 -0.2350  0.3362 -0.0121
30789W        W46683  12.996   8.285   1.358 -0.0184 -0.4404  0.1132
30790W        W46684   9.886   8.149  14.037 -0.1046  0.1206  0.0205
30791W        W46685   2.766   0.689   1.960 -0.0305  0.0472  0.0040
30792W        W46686  16.765  13.643  14.343  0.0358 -0.0191 -0.0779
30793W        W46687  10.917  14.704  14.107  0.3789 -0.0933  0.1146
30794W        W46688  11.168   0.557   3.860  0.3877  0.2801  0.0590
30795W        W46689  12.483   8.024   2.260 -0.3080  0.0886  0.0789
30796W        W46690   9.625   9.035  13.801 -0.2314  0.1189  0.1470
30797W        W46691   2.101   1.134  10.709  0.1452  0.1215  0.1332
30798W        W46692  15.431   1.692   2.340  0.1067 -0.0285  0.1474
30799W        W46693  13.429   5.854  13.285 -0.2845 -0.0602  0.1895
30800W        W46694  10.013  14.120  14.698  0.0767 -0.0302  0.1378
30801W        W46695  10.018   7.304  13.599  0.1839 -0.3047 -0.0177
30802W        W46696   9.939  12.695  15.303 -0.0199  0.0403 -0.2613
30803W        W46697   4.707   5.720  14.431 -0.0037  0.1846 -0.2127
30804W        W46698  14.900  17.754  12.109 -0.1969  0.0456 -0.1575
30805W        W46699   2.607  10.509   9.812 -0.0364 -0.1665  0.2793
30806W        W46700   5.454   9.132  12.710  0.0238  0.2399 -0.4939
30807W        W46701  12.008  10.794  14.671 -0.1596  0.1739 -0.3552
30808W        W46702   8.764   7.241   4.631 -0.3180 -0.0391 -0.0215
30809W        W46703  10.790   7.681  10.584 -0.1632 -0.2740 -0.2478
30810W        W46704   8.825  12.380   3.166 -0.0273 -0.1051 -0.2265
30811W        W46705   5.568  13.243   2.564 -0.2230 -0.0698 -0.1115
30812W        W46706  13.070   5.254   5.113 -0.2383 -0.0454  0.3962
30813W        W46707   3.584   6.025  13.986  0.1040  0.3205  0.1780
30814W        W46708  16.816  16.402  12.098  0.1779  0.3553 -0.0537
30815W        W46709   5.259   4.548   4.858  0.2444  0.0065 -0.3792
30816W        W46710   7.572   7.790  12.281  0.1586  0.0938  0.1943
30817W        W46711  10.271  14.508   2.522 -0.3317 -0.0185  0.1152
30818W        W46712  17.638  11.370  11.321  0.0849  0.0369  0.0240
30819W        W46713   1.461  18.196   1.699  0.3739  0.3307  0.1310
30820W        W46714  13.352   3.112   2.823 -0.0073  0.2882 -0.3515
30821W        W46715   0.080  18.548  10.845  0.0432  0.0104 -0.0070
30822W        W46716   5.432   5.041   4.573 -0.2413 -0.1144  0.2772
30823W        W46717  16.214   6.696   9.882  0.1206 -0.1924  0.1310
30824W        W46718  14.148   8.119   4.958 -0.2259  0.0747  0.0279
30825W        W46719  15.069   7.101   0.865  0.1297  0.0141  0.1373
30826W        W46720   2.043   0.384  14.166  0.0789  0.3416 -0.1315
30827W        W46721   3.661   3.582  14.485 -0.1912  0.2498  0.2187
30828W        W46722   6.247  11.917   1.352 -0.0644 -0.0588 -0.1391
30829W        W46723   2.536  16.892   2.301 -0.3452 -0.0812  0.3092
30830W        W46724  15.859   0.412  14.628  0.1853 -0.3195  0.3191
30831W        W46725   3.435  11.616   5.051  0.0370 -0.1198  0.0363
30832W        W46726   1.994  14.764  10.871 -0.0997  0.1096 -0.1709
30833W        W46727  17.972   6.103  13.652  0.2155 -0.1816  0.2887
30834W        W46728  14.261   9.425  12.457  0.1831 -0.0183  0.2907
30835W        W46729   8.218   3.225   1.532 -0.1520 -0.0260 -0.0842
30836W        W46730  12.436   6.523   5.242 -0.0801  0.0895 -0.1346
30837W        W46731   0.062   2.187  11.039  0.1424  0.1147  0.0594
30838W        W46732  11.307  11.488  15.474  0.1864 -0.2599 -0.2531
30839W        W46733   0.051  14.307   3.741  0.2479  0.1823 -0.1026
30840W        W46734   3.635   2.474   1.058 -0.3820  0.0953  0.1085
30841W        W46735   5.227  17.352  11.146  0.0341  0.2812  0.1691
30842W        W46736   3.867  12.546  11.207 -0.0487  0.2914 -0.2231
30843W        W46737  13.122   4.718  13.288 -0.1867  0.0562 -0.0715
30844W        W46738  13.713  17.519   3.490 -0.2255  0.0103 -0.1740
30845W        W46739  14.392  18.456   0.855 -0.3914 -0.1108 -0.1517
30846W        W46740   7.326  10.983  11.134  0.0405 -0.2822 -0.0703
30847W        W46741   7.650   4.582  10.563 -0.0961  0.3954 -0.0186
30848W        W46742  16.115   9.767  12.999  0.2931 -0.2911 -0.0223
30849W        W46743   0.230   3.448   1.732 -0.1634  0.3342  0.1908
30850W        W46744   3.642   6.467   4.912  0.0761  0.2148 -0.1935
30851W        W46745  18.159  18.327  12.066 -0.0128 -0.1610 -0.0304
30852W        W46746   1.614   6.866  14.202 -0.2248 -0.2892  0.2011
30853W        W46747   7.189   3.958  13.898 -0.1423  0.0689 -0.0234
30854W        W46748  11.265   8.907   4.243  0.0308  0.1086  0.2097
30855W        W46749  11.556  14.084   2.275  0.0092  0.3210 -0.1177
30856W        W46750  12.740  18.469  14.285 -0.0289  0.0577 -0.0087
30857W        W46751  15.683   9.512  11.283 -0.0860  0.1151  0.1050
30858W        W46752  16.801   0.800   4.804  0.0986 -0.0144 -0.0656
30859W        W46753   0.324   7.657  14.786  0.1105  0.2537 -0.3178
30860W        W46754  18.666   7.661   0.133 -0.1905  0.0084  0.1546
30861W        W46755  10.545   8.505  11.053 -0.2655 -0.1894  0.0051
30862W        W46756   2.587   1.868  13.685 -0.0337  0.0682 -0.0776
30863W        W46757   4.646   5.530   2.456  0.1400  0.1114 -0.0827
30864W        W46758   1.175   9.152   0.165  0.3191 -0.1195 -0.0255
30865W        W46759   8.562   0.929   0.781 -0.2956 -0.0717  0.0668
30866W        W46760  18.414   6.591  13.646 -0.0829 -0.1496 -0.0683
30867W        W46761  15.468  17.389   4.041 -0.0352  0.2253  0.0478
30868W        W46762  16.014   9.956  14.773  0.0803  0.1072 -0.4826
30869W        W46763   2.459  11.790  14.101 -0.3191 -0.1424  0.0606
30870W        W46764   3.697   2.406  11.149  0.1605  0.2388 -0.0501
30871W        W46765   8.418   7.664   3.754 -0.0953  0.0307 -0.2573
30872W        W46766   1.203  13.962   2.383  0.0725  0.0018 -0.1828
30873W        W46767  10.524   4.325   1.175 -0.2133  0.2482  0.3233
30874W        W46768  18.395  12.633   1.155  0.0285  0.1635  0.1356
30875W        W46769   5.871   6.725   0.351  0.1533 -0.1921  0.0794
30876W        W46770   0.007  18.203   4.745 -0.0031  0.0770 -0.4553
30877W        W46771  14.607  15.637  12.637  0.0061  0.4318 -0.2768
30878W        W46772   2.339  14.146   3.998 -0.1425  0.2402  0.1921
30879W        W46773  14.429  17.005  11.161  0.0755 -0.2723 -0.2418
30880W        W46774   3.200   8.544  11.098 -0.0471 -0.2206 -0.0378
30881W        W46775   6.687  12.915   2.406 -0.1316 -0.1653  0.2832
30882W        W46776  11.990   6.040   5.435 -0.0160  0.1058 -0.1085
30883W        W46777  15.659   0.983  15.201 -0.1428 -0.3522 -0.0663
30884W        W46778  15.371  14.544   5.836  0.1629  0.0689  0.1043
30885W        W46779  11.972   6.435  14.009 -0.4930  0.1189 -0.0550
30886W        W46780   9.033  11.165  14.392  0.1510 -0.0431  0.1686
30887W        W46781  13.103   8.507  11.692 -0.0858 -0.4199  0.0408
30888W        W46782   9.142   8.873   0.079  0.0395 -0.0823  0.0035
30889W        W46783   2.417  18.697   4.430 -0.1957  0.1688 -0.2752
30890W        W46784   9.793  11.068  13.416  0.2075  0.2535 -0.1921
30891W        W46785  18.171   2.206   4.686  0.1727 -0.2200 -0.2148
30892W        W46786   6.560  10.090   0.632  0.0152  0.1569 -0.2187
30893W        W46787   8.575  12.745   3.479 -0.4743  0.1728  0.2477
30894W        W46788   3.283   5.996  11.669  0.0556 -0.0452 -0.0796
30895W        W46789   9.132   2.065   0.934 -0.5724 -0.0539  0.0181
30896W        W46790   1.245   5.622  15.057 -0.4323 -0.0082 -0.0569
30897W        W46791   0.209   4.603  12.302  0.0229 -0.0350 -0.1874
30898W        W46792   0.222  11.022  13.680 -0.2496  0.4230  0.0834
30899W        W46793   1.583   9.338  13.385  0.1112 -0.0417 -0.0519
30900W        W46794  12.522  14.679  10.669 -0.1110  0.0443  0.0395
30901W        W46795   8.931   9.484  13.562  0.1520  0.0337 -0.1330
30902W        W46796  16.182   1.505  14.030 -0.1428  0.0600  0.1984
30903W        W46797  17.481   5.291  12.422 -0.3052  0.0716  0.2642
30904W        W46798   4.986   1.827  10.640 -0.1653 -0.0970 -0.2341
30905W        W46799  10.956   2.818   1.549 -0.0765  0.3106  0.1120
30906W        W46800   8.070   5.585   5.717  0.1157  0.1084  0.2146
30907W        W46801  13.303  14.396  13.685 -0.3646  0.2271  0.1736
30908W        W46802  11.963   8.673   1.677 -0.2759  0.1428 -0.1245
30909W        W46803  17.307   4.169   3.104 -0.1396 -0.3230 -0.0880
30910W        W46804   4.955   9.617  14.269  0.2106  0.0970  0.0358
30911W        W46805   3.340   8.661   0.503  0.2312  0.0720  0.0573
30912W        W46806  14.779   3.850  12.863 -0.1811  0.3272  0.0308
30913W        W46807   6.913  15.073   5.954 -0.0277 -0.2826  0.1077
30914W        W46808  15.434   2.119  12.992  0.0219 -0.0968  0.0284
30915W        W46809  11.132   8.773  13.412  0.0455  0.0050  0.0340
30916W        W46810  13.902   6.677  10.936  0.0247 -0.1683  0.4188
30917W        W46811  18.212   1.630   4.706  0.0551 -0.0061  0.3880
30918W        W46812  17.606  16.978   0.741  0.1706  0.3692  0.1373
30919W        W46813  17.308   7.148   2.862 -0.0974 -0.0715 -0.1200
30920W        W46814   3.545  10.228   0.135  0.0135 -0.0139 -0.2046
30921W        W46815  10.058   3.657   2.824  0.0473 -0.1837  0.0293
30922W        W46816  11.797   3.677  11.079  0.1246  0.1580  0.1999
30923W        W46817   5.267   2.207   4.219 -0.0155  0.0523 -0.1718
30924W        W46818   3.710  17.242  10.919 -0.1701 -0.1960  0.2786
30925W        W46819   1.190  17.090  13.978  0.3545  0.0948 -0.0056
30926W        W46820   7.479  12.130   1.534 -0.1120  0.0668 -0.1118
30927W        W46821   1.133  17.315  15.250 -0.1961 -0.0928  0.2541
30928W        W46822   6.373  14.324   5.028  0.1848 -0.0731 -0.1341
30929W        W46823  13.552   6.579  15.264 -0.1017  0.1272  0.1524
30930W        W46824   5.395  12.264  13.441  0.3339  0.1166 -0.0739
30931W        W46825  12.827   2.325  12.602 -0.0245  0.2302  0.1459
30932W        W46826  15.501  10.081  12.333 -0.5647  0.1102  0.0091
30933W        W46827   2.483  16.434  13.645  0.0987 -0.1721 -0.1104
30934W        W46828   4.094  13.383  13.785  0.0497  0.0864 -0.0964
30935W        W46829  16.311   7.000  11.999 -0.0537  0.1703  0.1383
30936W        W46830   5.618   2.195   9.984  0.1863  0.0004  0.1921
30937W        W46831  10.941   3.737  12.017  0.4064 -0.0473  0.1121
30938W        W46832   2.558   1.272  10.836  0.3432 -0.0814 -0.3384
30939W        W46833   6.579  11.399  12.986  0.1519 -0.0259  0.1769
30940W        W46834   5.540  18.647   0.844  0.2496  0.2784 -0.0943
30941W        W46835  12.939   9.216  14.028 -0.0233  0.3058  0.0867
30942W        W46836   5.785  18.852  14.987 -0.0084 -0.0322  0.0232
30943W        W46837   7.340  16.846   2.451 -0.0701 -0.1332  0.1297
30944W        W46838   3.046   2.903   2.780  0.2171 -0.1331  0.0865
30945W        W46839  17.375  10.225  14.060  0.0781  0.0299 -0.2752
30946W        W46840   7.131   6.153  14.690  0.0367 -0.2268  0.1473
30947W        W46841   0.870   4.157  10.964 -0.3539  0.1380 -0.4075
30948W        W46842   5.741   3.755  13.422  0.1868  0.2946  0.3624
30949W        W46843   5.377   3.830   2.749  0.0358 -0.0321  0.1100
30950W        W46844  12.279   3.713  13.143 -0.1540  0.0530 -0.2233
30951W        W46845  17.968   4.135  14.599 -0.1550 -0.1530  0.4163
30952W        W46846   1.015   8.492   3.037  0.0144 -0.0944 -0.0148
30953W        W46847   0.645   8.250   3.264  0.3088 -0.0861  0.1046
30954W        W46848   7.146  14.475  11.576 -0.3947 -0.0138 -0.0446
30955W        W46849   8.352   8.216   1.959 -0.3179 -0.0188  0.1325
30956W        W46850   3.209  10.618   3.148  0.2468 -0.0408 -0.0389
30957W        W46851  14.345  16.076   2.082  0.3271  0.1186  0.2666
30958W        W46852  17.496  11.728  13.368 -0.2775  0.0573  0.1308
30959W        W46853  15.504   6.268  10.239 -0.0650  0.2084 -0.0418
30960W        W46854  17.231  15.937  14.778  0.1864 -0.0605  0.0050
30961W        W46855   2.670   6.913   1.779 -0.1372  0.1642  0.0672
30962W        W46856   9.417  17.174  12.120  0.0257  0.0055  0.4799
30963W        W46857   1.742   4.128   4.540 -0.0355 -0.0720 -0.1824
30964W        W46858  11.702   5.944  13.815  0.0448 -0.1401 -0.2547
30965W        W46859   3.235   1.211  15.051 -0.2291  0.3213  0.1846
30966W        W46860  15.809  12.816   4.379 -0.1051  0.1213 -0.2289
30967W        W46861   6.586   6.009   4.408 -0.1243 -0.3279  0.3031
30968W        W46862  18.567  15.303   5.802  0.2763 -0.0238 -0.1008
30969W        W46863  10.060   3.917  14.064 -0.1902 -0.1720 -0.2942
30970W        W46864  12.760   8.987   2.085 -0.1262 -0.1176  0.3697
30971W        W46865  11.445  13.831  11.183 -0.0416  0.1673 -0.1067
30972W        W46866   5.280   8.301   0.347 -0.2636  0.0231 -0.2253
30973W        W46867  12.980  17.864   4.925  0.3565 -0.3349  0.2765
30974W        W46868  17.873  17.621  13.746  0.5091 -0.3931 -0.2613
30975W        W46869   3.467  16.572   0.786  0.0435  0.0721  0.0282
30976W        W46870   5.595  10.629  14.909 -0.0740  0.0843 -0.0707
30977W        W46871  11.592  15.687   2.685  0.1059 -0.2067 -0.0347
30978W        W46872   3.993  11.636   4.241  0.0388  0.2328 -0.3313
30979W        W46873   3.777   7.161   4.373 -0.0032  0.3112 -0.0130
30980W        W46874  14.978   7.687   1.071 -0.0671  0.3697  0.3774
30981W        W46875   5.888   9.126  12.337 -0.1081 -0.0883 -0.0059
30982W        W46876  18.763  11.073   3.352  0.1265 -0.0143  0.1601
30983W        W46877   6.049   0.455   4.477 -0.3303 -0.1804 -0.3869
30984W        W46878   3.456   2.363  14.036 -0.0199  0.1060  0.1574
30985W        W46879   1.685   9.137   3.275  0.0376 -0.0805  0.1636
30986W        W46880  12.457  17.170  12.826  0.1924  0.0308  0.1086
30987W        W46881   6.635  13.224   1.375  0.1150  0.0939 -0.2941
30988W        W46882  16.955  14.070   1.257 -0.0431 -0.0155 -0.1526
30989W        W46883   3.438  15.224  14.632 -0.1340  0.3041  0.1113
30990W        W46884   7.805  11.905   1.820 -0.0599 -0.1971 -0.0353
30991W        W46885  18.024  17.899  15.161 -0.2860 -0.0730 -0.2039
30992W        W46886   7.809   5.425  15.283  0.3090  0.2031  0.0204
30993W        W46887  13.284  16.888  12.942  0.2397  0.2392  0.0955
30994W        W46888   0.835   2.240  11.535 -0.2953  0.0149 -0.1261
30995W        W46889   1.848  10.172   0.577  0.0177  0.0387 -0.1116
30996W        W46890  16.280  14.678  13.680  0.0230  0.1536 -0.1990
30997W        W46891   8.420   0.469   1.514 -0.1057  0.1123 -0.0667
30998W        W46892  11.983  10.928  10.854  0.3934  0.0319  0.0295
30999W        W46893   2.294   7.448   3.707 -0.0170 -0.3240  0.4231
31000W        W46894  15.617   8.528   4.799  0.0388  0.1919 -0.2063
31001W        W46895  14.470   2.954  11.464  0.0272  0.0176 -0.3645
31002W        W46896   9.321   4.665  13.981 -0.0964 -0.2912  0.3562
31003W        W46897   6.639   9.487   2.074  0.2142  0.1118 -0.1765
31004W        W46898  15.647   0.444  12.595 -0.1350 -0.2454 -0.1332
31005W        W46899  10.330  16.250   1.976  0.4218 -0.2580 -0.0216
31006W        W46900   7.514   0.314  13.148  0.0684  0.0588 -0.1642
31007W        W46901   6.066   6.428   5.789 -0.0420  0.2437 -0.1448
31008W        W46902   7.690  15.538   3.212 -0.0507 -0.3132 -0.1629
31009W        W46903  11.149  13.717   4.968 -0.2240 -0.0653 -0.2173
31010W        W46904   9.262  10.876   0.177 -0.0813 -0.0566 -0.0398
31011W        W46905  10.014   1.809  13.018 -0.0327 -0.1514 -0.1930
31012W        W46906   9.827  14.766   5.571 -0.0784 -0.0017  0.1935
31013W        W46907   3.639   9.656   1.738  0.0597 -0.1078 -0.1630
31014W        W46908  18.405   1.775   1.536 -0.3228  0.1225  0.0957
31015W        W46909   3.716   0.307   0.558 -0.0191 -0.1831  0.1312
31016W        W46910   9.489  16.512  13.606 -0.0253 -0.0041 -0.1783
31017W        W46911  13.802  12.480   2.561  0.2288 -0.1727 -0.1302
31018W        W46912   0.532  16.145  11.921 -0.0663 -0.0829  0.3993
31019W        W46913   9.156   8.347   1.666 -0.0059  0.0870  0.0118
31020W        W46914  13.600   7.673   4.491  0.1517 -0.0286  0.1276
31021W        W46915  11.413   1.550   4.342  0.1912  0.1197 -0.1877
31022W        W46916   0.826   7.918  15.005  0.1914 -0.2307 -0.0781
31023W        W46917  14.895   5.137  11.355 -0.2161 -0.0415 -0.4414
31024W        W46918   6.379  15.476  11.881  0.1589  0.1144 -0.1505
31025W        W46919  15.465  18.374   3.164 -0.1424  0.0736  0.0087
31026W        W46920   8.723  14.582   1.310  0.2382  0.1007  0.1896
31027W        W46921  12.068  10.210   1.346  0.1486 -0.0635  0.2085
31028W        W46922  13.006   2.812  14.059  0.0362  0.1111  0.2711
31029W        W46923   5.470  18.405  13.818  0.0564 -0.1323 -0.0449
31030W        W46924  12.753   8.255   3.207 -0.3292  0.0215  0.0379
31031W        W46925  11.444  11.907  12.103  0.2371  0.2968  0.0370
31032W        W46926   8.712   8.578   1.778  0.0732 -0.0934 -0.0664
31033W        W46927  12.692  12.350  13.799 -0.0183  0.2266 -0.2287
31034W        W46928  16.550  10.491   4.661 -0.2157 -0.0258 -0.0072
31035W        W46929   2.521  16.272  14.588 -0.1626  0.0370 -0.0902
31036W        W46930   2.484  12.850   0.911  0.0919 -0.1261 -0.0309
31037W        W46931   6.205   1.788  14.758  0.0440 -0.0448  0.1852
31038W        W46932  18.617   0.075   0.186  0.0122  0.2825  0.0334
31039W        W46933   7.507  15.967   0.916 -0.1661  0.0199 -0.0363
31040W        W46934   8.517   4.906  14.750  0.0762  0.0475  0.1680
31041W        W46935   8.299  15.672   6.014 -0.1359 -0.1263  0.0398
31042W        W46936  15.454  15.308  12.268  0.1843  0.0856  0.3273
31043W        W46937   8.780  17.357   4.542 -0.1274 -0.0601  0.3414
31044W        W46938   8.716   7.055   0.164  0.0971 -0.1497  0.3933
31045W        W46939   8.504  12.216  12.671  0.2031 -0.2073 -0.1146
31046W        W46940  13.858   8.513  14.331 -0.1800  0.0286 -0.0306
31047W        W46941   4.529  14.600   3.651 -0.2521  0.0554  0.0428
31048W        W46942  15.505  12.487   1.015  0.5106  0.3654  0.1117
31049W        W46943   4.371   2.860   2.366 -0.0362  0.1022 -0.0785
31050W        W46944  11.534  10.840   0.874 -0.4172  0.2022 -0.2533
31051W        W46945   4.003   7.614  10.164 -0.2765 -0.0082 -0.0842
31052W        W46946  10.353  18.124  11.980  0.2814 -0.2006  0.1302
31053W        W46947   2.452  18.262   9.776  0.1867 -0.0107  0.0513
31054W        W46948  16.795   3.967  13.452 -0.0188 -0.0467  0.1145
31055W        W46949  15.851  14.582   1.279  0.1026 -0.3221  0.1626
31056W        W46950   7.408   3.935   4.005 -0.0988 -0.2763  0.1235
31057W        W46951   5.273  17.272   4.114 -0.1763  0.1011  0.3154
31058W        W46952  13.134  10.930  11.126 -0.3830 -0.3460  0.3843
31059W        W46953  13.274   1.819   3.218  0.2057  0.3325  0.1715
31060W        W46954  11.698  18.841   2.219 -0.0509  0.1704 -0.0699
31061W        W46955   5.775   2.176  10.832  0.2316  0.1438  0.0408
31062W        W46956  18.001  15.987   2.906 -0.0648 -0.0595 -0.0383
31063W        W46957  18.009   3.393  13.088 -0.0238  0.0409 -0.1106
31064W        W46958   1.062   0.082  13.298 -0.1052 -0.0281 -0.1502
31065W        W46959  12.885   8.609  10.794 -0.0881  0.1058 -0.0290
31066W        W46960   3.807   3.048   2.356 -0.0696 -0.2469 -0.3009
31067W        W46961  14.398  15.419   5.578 -0.2696  0.1884  0.2478
31068W        W46962  16.355  13.518   2.268 -0.3701 -0.0873  0.0958
31069W        W46963  14.590  11.496  13.331  0.3545 -0.2693 -0.1876
31070W        W46964   9.704  12.877   4.848  0.2064  0.1761  0.2152
31071W        W46965   0.498   9.390  15.026  0.1002  0.1282  0.1666
31072W        W46966   3.003   1.651  12.112  0.2073 -0.1483 -0.1663
31073W        W46967  12.441   3.094  12.050 -0.1125 -0.1946 -0.0772
31074W        W46968   8.032   8.916   1.086  0.0513 -0.3353  0.0318
31075W        W46969   2.261  10.143   4.395  0.0742 -0.0394 -0.3051
31076W        W46970   2.222  14.706   0.201 -0.2266 -0.1590 -0.2060
31077W        W46971   1.298   6.167  14.723 -0.0873  0.2247  0.0715
31078W        W46972  18.151  14.953   0.412  0.0592 -0.1326 -0.2522
31079W        W46973   8.129  16.934  12.277  0.2305  0.1837  0.0078
31080W        W46974  17.459  16.867   5.594  0.1638 -0.2581  0.4733
31081W        W46975   3.814   0.454  11.102  0.1665 -0.0394 -0.1943
31082W        W46976   4.644   2.733  13.542 -0.2098  0.2739  0.0914
31083W        W46977  18.623   3.826   1.757 -0.0740 -0.0308  0.1495
31084W        W46978   3.297   6.192   0.373 -0.1386 -0.1259  0.2294
31085W        W46979   2.568   9.349   4.699  0.4819  0.2798 -0.1980
31086W        W46980  13.310  10.261  14.972 -0.4081 -0.1592  0.0085
31087W        W46981   2.798   8.612   1.753 -0.0858 -0.0729 -0.0569
31088W        W46982  13.336  15.090   4.029  0.0457  0.0570  0.4510
31089W        W46983   7.046   2.947   0.148 -0.1609  0.0591 -0.0817
31090W        W46984   3.969   0.134   4.662  0.0354  0.0671  0.0155
31091W        W46985   6.665  14.772  15.306 -0.2009  0.0516  0.0311
31092W        W46986   5.893  10.812   4.345 -0.1600 -0.3680  0.2346
31093W        W46987   9.513  13.095  12.962  0.1077 -0.2112  0.0653
31094W        W46988   2.016  16.793  11.232  0.1999  0.0159  0.1169
31095W        W46989  14.706  12.172   0.731 -0.1120 -0.0818 -0.2445
31096W        W46990  18.605   0.006  15.158 -0.1117  0.0875  0.0900
31097W        W46991   5.025   4.679  12.885 -0.3443  0.0604  0.0960
31098W        W46992   9.516  13.477  11.097  0.2904 -0.0414 -0.0625
31099W        W46993   0.818   9.180  12.860 -0.0923  0.2399  0.1187
31100W        W46994  11.489   6.812   5.045  0.0648 -0.1094 -0.2767
31101W        W46995   9.438  15.651  10.298 -0.0539 -0.0423 -0.2267
31102W        W46996  16.105   6.139  11.441 -0.0298 -0.0324  0.0047
31103W        W46997   9.618  12.937   2.892 -0.1829 -0.0099 -0.2752
31104W        W46998   7.798   4.164   1.797  0.1750  0.0210  0.2159
31105W        W46999  13.459  17.950   5.317  0.2439  0.1725 -0.1166
31106W        W47000  12.138   7.768   3.687  0.0470  0.0080 -0.2000
31107W        W47001   5.133   7.794   1.859  0.3098  0.2049 -0.1317
31108W        W47002   8.150   9.785   0.892  0.0036 -0.2200  0.1340
31109W        W47003   8.314  12.764  12.727  0.3003 -0.1258  0.1316
31110W        W47004  17.516   0.497  10.723 -0.4077  0.0551 -0.0053
31111W        W47005  16.666  15.449  12.012  0.0724  0.1014 -0.0074
31112W        W47006  11.138   7.366  14.650 -0.3574  0.2366 -0.0721
31113W        W47007  12.527   4.611   1.619 -0.1250  0.0013  0.0444
31114W        W47008   8.043   7.375   2.569  0.1188 -0.0676 -0.3500
31115W        W47009   3.230  13.892  11.269  0.2895  0.0700  0.1601
31116W        W47010   8.161   0.351  11.806 -0.0753  0.1345 -0.0092
31117W        W47011   8.376   3.919   2.745  0.0407 -0.0068 -0.0008
31118W        W47012   0.880   9.380   3.369 -0.1482 -0.0254 -0.2866
31119W        W47013  11.001  16.917  11.704  0.1944 -0.2431  0.0634
31120W        W47014  14.945  12.342  14.051  0.2176 -0.0368  0.2651
31121W        W47015  18.708   2.808  14.988 -0.0664 -0.1393  0.1916
31122W        W47016   0.871   5.653   2.471 -0.2218  0.0315 -0.3094
31123W        W47017  18.045  18.791  11.829  0.2397 -0.1789 -0.1685
31124W        W47018  10.278   5.683  10.184  0.0558  0.2649 -0.0471
31125W        W47019   6.310   3.003   4.165 -0.0787 -0.0350  0.0305
31126W        W47020  10.516  12.663  12.627  0.2062 -0.0360  0.1795
31127W        W47021   5.733  14.290  14.429  0.1222 -0.0495 -0.1380
31128W        W47022   4.001   0.543   3.441 -0.1665  0.0918  0.2209
31129W        W47023  10.097   4.190   3.574 -0.1099  0.4362  0.0145
31130W        W47024   9.601   3.650   5.499  0.2306  0.0485  0.2303
31131W        W47025   7.324  18.260  13.280  0.3591 -0.1444  0.0022
31132W        W47026  16.174   6.570  11.664 -0.0545  0.1650  0.1100
31133W        W47027   8.753  16.006  11.117  0.0018 -0.0221 -0.1831
31134W        W47028   0.558   9.036   3.935  0.1847  0.1195  0.3479
31135W        W47029   0.663  16.608  14.915 -0.1589 -0.1686 -0.0866
31136W        W47030   0.879   2.651  11.289 -0.2036  0.0754  0.2590
31137W        W47031  10.100   9.794   0.158 -0.1418  0.1677 -0.3026
31138W        W47032   9.870   7.069  14.556  0.0751 -0.1186 -0.1656
31139W        W47033  10.009  10.831   3.359  0.1227 -0.0148  0.0241
31140W        W47034  10.779   0.109  14.715 -0.1599 -0.1734  0.0011
31141W        W47035   4.242  15.677  13.213 -0.2010 -0.0042 -0.4661
31142W        W47036   1.617  16.528  15.422 -0.0219  0.1585  0.3176
31143W        W47037   0.700   7.361  12.050  0.0520 -0.1944 -0.0433
31144W        W47038   6.298   5.001  12.131 -0.1584  0.0350 -0.0644
31145W        W47039   0.940  13.058  11.113  0.2776 -0.0046  0.1167
31146W        W47040   9.056   7.650  14.601 -0.3246  0.3323 -0.3178
31147W        W47041   8.696   3.502  14.663  0.2650 -0.0506 -0.0477
31148W        W47042  16.215   1.824  13.606 -0.2007 -0.1622 -0.0993
31149W        W47043   4.900  11.123  11.860  0.0753  0.1423 -0.0906
31150W        W47044   1.258   0.925   9.609  0.0756  0.0121  0.0348
31151W        W47045   5.238   9.627   3.323 -0.1506 -0.2211 -0.2188
31152W        W47046  10.584   6.972  13.437  0.0126 -0.0579  0.0184
31153W        W47047  17.149  14.753  12.701 -0.0204 -0.0701  0.1784
31154W        W47048  12.394   2.681   0.756  0.4180 -0.0443 -0.1088
31155W        W47049  13.564  10.956  11.483  0.0223 -0.1754 -0.0115
31156W        W47050   5.633   6.942   1.600  0.0235 -0.2304 -0.2144
31157W        W47051   8.549  15.704  15.392  0.1223 -0.0979  0.1180
31158W        W47052   4.673  18.295  11.078 -0.1623 -0.1387 -0.0944
31159W        W47053   7.808   3.171  15.369  0.0786  0.2207 -0.2244
31160W        W47054  11.986   2.303   0.567 -0.0604  0.1697 -0.0454
31161W        W47055  10.940  10.958   2.475 -0.2105  0.5893  0.1720
31162W        W47056   6.245  16.279   3.552  0.0237 -0.1422  0.0492
31163W        W47057  18.372  12.125   5.233 -0.0831 -0.3008 -0.3140
31164W        W47058   6.603  14.187   2.162  0.1470 -0.2100 -0.1244
31165W        W47059  17.276   5.370  10.950 -0.0193 -0.1669 -0.0804
31166W        W47060  16.080   5.189  14.818  0.0773 -0.0594  0.2310
31167W        W47061   2.323   3.386   1.261  0.2083  0.0332 -0.6985
31168W        W47062   3.324   2.104   3.853  0.1030 -0.2378 -0.1474
31169W        W47063   6.189  14.664  13.128  0.0382 -0.0993 -0.2336
31170W        W47064  10.032   8.647   3.577  0.4151 -0.0021 -0.1207
31171W        W47065   0.988  17.375  12.666 -0.2997  0.0864 -0.1405
31172W        W47066   8.241  13.670  14.418  0.0094  0.2645  0.2578
31173W        W47067  16.622  17.166  12.503  0.3405 -0.0114  0.1834
31174W        W47068  12.626   1.133  14.669 -0.0488 -0.1048 -0.0691
31175W        W47069  17.996   3.653   4.341  0.0185  0.1388 -0.0742
31176W        W47070  12.720  15.749   1.566  0.1996  0.1122 -0.2759
31177W        W47071  17.036   9.753   4.283 -0.0095 -0.1864 -0.0931
31178W        W47072  15.512   8.086   3.028 -0.0195  0.3749  0.2032
31179W        W47073  15.491   0.522  15.047 -0.0008 -0.0357  0.0790
31180W        W47074  18.537  15.872   4.615 -0.0913  0.0351 -0.1316
31181W        W47075   9.305  10.075   1.688  0.2832 -0.0217  0.4474
31182W        W47076   6.473  17.198   4.792  0.1585 -0.1671  0.1106
31183W        W47077   2.541  16.853  13.343 -0.0946  0.0519 -0.0715
31184W        W47078  12.849   0.723   5.005 -0.0669 -0.0697 -0.2004
31185W        W47079   0.508   4.861  14.274 -0.1838 -0.0883 -0.1594
31186W        W47080  15.948   6.479  12.663 -0.1971  0.3524 -0.1532
31187W        W47081   5.378  18.250  13.255 -0.2196 -0.0353  0.0049
31188W        W47082   9.180   1.814  12.793 -0.0849  0.0639  0.0385
31189W        W47083   6.262   2.115  15.112 -0.2751 -0.2199 -0.1689
31190W        W47084  17.386  18.458  14.773 -0.1201  0.2112 -0.1510
31191W        W47085  12.673  16.355  11.290  0.0016  0.1812 -0.1689
31192W        W47086   6.483   3.112  14.157  0.3040 -0.3784 -0.1310
31193W        W47087  10.358  10.693   0.064  0.0630  0.2864 -0.1369
31194W        W47088  12.869  18.567  14.907  0.1137  0.0970 -0.2606
31195W        W47089   6.806   0.513  12.583 -0.1361 -0.1638  0.2145
31196W        W47090   8.011  18.856   1.796  0.1630  0.0080 -0.0751
31197W        W47091  17.596   5.482  15.201 -0.1482  0.3216  0.2358
31198W        W47092   0.592   6.223   5.531 -0.1716 -0.2611  0.2070
31199W        W47093   1.132  17.832   1.884 -0.0958  0.0556  0.2126
31200W        W47094  10.480  12.626   1.132  0.1249  0.0685 -0.0865
31201W        W47095  18.054   1.259   3.123  0.1724  0.3199 -0.3041
31202W        W47096  14.468  15.844   1.284 -0.4102  0.2895  0.1960
31203W        W47097   7.186  18.080  11.646 -0.0402  0.1638 -0.0404
31204W        W47098  17.742   1.092   1.969  0.1181 -0.2094 -0.1306
31205W        W47099   7.462  15.408  14.463  0.5052  0.0471  0.6144
31206W        W47100   9.411  14.276  13.774  0.0749 -0.1356 -0.3831
31207W        W47101  13.306   8.831   3.201  0.2104  0.0394  0.2374
31208W        W47102  12.384   7.307   1.519  0.1036 -0.1577  0.0719
31209W        W47103   5.729  12.963  10.393 -0.5005 -0.1654 -0.0771
31210W        W47104   5.603  17.736  11.024 -0.2666 -0.0114 -0.2941
31211W        W47105  18.186  10.403   9.752  0.0712 -0.2714 -0.0325
31212W        W47106   9.535   9.091  10.424 -0.2174  0.2566 -0.1731
31213W        W47107   9.892  11.720   0.323 -0.1396  0.2955  0.0405
31214W        W47108  15.814   5.882   5.094 -0.0731  0.0549  0.1550
31215W        W47109   3.491  14.346   1.248 -0.0534 -0.1062  0.0792
31216W        W47110   7.528   9.495   2.802 -0.2934 -0.1372 -0.0458
31217W        W47111   1.765   7.433   3.705 -0.2808 -0.0806  0.1202
31218W        W47112  12.911   6.749  13.448 -0.0074 -0.1232 -0.2144
31219W        W47113   5.235   5.930  10.856  0.1020 -0.0346 -0.0716
31220W        W47114  10.244   1.300   0.523  0.0020  0.4935  0.3094
31221W        W47115   1.594   9.019  11.374  0.1887  0.2613  0.2180
31222W        W47116   0.325   3.517  13.969  0.0651  0.0511 -0.2090
31223W        W47117  15.508   5.297   2.347  0.0471 -0.1184  0.0636
31224W        W47118   1.493   2.240  10.597 -0.0408 -0.0667 -0.0684
31225W        W47119   3.669   8.360  12.764  0.5811  0.1903 -0.0795
31226W        W47120   3.389  16.212  10.953 -0.0976  0.3370  0.3042
31227W        W47121  15.085   0.111   2.571  0.1921 -0.0680  0.0087
31228W        W47122  12.238   6.954  13.979 -0.1099  0.2910  0.0126
31229W        W47123  17.856   0.130   2.037 -0.1586  0.2664 -0.0783
31230W        W47124   4.989   5.479  13.288 -0.2704 -0.1906 -0.2492
31231W        W47125  16.340   3.298  15.064 -0.1107 -0.3385 -0.0556
31232W        W47126   0.148  10.162   3.706 -0.0093 -0.0842  0.0607
31233W        W47127   4.683   3.719  15.177  0.3547  0.2824  0.2930
31234W        W47128   7.629  14.573  11.738 -0.0755  0.1317 -0.0481
31235W        W47129   5.492   7.469  14.708  0.0038 -0.0059 -0.1015
31236W        W47130  10.919   7.723   2.816  0.0392 -0.1132 -0.2363
31237W        W47131  14.954   4.582   4.174 -0.1687 -0.1809 -0.2597
31238W        W47132  13.099   5.792   2.145  0.1293 -0.1347 -0.1439
31239W        W47133   7.246  16.177  15.346  0.1810 -0.1122  0.1154
31240W        W47134   4.168  10.353   3.438 -0.0623 -0.1830  0.2008
31241W        W47135   1.420  16.494  11.608  0.1494 -0.0330 -0.1854
31242W        W47136  15.684   7.692   4.587 -0.3188 -0.0907 -0.4122
31243W        W47137   6.809   1.222  12.390 -0.1191  0.2508 -0.0447
31244W        W47138   4.494  11.860  10.940 -0.2307 -0.2421  0.1236
31245W        W47139   4.680   9.388  14.673  0.0633  0.1662 -0.2417
31246W        W47140  13.621   9.737   5.473 -0.1260 -0.0290 -0.1055
31247W        W47141  14.384  12.404   3.779  0.1059 -0.0418  0.4106
31248W        W47142  12.340  14.373  14.753 -0.0922  0.3790 -0.0333
31249W        W47143   6.812  16.997  13.605 -0.0461 -0.3877  0.2643
31250W        W47144   0.457  15.132   0.224  0.4668 -0.1747  0.2836
31251W        W47145   1.935   6.175   3.321  0.1601 -0.0877 -0.1513
31252W        W47146  11.974   7.906   0.239  0.0474  0.0539 -0.1105
31253W        W47147   1.889  11.687   1.261 -0.0365 -0.0448 -0.1918
31254W        W47148   2.800   1.070  14.314  0.4002 -0.0076  0.1386
31255W        W47149  11.239   9.447  10.552 -0.3069 -0.1104  0.0050
31256W        W47150  14.885  13.663  15.127 -0.0522 -0.0103  0.1282
31257W        W47151  18.462  12.261  12.577  0.4183  0.1713  0.1222
31258W        W47152   7.497  16.056   5.762  0.0724  0.0093  0.3021
31259W        W47153   9.661  18.399   3.487 -0.2770  0.0233  0.0194
31260W        W47154   6.102   0.295   0.457 -0.1591  0.3151 -0.2196
31261W        W47155   1.114  13.106  13.822 -0.3207 -0.1148  0.0827
31262W        W47156   6.337   1.137  15.403  0.2171 -0.1111 -0.1833
31263W        W47157   6.265  17.886  12.443  0.1372 -0.0501  0.3190
31264W        W47158  10.867  14.499  14.659 -0.0530 -0.1838 -0.0497
31265W        W47159  14.269  16.732   5.209  0.1029 -0.2554 -0.1952
31266W        W47160  11.308  11.385   1.029 -0.0616  0.1279  0.1258
31267W        W47161   7.420   9.337   3.266 -0.0518  0.1014  0.0545
31268W        W47162   2.982   3.348   4.155 -0.1295 -0.0345  0.0481
31269W        W47163   9.313  18.345   3.946 -0.0114 -0.0736  0.3376
31270W        W47164   3.207  12.043   4.784 -0.1387 -0.2294  0.1555
31271W        W47165   0.370   8.004  12.457 -0.0335  0.0737 -0.1026
31272W        W47166  14.564  17.956   0.685 -0.0049 -0.2328 -0.1524
31273W        W47167  15.244  10.784  11.914 -0.0787 -0.2635  0.2913
31274W        W47168   0.574  15.166   3.640 -0.1370  0.0306  0.2444
31275W        W47169  15.378   4.998   4.217  0.0588 -0.4052  0.0268
31276W        W47170   5.155  14.626  13.558 -0.0793 -0.1562  0.1130
31277W        W47171   8.740  18.127  13.609  0.1197  0.0635 -0.0637
31278W        W47172   2.083   2.976  11.641  0.2289  0.3523 -0.0210
31279W        W47173   6.551  17.704   3.862  0.2274 -0.1921 -0.0585
31280W        W47174   6.406   0.426  14.426 -0.2493  0.2879  0.2053
31281W        W47175  15.092   6.526  12.687 -0.1652 -0.1667 -0.0898
31282W        W47176  11.625  17.316   2.604  0.2105  0.0605 -0.0791
31283W        W47177   8.275  15.246  11.844  0.0745  0.4314  0.6097
31284W        W47178  11.450   8.281  11.533 -0.2972 -0.2461 -0.0033
31285W        W47179   1.869  10.675   5.044  0.2117 -0.0688  0.0706
31286W        W47180  13.832   3.384   1.329  0.0332  0.0140 -0.4276
31287W        W47181   1.055  16.837   1.824 -0.3465  0.0478  0.0415
31288W        W47182  13.071  13.125   0.231 -0.0277 -0.0979 -0.1697
31289W        W47183  14.288  17.436   5.634  0.0013  0.0263  0.4136
31290W        W47184   5.179  10.443   1.004  0.0831 -0.0487  0.0630
31291W        W47185   4.488   5.294  14.275 -0.1413 -0.1209 -0.2172
31292W        W47186  11.534   9.700  11.443 -0.2385  0.1350 -0.0191
31293W        W47187   7.001   1.400  12.786 -0.0732 -0.0335 -0.0231
31294W        W47188   8.688   3.706   5.494 -0.4357 -0.0788 -0.3005
31295W        W47189   1.246   6.716   3.805 -0.0696  0.1410 -0.0727
31296W        W47190   1.115   7.590   0.524 -0.0357 -0.2026 -0.2355
31297W        W47191   4.990  14.020   0.026  0.2963 -0.0824 -0.0144
31298W        W47192   1.089  15.289   9.558  0.3144 -0.2117 -0.1244
31299W        W47193   3.640   7.070   3.906  0.1034 -0.1028  0.0864
31300W        W47194   5.115  13.104  11.133 -0.1824 -0.0500  0.1809
31301W        W47195   8.846   7.919  13.752  0.1821  0.2118  0.1493
31302W        W47196  12.336  16.000   3.729  0.3850  0.0396 -0.0775
31303W        W47197  15.215   4.710   1.091  0.2376  0.0894 -0.1532
31304W        W47198  13.494   2.090   4.614 -0.3121 -0.1465  0.3637
31305W        W47199  10.784  17.028  15.213  0.0484  0.3010  0.1920
31306W        W47200   8.153   4.410   3.008  0.2021  0.0880 -0.0362
31307W        W47201   9.457  12.823   5.236 -0.0430  0.1893 -0.0265
31308W        W47202  14.739   3.438   0.955  0.1341 -0.1060  0.1700
31309W        W47203  16.327  16.442   3.208  0.1515  0.2145 -0.1430
31310W        W47204   2.707   9.072  12.164 -0.0981 -0.0194  0.2401
31311W        W47205  15.886  17.432   2.399  0.2204  0.1689  0.0760
31312W        W47206  17.140   0.583   4.139  0.2039  0.1767  0.0433
31313W        W47207  15.233   0.361   3.369 -0.0280 -0.1199 -0.5912
31314W        W47208  11.425  18.448  12.580  0.1562  0.0451 -0.4515
31315W        W47209   2.992   6.351  11.445 -0.3776 -0.2407  0.2046
31316W        W47210   3.063   1.846  15.160 -0.1928  0.1582  0.2640
31317W        W47211  15.351  15.110   1.892  0.1113  0.1664  0.1606
31318W        W47212   8.145   5.528   0.867 -0.1186  0.0977 -0.0470
31319W        W47213   0.266  10.400   0.442 -0.1310  0.1584 -0.1737
31320W        W47214  16.882  11.948   4.702 -0.1720 -0.1142  0.3265
31321W        W47215  11.303   6.100  10.907  0.2550 -0.0821 -0.3151
31322W        W47216   8.453   7.238   2.842  0.0035 -0.1562  0.2032
31323W        W47217   0.661   6.598   3.947 -0.1528 -0.2295  0.2363
31324W        W47218   3.791  16.342  13.982 -0.0200 -0.2830  0.0712
31325W        W47219  11.722  10.421  11.096  0.1376 -0.0037 -0.2494
31326W        W47220   2.960  17.824   0.151 -0.0802  0.0700 -0.0749
31327W        W47221  18.287   3.837   5.172  0.0456 -0.2870  0.0818
31328W        W47222   7.004  17.593   1.381 -0.1652  0.1501 -0.0683
31329W        W47223  16.014   7.255   4.502  0.1098  0.3617 -0.0392
31330W        W47224   4.369  11.507   2.240  0.0678 -0.1436  0.4278
31331W        W47225   6.990  14.930   2.429  0.0930  0.0485  0.1632
31332W        W47226  15.114   2.008  14.970 -0.1652  0.0214  0.1998
31333W        W47227  10.486  18.172  13.080  0.2022  0.1706 -0.1398
31334W        W47228  16.459   3.305   0.736  0.0991  0.1742 -0.0535
31335W        W47229   0.442   9.181   1.176 -0.0912 -0.1895  0.1066
31336W        W47230   7.342  16.750   5.103 -0.0224 -0.0426  0.2668
31337W        W47231   5.052  12.609  13.589 -0.0665  0.0472  0.0101
31338W        W47232  18.276  15.682   5.025  0.2178  0.0744  0.2880
31339W        W47233   6.683  15.274  12.350  0.1529 -0.3233  0.1723
31340W        W47234   6.247  12.434   1.504 -0.1171  0.1171  0.1371
31341W        W47235  18.145   4.369  13.692 -0.3202 -0.2353 -0.0674
31342W        W47236  11.764  16.723  11.187 -0.0711 -0.0384 -0.1973
31343W        W47237   5.605   5.386   4.920  0.1543  0.0191  0.0436
31344W        W47238   0.044  14.982   3.700  0.1364  0.0136  0.1521
31345W        W47239   7.810   2.009   1.066  0.2866  0.1257  0.1368
31346W        W47240   4.268   3.999  15.090 -0.1602  0.0591  0.0770
31347W        W47241   4.905  15.774   0.052  0.1233  0.1269  0.1028
31348W        W47242  15.536  10.749   1.537  0.0230 -0.2496 -0.1187
31349W        W47243  17.308  10.067   3.163  0.0053  0.1070 -0.1290
31350W        W47244  15.936   9.160  13.357 -0.0149 -0.0656  0.3154
31351W        W47245   5.034   2.865  12.161  0.3276 -0.4025  0.0053
31352W        W47246   7.241  14.276   4.461 -0.1202  0.2824 -0.0696
31353W        W47247   7.004   9.109  11.194 -0.0023  0.1748 -0.1535
31354W        W47248   5.551  10.239   5.309  0.2971  0.1487 -0.0420
31355W        W47249  10.400  16.421   5.470  0.2305 -0.0957  0.1420
31356W        W47250   4.514   1.443  14.458 -0.0607  0.0833 -0.1185
31357W        W47251  18.378  17.426   1.425  0.0443  0.5019 -0.0060
31358W        W47252  15.297  14.122   2.151 -0.3107 -0.2205  0.1084
31359W        W47253   5.566   6.921  14.452  0.1749 -0.1737  0.1348
31360W        W47254  11.292  18.389  13.049  0.2770 -0.0974 -0.3021
31361W        W47255  18.665  13.145  13.034  0.2016 -0.1938 -0.0632
31362W        W47256   5.509   8.835  11.550 -0.0134 -0.1950 -0.3157
31363W        W47257  13.050   2.188   4.433  0.1624 -0.0783 -0.0444
31364W        W47258   1.725  12.523  13.405 -0.1716 -0.2276  0.0105
31365W        W47259   4.521  13.272  12.994  0.0131 -0.3391 -0.4284
31366W        W47260   7.926   0.384  14.788 -0.2068 -0.0984 -0.0429
31367W        W47261  11.233  13.797  13.981 -0.3993  0.3249  0.1970
31368W        W47262   2.374   0.203  11.238 -0.4554  0.1692 -0.3642
31369W        W47263  15.698   1.542  13.659 -0.2871  0.0938 -0.0269
31370W        W47264   6.705  17.021   3.322 -0.0546 -0.2156 -0.1163
31371W        W47265   4.719   6.266   2.543  0.4107 -0.1765  0.1751
31372W        W47266  11.509  12.071  12.691  0.2186  0.3190 -0.0124
31373W        W47267   1.377   3.099   1.546 -0.1397  0.1614 -0.1500
31374W        W47268   2.750   8.722   4.651 -0.0453  0.0556  0.0668
31375W        W47269   6.895   4.266  13.326 -0.0786  0.2383 -0.0217
31376W        W47270   8.566   6.261   4.608 -0.1682 -0.0557 -0.1013
31377W        W47271   6.934   4.153   4.214  0.0022  0.1508 -0.0631
31378W        W47272   3.929   1.768   1.760  0.1277 -0.0013  0.0799
31379W        W47273   6.951   0.031  13.868 -0.2688  0.1162  0.2071
31380W        W47274  17.385   2.389   4.632  0.2272 -0.1935 -0.3509
31381W        W47275  14.026   5.773   1.728  0.0916  0.1443  0.0454
31382W        W47276  11.524   7.646   2.772 -0.0250  0.2142  0.0019
31383W        W47277   6.051   8.185   1.424 -0.2243 -0.2008 -0.3808
31384W        W47278  14.263   8.164  12.432  0.0475  0.0932 -0.1803
31385W        W47279   5.681  13.274  12.510 -0.4512  0.3902  0.1054
31386W        W47280   0.881   6.532   3.453  0.0317  0.4639  0.0217
31387W        W47281   1.813   1.181  12.802 -0.0028  0.1442  0.1353
31388W        W47282  17.727  12.308  13.185  0.2434  0.4299 -0.1520
31389W        W47283  10.381  15.161   5.521 -0.1101  0.3468  0.3374
31390W        W47284  12.668  14.333  15.302 -0.2115 -0.1906 -0.0024
31391W        W47285   3.388   0.628  11.327 -0.1221 -0.0096 -0.1426
31392W        W47286   6.608  12.875   2.918  0.1548 -0.0709 -0.0389
31393W        W47287  16.250  18.609  12.721 -0.4236 -0.0390  0.0772
31394W        W47288   0.046   1.119   3.622 -0.0362 -0.0415  0.1374
31395W        W47289  14.743   2.622   5.234  0.0193  0.0206 -0.0564
31396W        W47290  10.628   4.899   1.961 -0.0691 -0.2780  0.0441
31397W        W47291   8.968   8.617  12.010  0.2685  0.0901  0.0539
31398W        W47292   7.634  17.175   5.272 -0.1443 -0.3890 -0.1422
31399W        W47293   8.105   9.283  11.253  0.0911  0.0980  0.0149
31400W        W47294   2.628  17.115  14.638 -0.2214  0.2154  0.1621
31401W        W47295   4.857   5.006  14.590  0.0200  0.2518  0.2180
31402W        W47296   9.705   5.619   2.737 -0.1619  0.1589  0.1559
31403W        W47297  13.189   7.508   4.338  0.1003  0.1057  0.2519
31404W        W47298   0.367  14.976  14.433  0.0385  0.4903  0.1226
31405W        W47299  18.735   8.072  13.453 -0.0356  0.2701 -0.0024
31406W        W47300  11.217  18.673   3.304  0.0845 -0.1119 -0.1654
31407W        W47301   0.301   1.791  10.744 -0.0885 -0.5809  0.0901
31408W        W47302   7.313  12.120  11.403  0.3841  0.1559  0.1557
31409W        W47303   2.624   7.283  10.469 -0.1780 -0.2326  0.0102
31410W        W47304  11.564  15.833   5.435 -0.2533 -0.1547 -0.0136
31411W        W47305  11.563  10.350   2.450  0.2224  0.0516 -0.1220
31412W        W47306  18.698  11.371   0.003  0.0582 -0.0205 -0.1480
31413W        W47307   7.036  11.215   2.618 -0.4818  0.1582  0.0912
31414W        W47308  17.402  18.372  10.939  0.2022 -0.3322 -0.1624
31415W        W47309   9.408   0.366   9.596  0.3252 -0.1738 -0.0203
31416W        W47310   7.895  10.104  10.791  0.3382  0.1904 -0.0694
31417W        W47311   3.758  12.034  13.285  0.0040 -0.0588  0.1053
31418W        W47312  14.718   1.364   5.586 -0.1291 -0.2664 -0.0758
31419W        W47313   7.427   2.913   2.244  0.0190  0.0222  0.4151
31420W        W47314  11.199  10.373   0.909  0.1074  0.1523  0.1335
31421W        W47315   0.301  11.497  12.547  0.0869 -0.4442 -0.0736
31422W        W47316   5.939  10.545   5.182 -0.3697  0.1904  0.0772
31423W        W47317  10.137  11.307   3.367 -0.0684 -0.2843 -0.2651
31424W        W47318  18.336  16.476   1.606 -0.1391  0.0300  0.1440
31425W        W47319  12.381  10.053   4.588  0.0958  0.3874  0.1991
31426W        W47320   9.411  17.394   3.764  0.1714  0.0324  0.1995
31427W        W47321  18.279   5.793   9.963 -0.3249 -0.0501 -0.0330
31428W        W47322   7.024  18.465  12.222  0.2106 -0.4026 -0.1508
31429W        W47323  17.812  18.695  13.361  0.3684 -0.0711  0.0748
31430W        W47324  18.278  15.458   4.398 -0.0259 -0.1545 -0.3329
31431W        W47325  15.463   7.262  13.600 -0.3424  0.0450 -0.1413
31432W        W47326   5.503  12.815  15.187  0.2844  0.2882  0.2802
31433W        W47327   3.411   2.164  13.595 -0.0063 -0.0707  0.3337
31434W        W47328  11.427   6.471   1.446 -0.0650  0.0437 -0.2422
31435W        W47329  11.025   3.627   4.003 -0.3415  0.3013  0.0641
31436W        W47330  16.661   7.668  12.539  0.0559  0.0409  0.2203
31437W        W47331  14.459  11.115   3.920  0.0605 -0.1801  0.2941
31438W        W47332   8.205   7.397  13.516  0.2855  0.4345 -0.1042
31439W        W47333   7.178  15.405   3.507  0.2048 -0.1887  0.1138
31440W        W47334   4.811   1.577  14.885 -0.1102 -0.1167 -0.0339
31441W        W47335   6.416  11.411  14.852 -0.0155 -0.1297  0.1730
31442W        W47336  15.207   7.914   2.521 -0.1495 -0.0074 -0.0146
31443W        W47337  13.970   6.165   5.393  0.1436 -0.0308  0.1667
31444W        W47338   7.069  11.961   0.545 -0.0733 -0.1492  0.2682
31445W        W47339   8.253  12.101  10.771 -0.2901 -0.1131 -0.0578
31446W        W47340   0.015   1.132   6.013 -0.2203 -0.1920 -0.3636
31447W        W47341   7.025   4.987   0.018  0.1983 -0.0187  0.2136
31448W        W47342   3.631   5.751  10.909  0.0345 -0.2166 -0.1670
31449W        W47343   7.802   2.427  14.158 -0.1986  0.2525  0.0931
31450W        W47344   8.321   3.320  13.900  0.2886  0.0897 -0.2232
31451W        W47345  13.673   1.371  11.929 -0.0640  0.2447 -0.0195
31452W        W47346   0.752  17.198   1.955  0.2612  0.1394  0.2187
31453W        W47347  10.914  18.270  12.118 -0.1584  0.1447 -0.0669
31454W        W47348  14.901  12.129   1.610 -0.2221  0.3134  0.2094
31455W        W47349   4.536  10.530  11.370 -0.0821 -0.2348 -0.0999
31456W        W47350  15.689   2.522   3.631 -0.0555 -0.2746  0.0108
31457W        W47351   7.847   8.195   0.616 -0.1540  0.1770 -0.0715
31458W        W47352   4.986  13.730  14.582 -0.1331  0.0907  0.1207
31459W        W47353  10.931   2.551   4.544 -0.0105 -0.1119 -0.2073
31460W        W47354   7.336  17.886   0.519 -0.0731  0.3165 -0.0872
31461W        W47355   5.068  10.229   5.548 -0.3157 -0.0074 -0.1120
31462W        W47356   6.460   6.125  11.770  0.3745 -0.0818 -0.0803
31463W        W47357  17.588   0.688  12.884 -0.0389  0.0274 -0.2281
31464W        W47358  11.843  13.787   0.212 -0.2331 -0.0743  0.1537
31465W        W47359   7.854   3.398  10.789 -0.0643 -0.1373 -0.0703
31466W        W47360  10.806   1.323   0.495 -0.4005  0.3172  0.1448
31467W        W47361   0.398   2.480   3.202  0.1272  0.0957  0.2061
31468W        W47362  10.771  17.572   4.379 -0.0636 -0.0055  0.1919
31469W        W47363  11.750  15.445   0.476  0.1432  0.1899  0.0342
31470W        W47364  13.751   0.978   3.666  0.1334 -0.0427  0.0599
31471W        W47365   5.257  11.444   1.930 -0.0028 -0.0521 -0.0140
31472W        W47366   3.459   6.402   3.148 -0.3488 -0.2361  0.1023
31473W        W47367   3.084   2.977   0.629  0.0594 -0.0545 -0.1108
31474W        W47368  11.198  15.305   3.880 -0.2428  0.2295  0.0968
31475W        W47369   0.301   7.736   0.533  0.0220  0.0593 -0.3325
31476W        W47370  12.907  17.590   0.383 -0.3204 -0.0773  0.3812
31477W        W47371   0.177   8.498   1.817 -0.0309 -0.2783 -0.4288
31478W        W47372   5.955  10.088  12.688 -0.0118  0.3545  0.1661
31479W        W47373   7.095   8.041   5.612  0.3936 -0.2825 -0.2681
31480W        W47374   2.940   8.980   2.649  0.2968 -0.2200 -0.0066
31481W        W47375   4.962  14.876  12.203  0.1695  0.3390 -0.1159
31482W        W47376  15.518   5.278  12.111  0.2252  0.1322  0.0138
31483W        W47377   6.716  17.669  12.636 -0.2063 -0.2456  0.1721
31484W        W47378   4.518  12.905   2.768  0.1101  0.1260  0.0904
31485W        W47379  14.029   1.218  13.849  0.0638  0.1733 -0.0867
31486W        W47380  14.642  10.131   2.258  0.0430 -0.0646  0.2438
31487W        W47381  11.358  13.864  15.470  0.0832  0.3789 -0.4433
31488W        W47382  15.631  18.446   0.556  0.1676 -0.2053  0.0552
31489W        W47383  17.816   0.622  14.063 -0.1812 -0.1775 -0.1753
31490W        W47384  14.336  18.004  11.388 -0.0776 -0.0215 -0.0054
31491W        W47385  11.020  12.251  11.872  0.1452  0.1958  0.0947
31492W        W47386   5.409   2.359  12.632 -0.1784 -0.3070 -0.1768
31493W        W47387   6.998  15.803   3.278 -0.0718 -0.1285  0.1350
31494W        W47388   4.862  14.028  11.795  0.1227 -0.2395 -0.2914
31495W        W47389  16.690  12.621  11.878  0.2006 -0.0468 -0.0859
31496W        W47390   5.418   3.622  14.657 -0.0786 -0.0045 -0.0108
31497W        W47391   2.827   7.141  12.169 -0.1169 -0.0152 -0.0440
31498W        W47392  14.564   9.784  10.472  0.1154  0.1445 -0.0554
31499W        W47393  10.528  11.821   4.905 -0.1681  0.0757  0.2861
31500W        W47394   5.631   0.165  13.438  0.0134 -0.2826 -0.1200
31501W        W47395  15.968  13.228  12.120 -0.0425  0.2633 -0.1869
31502W        W47396  15.223  10.835   0.971 -0.0942  0.2336  0.6159
31503W        W47397   1.519   9.330   4.609 -0.2606 -0.0689  0.0484
31504W        W47398   9.513   1.832  13.945  0.2644  0.1320  0.2635
31505W        W47399   2.657   3.200  12.831  0.0636  0.1665  0.0584
31506W        W47400  15.464  18.747   3.543  0.0605  0.0610 -0.1080
31507W        W47401  10.096   1.478   5.313 -0.0253  0.2006 -0.1222
31508W        W47402   4.395   5.393  11.637  0.4873  0.2346 -0.0724
31509W        W47403  14.433  16.119  13.748  0.0993 -0.0095 -0.0489
31510W        W47404   0.127   1.066   4.869 -0.2370 -0.0376  0.1607
31511W        W47405  11.568   2.206  15.348  0.0149 -0.0471  0.0471
31512W        W47406   9.422   6.263  10.866  0.3761 -0.0647  0.0457
31513W        W47407   8.182  18.861  14.778  0.1057 -0.3028  0.0753
31514W        W47408  10.829  16.723  14.278 -0.0176  0.0430 -0.2410
31515W        W47409   9.118   6.993   1.528 -0.2887 -0.3758  0.2869
31516W        W47410  10.642  12.944   4.636 -0.0951 -0.0303  0.0309
31517W        W47411  12.916   0.744   2.311  0.2078  0.0782  0.3045
31518W        W47412   4.053  17.907   4.098 -0.1035 -0.0131 -0.1020
31519W        W47413  15.650  13.333  14.878 -0.1450 -0.1944 -0.1831
31520W        W47414  12.643  10.297   2.914  0.0936  0.4565 -0.0866
31521W        W47415   9.070  17.834  12.441  0.1759  0.0594  0.2283
31522W        W47416  13.521   8.684   0.397  0.2555  0.3053  0.1066
31523W        W47417   7.985   7.828  11.034 -0.0742 -0.0416  0.2879
31524W        W47418   3.237   4.980  11.367 -0.2538  0.0315  0.1956
31525W        W47419  12.158  11.873   3.321 -0.2246  0.2802 -0.3242
31526W        W47420  14.116  18.053   0.848 -0.0776 -0.2635  0.1954
31527W        W47421   9.201  17.648   1.579 -0.0841  0.1498  0.1305
31528W        W47422   0.226  15.975  12.550  0.3282  0.2836 -0.4416
31529W        W47423   1.747   4.642   4.775  0.2873 -0.0232 -0.1792
31530W        W47424   3.494  12.643  12.550  0.0278  0.2452 -0.0414
31531W        W47425  12.976   3.503   1.974 -0.1422  0.0487 -0.0074
31532W        W47426   7.318   5.783   1.049 -0.0312  0.1160  0.0347
31533W        W47427  11.224  18.873  12.663 -0.0862  0.2606 -0.3478
31534W        W47428   2.893   4.747  14.233  0.1331 -0.3261  0.2250
31535W        W47429  16.410  13.033   2.558  0.0526 -0.1322  0.2728
31536W        W47430  16.958  12.001   1.285 -0.1160  0.1055  0.1279
31537W        W47431   6.336   0.996   2.440  0.1560  0.3766 -0.2066
31538W        W47432  10.280   8.302  13.405 -0.1464  0.1214 -0.1417
31539W        W47433   2.953  10.648  14.623  0.1720  0.3631  0.1981
31540W        W47434  13.757   4.881  12.563 -0.0040  0.3051  0.0929
31541W        W47435  18.637   9.687  13.058  0.0257  0.3483  0.0244
31542W        W47436  11.272   4.639   4.633 -0.1205 -0.1355 -0.2023
31543W        W47437  13.333  14.222  14.279 -0.6713  0.1698 -0.1227
31544W        W47438   4.677  11.287   3.172 -0.1180 -0.2870  0.0082
31545W        W47439   1.395   6.583   3.143  0.2062 -0.1799  0.1503
31546W        W47440   7.345  16.248   2.968  0.2224  0.2640  0.2565
31547W        W47441  17.739   5.624   2.083  0.0315  0.2075 -0.3349
31548W        W47442   5.713  17.525   1.748  0.0862  0.1702 -0.0148
31549W        W47443  11.532   7.094  11.522 -0.0659  0.2471  0.2122
31550W        W47444   6.481   1.409   4.898  0.2112 -0.3705 -0.0520
31551W        W47445  13.483   3.226  12.231 -0.1410 -0.0308  0.1329
31552W        W47446   1.999  13.296   4.018  0.0798 -0.2364  0.3626
31553W        W47447   5.410   0.801   4.671  0.1536  0.0019 -0.1384
31554W        W47448   7.555   9.823   2.103 -0.2837 -0.1011 -0.2162
31555W        W47449  17.068  16.305  13.779 -0.0167 -0.0868  0.0487
31556W        W47450   2.087   4.507  14.892 -0.0760  0.1533 -0.1852
31557W        W47451   9.499  15.198  13.352  0.4973 -0.0543 -0.4363
31558W        W47452  13.749   2.594   3.618 -0.1378  0.0330  0.2790
31559W        W47453  17.125   4.581  13.814  0.0598  0.1500  0.0047
31560W        W47454   8.622   0.223  12.053 -0.0375 -0.0297 -0.0369
31561W        W47455  16.291   4.745  13.324  0.1884  0.1371  0.0801
31562W        W47456   8.914  18.641   3.705  0.0477 -0.1904 -0.0343
31563W        W47457   4.904   9.551   1.953 -0.0287 -0.2772  0.0960
31564W        W47458   6.970   0.891   2.426  0.4231  0.0021 -0.0363
31565W        W47459  17.941   1.428  14.126 -0.0506  0.0645  0.0973
31566W        W47460  18.047  16.811  15.387 -0.2989  0.3779 -0.0486
31567W        W47461  13.496  11.963   4.617 -0.3143 -0.1050  0.2545
31568W        W47462  11.144   1.001   6.054 -0.1296 -0.0915 -0.0084
31569W        W47463   1.928  12.767  14.386 -0.2731  0.0610 -0.1001
31570W        W47464   9.887   2.496   2.471 -0.2168  0.1143  0.3813
31571W        W47465   6.334   8.705  14.290 -0.3518  0.0714  0.0545
31572W        W47466  10.933   8.119  14.143 -0.2373 -0.1906 -0.1270
31573W        W47467   9.747  10.395   3.484 -0.0047 -0.0503  0.1526
31574W        W47468   0.424   2.598   2.113  0.1458  0.2058  0.0939
31575W        W47469   1.833   7.985   2.085 -0.2507  0.2842  0.1258
31576W        W47470  14.444  15.018   2.446 -0.0836  0.0923 -0.1678
31577W        W47471   1.661   5.178   0.979 -0.2033  0.2511 -0.0710
31578W        W47472  12.128  11.184  14.996  0.1153 -0.0114  0.0647
31579W        W47473  16.838  16.437   4.760 -0.0096  0.0579  0.1260
31580W        W47474  17.762  17.110  11.162 -0.0072 -0.0798  0.0610
31581W        W47475   3.780  18.648   1.361  0.2009  0.3152  0.0023
31582W        W47476   6.795   7.037   0.964 -0.2657 -0.0951  0.0195
31583W        W47477   7.922  10.102   0.272  0.0297 -0.4348  0.0800
31584W        W47478   7.700   5.066  14.932  0.0349 -0.1735 -0.0321
31585W        W47479  11.842   3.893  14.597  0.0497  0.2448  0.1082
31586W        W47480  14.716   3.956  14.639 -0.1043  0.4056  0.0755
31587W        W47481   5.662   4.300  12.213 -0.2213  0.2910  0.2680
31588W        W47482   6.638  17.559   1.732  0.2437 -0.1005  0.0582
31589W        W47483  14.567   5.156  13.092  0.3904  0.0542  0.2631
31590W        W47484  14.222  10.985  13.273  0.0108 -0.1892 -0.2974
31591W        W47485   7.393   0.147  14.075  0.4164 -0.1895 -0.1258
31592W        W47486   7.372   8.533  12.677  0.2240 -0.0556 -0.6089
31593W        W47487   9.795   7.760  11.049  0.0934  0.3528  0.0156
31594W        W47488   8.577  17.136   3.078 -0.3428 -0.0311  0.0502
31595W        W47489  15.001   2.981   0.123 -0.0080 -0.1578 -0.3152
31596W        W47490  16.867  17.523  14.447  0.0469  0.1262 -0.0631
31597W        W47491   6.851  17.734   2.187  0.0210 -0.0111  0.1309
31598W        W47492  13.018  13.764  12.622  0.0468  0.1452 -0.1154
31599W        W47493   4.574   1.201   2.242  0.0168  0.1596  0.1224
31600W        W47494  18.027  16.310   3.325 -0.2807 -0.0231 -0.4776
31601W        W47495   2.049  15.926   3.427  0.0234 -0.0126  0.2815
31602W        W47496  17.419  15.593  15.201  0.2940  0.0218  0.0304
31603W        W47497   0.849  12.356  12.269  0.3824  0.0958  0.0417
31604W        W47498  14.562   1.708   3.431  0.1729  0.3754 -0.0807
31605W        W47499  17.112   0.711  11.949 -0.0390  0.0342 -0.4116
31606W        W47500   3.020   0.973   2.831  0.0251 -0.1473 -0.0802
31607W        W47501   6.042  17.022   1.407  0.2403  0.2060 -0.1381
31608W        W47502   5.633   6.298   1.713  0.0081 -0.0715  0.1889
31609W        W47503  13.736  17.784   0.995  0.0206 -0.0044 -0.1282
31610W        W47504   9.207  14.873   3.053 -0.0464 -0.1572  0.3732
31611W        W47505   2.598  10.204  12.893 -0.1262  0.1582  0.1592
31612W        W47506   9.362  11.990   3.016 -0.2920 -0.2776 -0.4276
31613W        W47507  13.531   5.857   1.888  0.1594 -0.0391 -0.0738
31614W        W47508  11.358  16.274  13.556  0.0229  0.2489  0.0593
31615W        W47509   9.329  15.317   0.040 -0.0815 -0.3060 -0.0072
31616W        W47510   4.975  11.112   5.201  0.2587  0.1739 -0.0555
31617W        W47511   8.430   4.530   4.911 -0.0868  0.1203 -0.1954
31618W        W47512   6.587  12.970  10.776 -0.4970  0.2541  0.4753
31619W        W47513   3.141  13.943  14.178 -0.0185  0.0712 -0.0913
31620W        W47514  11.060  15.977   2.089  0.1626  0.2940 -0.1840
31621W        W47515  11.407  13.087   1.538 -0.0299 -0.0986  0.3182
31622W        W47516   0.951   2.998   0.339  0.4277  0.4255  0.2620
31623W        W47517   4.085   8.128   3.045  0.4484  0.0894 -0.1577
31624W        W47518   4.514   5.488   1.901  0.0655 -0.0245  0.4104
31625W        W47519   3.096  11.096  10.327  0.0345  0.4016  0.3538
31626W        W47520  14.629  11.701   0.805  0.1218 -0.1257  0.1882
31627W        W47521  10.271  16.188   2.519  0.0192 -0.1444 -0.3436
31628W        W47522  15.225  10.992  14.894  0.0542 -0.0711 -0.2121
31629W        W47523  15.186   4.205  12.864  0.3392 -0.0655  0.0501
31630W        W47524  12.858   9.193  10.078 -0.2110  0.1995  0.1793
31631W        W47525   7.950  11.742  10.991  0.2060  0.0441  0.0719
31632W        W47526  10.251  13.978   2.258  0.1867 -0.2730 -0.2476
31633W        W47527  13.178   8.742   2.274  0.0648  0.0033  0.0656
31634W        W47528  14.922   1.625   2.438  0.3072  0.1481 -0.1693
31635W        W47529  13.379   8.888  12.441  0.2470 -0.0322  0.0857
31636W        W47530  15.924   3.811  13.733  0.2645 -0.1292 -0.2569
31637W        W47531   6.130  18.673   5.206 -0.1148  0.3571 -0.0937
31638W        W47532  15.019   5.193   1.178 -0.3879 -0.2592  0.0841
31639W        W47533  11.022   4.030  14.181  0.2931  0.2383  0.2413
31640W        W47534  18.607  14.137   2.389 -0.1843  0.0208  0.0124
31641W        W47535  10.950   2.278  14.114  0.0386 -0.1094  0.0325
31642W        W47536   0.696   9.462  11.525  0.4142  0.1596 -0.1830
31643W        W47537   4.061   0.915  12.964 -0.0500 -0.5952  0.0410
31644W        W47538   7.445  18.424   1.489 -0.0638  0.3274  0.0343
31645W        W47539  14.659   3.948  11.922  0.0096 -0.1529  0.0095
31646W        W47540   3.248   0.477   0.768 -0.1213 -0.0933 -0.3102
31647W        W47541   7.550   8.156   2.145 -0.1723  0.1362 -0.0155
31648W        W47542  13.597   7.513  11.316  0.0282  0.0564  0.1630
31649W        W47543   5.697   8.526   0.827  0.1930  0.0346  0.0752
31650W        W47544  17.000   9.633  13.347 -0.1226 -0.1924  0.4228
31651W        W47545  12.857  15.913   0.753 -0.1610  0.5482 -0.2714
31652W        W47546  16.615   0.211   4.046 -0.2528  0.0020  0.0013
31653W        W47547   8.592  10.076  12.872  0.1210  0.0188 -0.0425
31654W        W47548  17.289  16.671   0.336 -0.2541  0.0327  0.1616
31655W        W47549   8.609  13.641  13.888 -0.1313  0.0594 -0.0138
31656W        W47550   1.314   7.233   1.633  0.2417  0.0644 -0.1078
31657W        W47551  10.057  17.198   4.501 -0.0124  0.0560  0.1308
31658W        W47552   5.957   9.139   1.988  0.0066  0.2302  0.1911
31659W        W47553  12.831  17.666  11.726 -0.0870  0.0356  0.1335
31660W        W47554  11.242  12.338  14.930 -0.3396 -0.2467 -0.2370
31661W        W47555  15.775   9.093  14.699  0.3602 -0.1914 -0.1537
31662W        W47556  10.146   1.093  11.803  0.0482  0.0704 -0.1113
31663W        W47557  12.400   7.582  13.101  0.0551  0.0399 -0.2068
31664W        W47558   1.086  10.671  15.224 -0.0765  0.1114 -0.0758
31665W        W47559  18.059   1.464   4.217 -0.2074  0.2792 -0.1241
31666W        W47560   7.315   2.776  10.944 -0.0181  0.0258  0.1669
31667W        W47561   8.336  13.226   3.440 -0.0372 -0.0399 -0.3203
31668W        W47562  14.311  16.315   0.337 -0.1396 -0.3028 -0.0658
31669W        W47563  18.080  10.880  13.950 -0.1812  0.0908  0.1198
31670W        W47564   8.663  11.310  11.679 -0.3503  0.1341  0.0134
31671W        W47565  10.081  15.076  12.168  0.1654 -0.0213 -0.0788
31672W        W47566  10.157  16.519   4.118  0.1157  0.4663  0.0635
31673W        W47567   7.503  15.107  10.966  0.1633 -0.1540 -0.0430
31674W        W47568  17.234   0.894   4.573 -0.1244  0.0757 -0.0443
31675W        W47569   6.191   9.743  13.675 -0.0256 -0.1020 -0.1751
31676W        W47570   5.849   3.782   1.547  0.2108  0.0642  0.1183
31677W        W47571  16.857   8.493   4.162  0.2054 -0.0449 -0.1001
31678W        W47572   3.956   4.238   4.784 -0.0561  0.0067 -0.0650
31679W        W47573  16.996  14.353  14.959  0.1625  0.0345  0.0323
31680W        W47574   5.618  13.934   4.040  0.0293 -0.0934  0.2069
31681W        W47575  18.867  12.896  11.965  0.1341 -0.1092  0.3139
31682W        W47576  12.056  17.497   2.850  0.3440 -0.0202 -0.0955
31683W        W47577  10.525   8.557   0.305 -0.4542 -0.1271  0.2286
31684W        W47578   2.744   3.580  12.140  0.3250 -0.2344  0.2807
31685W        W47579  12.047  13.972  14.591  0.3269  0.0363 -0.4090
31686W        W47580   8.098  10.128  13.161 -0.0448 -0.0208 -0.0163
31687W        W47581   6.073  11.142   1.939 -0.1290  0.3029 -0.2597
31688W        W47582  17.474  13.685   3.100 -0.2820 -0.0618  0.0332
31689W        W47583  17.950  15.280   4.062 -0.3642  0.0174 -0.0358
31690W        W47584  10.793  13.519  10.904  0.2694 -0.0308  0.1454
31691W        W47585   8.509   5.337  13.270  0.1256  0.0812 -0.0422
31692W        W47586  17.058   1.389   3.664 -0.0204  0.1186  0.2474
31693W        W47587  10.998  16.162  12.992  0.0665 -0.0247  0.1590
31694W        W47588  16.161  15.808  14.416 -0.0106  0.0600 -0.0586
31695W        W47589  15.623  13.315   1.066 -0.0498 -0.1656 -0.3086
31696W        W47590  11.485  12.190   1.957  0.2082 -0.1710  0.0233
31697W        W47591   9.920   5.091  13.366  0.0010 -0.1806  0.2606
31698W        W47592   0.880   6.885  13.008  0.2902 -0.2866  0.0003
31699W        W47593   2.724  12.152  13.880 -0.0268 -0.1069 -0.1749
31700W        W47594   9.330  14.277   4.058 -0.1467  0.1368  0.1750
31701W        W47595   4.164  12.077  11.295 -0.1398  0.1545  0.2800
31702W        W47596   1.414  16.605   3.476  0.1039 -0.4880  0.1236
31703W        W47597  11.666   9.532  13.847  0.2685  0.0074  0.1527
31704W        W47598   7.198   1.927  14.991 -0.0061  0.1668 -0.2198
31705W        W47599   1.306   9.420   3.656 -0.0416 -0.0302  0.0788
31706W        W47600   2.731   7.749   4.902 -0.0381 -0.1102 -0.1722
31707W        W47601  16.797  17.478   5.294 -0.1796 -0.0133  0.0296
31708W        W47602   3.724  16.919   1.032 -0.1861 -0.1773  0.1032
31709W        W47603   8.153   1.216  10.036  0.0398  0.2904  0.0240
31710W        W47604  10.055   5.579   2.332 -0.0619  0.2431 -0.1980
31711W        W47605  16.684  13.218  10.973 -0.1794  0.1338  0.1856
31712W        W47606  13.789   6.030   3.657 -0.2667  0.3609  0.1203
31713W        W47607  16.402  15.118  13.887 -0.0431  0.2256 -0.2706
31714W        W47608  16.387  16.997   3.051  0.1039 -0.1634  0.2838
31715W        W47609  14.862  11.859  14.179  0.0144 -0.0665  0.1865
31716W        W47610  11.203   1.068   4.369  0.1823  0.0426 -0.1221
31717W        W47611   1.381   0.474   2.911 -0.3559  0.1157 -0.0767
31718W        W47612  11.012  18.055   0.524 -0.1752 -0.0242  0.0374
31719W        W47613  15.907   3.176  12.354 -0.0764  0.1374 -0.1748
31720W        W47614  14.654   9.064  12.236  0.2337 -0.2786 -0.0965
31721W        W47615   8.633  18.240  11.621 -0.1561 -0.2684  0.1834
31722W        W47616   4.802   0.082   4.834  0.0264  0.1884 -0.0084
31723W        W47617   5.228  10.898  13.383  0.4447  0.1792  0.0229
31724W        W47618   0.787  13.803   2.115  0.0046 -0.1108  0.2090
31725W        W47619   8.620   0.623  14.278 -0.1417  0.1216  0.1226
31726W        W47620   4.270   3.705   2.083  0.0062  0.0032  0.1953
31727W        W47621   6.265  17.210  14.349  0.1051  0.0626  0.3375
31728W        W47622  16.034   6.946  12.375 -0.3669  0.0282 -0.0671
31729W        W47623  10.797  18.864   1.102  0.1211 -0.1044 -0.0855
31730W        W47624  13.842  15.554  13.187  0.1432 -0.1046 -0.0916
31731W        W47625  17.588   9.284   4.264 -0.1494  0.0397  0.0667
31732W        W47626   9.746  10.197   1.304 -0.1946  0.0930 -0.3095
31733W        W47627  16.499  16.598  13.781  0.2278 -0.0366  0.0728
31734W        W47628  11.100  16.121   0.508  0.0427 -0.0756 -0.2171
31735W        W47629  14.145   6.126   4.065  0.2169 -0.1833 -0.1758
31736W        W47630   8.602   0.268  11.139  0.0878  0.0632 -0.1591
31737W        W47631   2.108   1.453   4.165 -0.1560  0.0402 -0.2629
31738W        W47632   9.436   5.651   0.867 -0.0616 -0.3517 -0.1847
31739W        W47633   8.140   1.367   1.991 -0.0091 -0.1154  0.0443
31740W        W47634  10.449  18.159   0.913 -0.0381 -0.1464  0.0531
31741W        W47635  14.563  11.219  11.545 -0.2304 -0.0674  0.0160
31742W        W47636  15.568  17.009   5.052 -0.3465  0.1272  0.2884
31743W        W47637  15.274   1.912   5.243  0.4434  0.1078 -0.0764
31744W        W47638  18.570  13.319  12.552  0.0692  0.0945  0.2274
31745W        W47639   7.669  18.106  14.332 -0.0399  0.0976  0.0577
31746W        W47640   4.207   6.534   5.066  0.3448  0.1532  0.1092
31747W        W47641  17.032   0.766   1.286  0.1212  0.3030  0.1235
31748W        W47642  18.418   6.750  11.967  0.0866 -0.0709 -0.1732
31749W        W47643   8.757  12.167   4.269 -0.0703  0.0315 -0.0794
31750W        W47644   0.388   5.159   1.384 -0.2825 -0.1821 -0.0269
31751W        W47645  17.889  10.679  14.868  0.2818  0.0656  0.0260
31752W        W47646  18.314  17.382  13.883  0.4236  0.3403 -0.0699
31753W        W47647   1.815  13.878   3.434 -0.0557 -0.0763  0.0182
31754W        W47648   5.461   4.528  12.592  0.0572  0.0274  0.0118
31755W        W47649   1.512   5.739   0.981  0.0558  0.1093 -0.2977
31756W        W47650  17.035  18.399   0.244  0.0452  0.1335 -0.0553
31757W        W47651  16.206  15.606   5.006 -0.2189 -0.0605 -0.0243
31758W        W47652  10.059   1.765   3.732 -0.1351  0.0158  0.5509
31759W        W47653  10.677   2.622  13.696  0.0163 -0.0518  0.0663
31760W        W47654  13.530   9.832  12.221  0.0203  0.2719 -0.1957
31761W        W47655  11.507  12.754   3.176  0.1683  0.5089  0.1004
31762W        W47656   1.994   8.494   4.962 -0.2445 -0.2978  0.2647
31763W        W47657   7.996  10.463   4.902  0.0758 -0.0779  0.0456
31764W        W47658  14.219  10.818  15.165 -0.1712 -0.0591 -0.1585
31765W        W47659  11.336  11.379   3.852  0.0270 -0.0686 -0.1628
31766W        W47660  13.201   3.978  13.423  0.1812  0.1850 -0.0242
31767W        W47661  10.841   0.987   0.923  0.0643 -0.3494  0.1510
31768W        W47662   6.812   3.581   5.618  0.0858 -0.0485 -0.0359
31769W        W47663  15.206   0.920   2.933 -0.2647 -0.2748  0.2503
31770W        W47664  14.727  11.392  12.454 -0.0208  0.0184  0.1287
31771W        W47665  13.392  15.298  12.287 -0.0387  0.0701 -0.0341
31772W        W47666  16.867   9.454  11.723 -0.0339 -0.1479 -0.3848
31773W        W47667  11.715   6.221   3.291  0.4299 -0.3177  0.1113
31774W        W47668   6.519  12.832   5.109 -0.0591 -0.2104  0.2443
31775W        W47669   2.171   9.174  13.071 -0.1903 -0.0620 -0.3944
31776W        W47670  16.367  16.164   5.241  0.2469  0.2643  0.0556
31777W        W47671   0.762   5.335   3.198  0.1071  0.0018  0.0184
31778W        W47672   6.998  15.207   0.894  0.1755 -0.1888  0.0583
31779W        W47673   2.652  18.413  12.016  0.1989 -0.1169 -0.0596
31780W        W47674   0.521   6.957  11.772 -0.0339 -0.2051  0.0325
31781W        W47675   3.883  14.912  12.379 -0.2363 -0.2971 -0.0054
31782W        W47676  18.407   3.426  12.685 -0.0308  0.0567  0.4281
31783W        W47677   7.927  10.233   3.021 -0.1382  0.1910  0.0526
31784W        W47678  17.153  14.500  13.542  0.0979  0.1598 -0.0112
31785W        W47679   8.389  16.446   3.789  0.3407  0.0658  0.2547
31786W        W47680  13.459  16.351   0.036  0.0520  0.0832 -0.0631
31787W        W47681  10.505  12.580  14.420  0.0138 -0.0975 -0.1412
31788W        W47682   7.797   5.811  12.310  0.1459  0.1160 -0.2524
31789W        W47683  15.237  14.303  11.962  0.2592  0.0841 -0.0873
31790W        W47684   7.689  10.634   4.578  0.2262  0.1063 -0.1169
31791W        W47685  17.984   4.382   1.279  0.1677  0.1229  0.0207
31792W        W47686   2.389   9.185   0.883  0.3527 -0.1452  0.0015
31793W        W47687   6.506   3.098  12.613 -0.1961 -0.1685 -0.2498
31794W        W47688   0.405   1.629  13.547 -0.3973 -0.5286  0.0204
31795W        W47689   4.964  11.883  14.876 -0.2108  0.1191  0.0376
31796W        W47690  18.642  16.890   0.808 -0.4280 -0.0497  0.1570
31797W        W47691  17.686  16.289   4.235 -0.2292 -0.2569  0.2375
31798W        W47692  14.764   6.296  13.291 -0.0614 -0.1866 -0.1391
31799W        W47693   5.686   5.348  13.008 -0.4065 -0.2325  0.0456
31800W        W47694   3.615   8.262  11.578 -0.0556  0.0986 -0.0235
31801W        W47695  10.230   1.520  13.429  0.0732 -0.0315 -0.1125
31802W        W47696  18.176  12.173   1.047 -0.2101 -0.4111 -0.0112
31803W        W47697   0.655   7.924   4.869  0.3219  0.2016  0.0480
31804W        W47698  12.807   9.761   1.742 -0.3095 -0.2351 -0.1585
31805W        W47699  11.968   9.273  13.524 -0.0382  0.0990 -0.1278
31806W        W47700   2.616   5.390  10.698 -0.2831  0.1381 -0.0791
31807W        W47701   3.127   0.701   5.361 -0.3994 -0.1204  0.1593
31808W        W47702   9.498  12.006   4.688  0.2463  0.4712  0.1892
31809W        W47703  13.303   6.492   0.396  0.1232 -0.1176 -0.0331
31810W        W47704  17.797  18.054  11.101  0.2038 -0.1638 -0.3577
31811W        W47705   8.029   1.578   2.614 -0.1264  0.0615  0.0777
31812W        W47706  11.680  11.355  10.664  0.1166 -0.1825  0.0361
31813W        W47707   6.325  15.207  13.500 -0.0245 -0.0346  0.2039
31814W        W47708   0.139  16.019   3.372  0.2043  0.2134  0.2004
31815W        W47709   0.149   8.462   5.609 -0.4307  0.0665  0.0242
31816W        W47710   9.096   3.044  12.803  0.1122  0.1615  0.0643
31817W        W47711   3.526  16.411   2.840 -0.0543  0.0555  0.2927
31818W        W47712   1.705   3.451   1.274 -0.0083  0.0703 -0.0687
31819W        W47713   7.315  11.143   0.042  0.0933 -0.1954  0.1952
31820W        W47714  12.058   2.404   9.859  0.2246 -0.0078 -0.0215
31821W        W47715   4.782  10.269  12.574 -0.2421 -0.0821  0.0255
31822W        W47716   6.178  10.128   2.470 -0.0905  0.1174 -0.1425
31823W        W47717  13.792   4.141   3.486  0.0019  0.2954 -0.0313
31824W        W47718  17.685   5.968   4.799  0.1652  0.2233  0.0511
31825W        W47719  16.201  11.822   3.514  0.0507  0.1483 -0.0368
31826W        W47720   2.958   4.874  10.522 -0.0887 -0.2416 -0.1645
31827W        W47721  18.081   9.658   3.158 -0.0960 -0.3699  0.4420
31828W        W47722  14.784  16.554  14.530 -0.0940  0.1034 -0.0690
31829W        W47723   4.358  15.695   5.187 -0.3235  0.2535 -0.0414
31830W        W47724  16.016   8.118   4.212  0.4015  0.0054  0.2476
31831W        W47725  15.181  15.826   3.245 -0.0879  0.3261 -0.2725
31832W        W47726   2.149   0.388   0.493 -0.0175 -0.2979  0.1626
31833W        W47727   7.339  17.789   5.093 -0.0516  0.0070  0.0611
31834W        W47728   8.356   2.805  13.918 -0.3085 -0.0658  0.1735
31835W        W47729   2.574  16.099  12.803  0.0604  0.1807  0.1725
31836W        W47730   2.494   6.480  12.663  0.0159  0.1537 -0.1993
31837W        W47731  17.244   0.558  11.132  0.0364 -0.1163 -0.0050
31838W        W47732  18.572  14.279   1.101 -0.0989  0.0634  0.0239
31839W        W47733   0.732   1.810  12.584 -0.0017  0.0640 -0.0520
31840W        W47734  12.196   4.958   4.466  0.1446 -0.2897 -0.0566
31841W        W47735   4.742   4.156  11.888 -0.2249 -0.1394  0.0029
31842W        W47736   7.868  11.265   3.528  0.1921  0.3300  0.0965
31843W        W47737  11.445   3.820  12.201  0.1991 -0.1123  0.1435
31844W        W47738   8.809  14.211   1.731  0.0455 -0.0776  0.3179
31845W        W47739   1.853   2.113   1.187 -0.4235  0.3013  0.3724
31846W        W47740  12.463  17.422   3.126  0.0535 -0.1662 -0.2637
31847W        W47741   2.179  13.137  12.637 -0.2304  0.0685 -0.0847
31848W        W47742   5.182   3.272   1.928  0.1249 -0.0320 -0.3539
31849W        W47743  13.977   2.618   5.636 -0.0347 -0.1202 -0.1319
31850W        W47744   8.377   5.056   1.087 -0.3161 -0.0526  0.2882
31851W        W47745  16.673   7.756   0.504  0.1955 -0.1685  0.1947
31852W        W47746   2.209   7.426  11.442  0.1463  0.4639 -0.0281
31853W        W47747   4.610  17.351  13.298  0.2290 -0.0293  0.2532
31854W        W47748  13.871   8.567  12.341  0.0424 -0.0563  0.1585
31855W        W47749   9.506   8.843   9.495 -0.0564  0.2828 -0.0092
31856W        W47750   2.501  15.541   1.385  0.1945 -0.0207  0.1739
31857W        W47751  14.903   4.428   0.132 -0.2335  0.0978  0.3133
31858W        W47752  12.799   4.554  12.713  0.1491  0.4057 -0.2993
31859W        W47753  13.029  13.644  11.080 -0.0340 -0.1355 -0.3956
31860W        W47754  12.349  11.988  13.409  0.1340 -0.1272 -0.0259
31861W        W47755   2.446  11.253  13.179  0.2091 -0.0023  0.1639
31862W        W47756  15.725   5.996  10.608  0.0190  0.2719  0.1141
31863W        W47757  16.596   7.038  14.951 -0.2127  0.0719 -0.0484
31864W        W47758   8.674  18.169   2.075  0.1996  0.1763  0.1433
31865W        W47759  11.776  16.395   0.704  0.0271  0.0349  0.5563
31866W        W47760   8.316   8.750  14.442  0.0771 -0.0772 -0.0845
31867W        W47761   1.836   5.460   0.599  0.0230  0.0438  0.1171
31868W        W47762  12.043   9.715  11.642  0.2878 -0.0911 -0.0466
31869W        W47763  15.019  14.105  13.443 -0.0402 -0.0664  0.1641
31870W        W47764   2.408   7.000   9.375  0.0423  0.2737 -0.2175
31871W        W47765   0.451  11.560  14.444  0.0611  0.1339 -0.5731
31872W        W47766  11.220   6.678  15.201  0.0482 -0.2714 -0.0295
31873W        W47767  18.769   0.603   3.199  0.1678 -0.0454 -0.2009
31874W        W47768  11.284   6.289   2.393 -0.0635  0.1409  0.2215
31875W        W47769  14.611   8.601  13.571 -0.1055 -0.0382  0.0173
31876W        W47770  18.495  14.721   1.261 -0.2023  0.0592  0.1061
31877W        W47771  18.731   6.231   0.491 -0.2807  0.0884 -0.1365
31878W        W47772  15.953  12.877  10.986 -0.1716 -0.0986  0.1475
31879W        W47773  16.729  17.227   4.346 -0.1185  0.1158  0.1808
31880W        W47774   3.649   5.193   0.317 -0.1045 -0.1127  0.3441
31881W        W47775  12.922   4.593   0.766  0.2030 -0.0744  0.0934
31882W        W47776  11.919   8.536  10.770 -0.2769 -0.0076  0.0896
31883W        W47777  17.435  11.608   1.267 -0.0767 -0.2007 -0.1581
31884W        W47778   5.486   9.813  11.450 -0.2649 -0.1779  0.0476
31885W        W47779  18.425   7.067   3.663  0.0193 -0.0863  0.2466
31886W        W47780   3.140  14.357  10.648  0.1266 -0.2578 -0.0863
31887W        W47781  12.060  11.087   2.824 -0.0268  0.1065 -0.0743
31888W        W47782  17.129  18.775  12.220 -0.0280  0.1181  0.3521
31889W        W47783   0.247   3.583  12.032  0.0574 -0.1885  0.1154
31890W        W47784  11.522   6.596  12.498 -0.4750 -0.2888 -0.0848
31891W        W47785  16.072   3.449   3.504 -0.1192  0.1930 -0.0323
31892W        W47786  13.598  16.334   0.548 -0.1217 -0.2870  0.1783
31893W        W47787  18.414   1.359   1.789 -0.0562  0.1858  0.6041
31894W        W47788   4.605  12.421  11.111  0.1706  0.2224  0.0047
31895W        W47789   2.489   0.175   4.738 -0.1099  0.0037  0.1167
31896W        W47790  13.483   8.471  12.009 -0.0116 -0.0698  0.1338
31897W        W47791   8.449   5.609   2.944  0.1060  0.2461 -0.1948
31898W        W47792   4.526   3.636   3.496 -0.1167 -0.3272  0.2636
31899W        W47793  10.588   1.048   3.157  0.0539  0.1358  0.1658
31900W        W47794   3.752  10.338  12.524  0.0113 -0.1192  0.3502
31901W        W47795  10.555  11.528   0.331  0.0845  0.1322  0.0093
31902W        W47796   2.592  18.881   2.300 -0.1652 -0.2043 -0.1947
31903W        W47797   5.996  16.000  10.551  0.0074 -0.0400 -0.0134
31904W        W47798  12.155   6.852   1.603 -0.3366 -0.1802  0.1080
31905W        W47799   7.359   0.005   0.984 -0.3674 -0.2823 -0.2619
31906W        W47800  10.867   9.607  12.235 -0.1976  0.0138  0.3588
31907W        W47801  12.810  18.035   3.122 -0.0595 -0.2121 -0.0454
31908W        W47802  10.522  18.851   1.972 -0.0306  0.1902  0.3677
31909W        W47803  17.218   1.741  11.860  0.1861 -0.1320  0.1635
31910W        W47804  18.121  11.671  15.074  0.4150 -0.0323  0.2427
31911W        W47805  15.809   9.576   2.123 -0.0874  0.0169 -0.2838
31912W        W47806   9.082   8.732   0.559 -0.4844  0.0602 -0.0462
31913W        W47807   7.800  13.236   3.294  0.1696 -0.2339  0.1358
31914W        W47808   0.092  14.286  10.535 -0.1512 -0.1905 -0.0880
31915W        W47809   1.513  11.418  13.905 -0.0037 -0.0224 -0.0842
31916W        W47810   2.961   9.831   1.278 -0.1515 -0.0955 -0.0570
31917W        W47811   0.208   5.635   2.499 -0.1378  0.0063 -0.3853
31918W        W47812  14.830   6.985   1.641  0.0906 -0.2227 -0.1035
31919W        W47813   9.017  13.581  10.918 -0.0656 -0.1658 -0.0292
31920W        W47814  15.677   3.907  10.663  0.0930 -0.1161  0.1940
31921W        W47815  12.154   2.755  12.775  0.0054 -0.0860 -0.0055
31922W        W47816   9.508   0.178   2.778  0.0497  0.2870  0.0396
31923W        W47817  17.561   1.111  11.989  0.3849  0.0978 -0.0307
31924W        W47818   1.575  13.521   3.197 -0.1051 -0.2046  0.4928
31925W        W47819   6.062   9.444   3.743  0.1165 -0.3476  0.0118
31926W        W47820  14.478   6.211  10.760  0.0366 -0.0083 -0.0243
31927W        W47821   8.834   5.410  14.854  0.3948  0.0196  0.1052
31928W        W47822  11.248  14.212   3.182  0.1733 -0.1594  0.5993
31929W        W47823  18.590  14.947  14.975 -0.2242  0.1750  0.0887
31930W        W47824   4.428  14.425   2.209  0.0386 -0.1152 -0.1040
31931W        W47825  12.153  16.825  10.686 -0.1164 -0.4456 -0.1123
31932W        W47826   9.099  13.510  13.645  0.0794 -0.0049 -0.1861
31933W        W47827   3.312  18.465   2.048  0.0083 -0.2146  0.1878
31934W        W47828   4.781  14.050   4.415 -0.0442  0.2558  0.2585
31935W        W47829  18.331   6.534   4.396 -0.1114 -0.0451 -0.2195
31936W        W47830   9.438  15.564   2.043  0.2376  0.2156 -0.0275
31937W        W47831  17.032  12.267   5.076 -0.1410  0.0061  0.0858
31938W        W47832   0.601   8.724  10.601  0.3091  0.0504  0.3061
31939W        W47833   8.416   6.372   5.954  0.3399 -0.2091 -0.0572
31940W        W47834   0.751   2.466  14.842  0.1511 -0.0521 -0.1412
31941W        W47835   9.566  14.971   0.261  0.1545  0.2614 -0.1796
31942W        W47836   0.597  11.496   1.232 -0.1242  0.0586 -0.0884
31943W        W47837   6.133   8.354  13.890 -0.2096 -0.4395 -0.1945
31944W        W47838   9.638   1.229  11.931 -0.0315 -0.1527  0.2610
31945W        W47839   5.611   1.886  12.579 -0.2488  0.2047 -0.2874
31946W        W47840   0.203  13.399  13.581 -0.1086 -0.0762  0.0108
31947W        W47841   5.852  16.929  15.092  0.0559 -0.0727  0.0445
31948W        W47842   0.915   7.439   3.640 -0.3915  0.0963 -0.1436
31949W        W47843  18.712   2.389  15.390  0.1593 -0.0706  0.0623
31950W        W47844  16.612  16.656   9.856  0.2453  0.4339  0.3108
31951W        W47845   0.595  10.644  13.775  0.1039  0.0663 -0.2038
31952W        W47846  10.544   2.734   4.783  0.5029 -0.2242 -0.1845
31953W        W47847  12.885  17.373   1.567 -0.0371 -0.1791  0.0768
31954W        W47848  18.806  18.811   3.872  0.1086  0.0010  0.1592
31955W        W47849   7.291   4.222   1.868  0.1130 -0.0124  0.2073
31956W        W47850   6.787   8.363   0.183  0.2235  0.1187 -0.0614
31957W        W47851   3.902  15.124  14.727 -0.0818 -0.0048  0.2467
31958W        W47852   3.116   0.224   5.174 -0.1066 -0.0425 -0.1803
31959W        W47853   7.151  16.309  12.658  0.1978 -0.0828 -0.0896
31960W        W47854  14.886  15.429   3.320 -0.2991  0.2601 -0.2781
31961W        W47855   9.215  18.302   2.744 -0.1805 -0.3639  0.2834
31962W        W47856   5.045  12.396   4.607 -0.2208 -0.1486 -0.1209
31963W        W47857   2.907   7.934   2.436  0.0103 -0.0921  0.0026
31964W        W47858   9.032  13.110  12.357 -0.1674  0.0602 -0.0926
31965W        W47859   9.842   4.116   4.545  0.2854  0.0726  0.2875
31966W        W47860   4.920   7.553   3.378  0.1248  0.1127 -0.1559
31967W        W47861   8.062  10.030  13.736 -0.2043 -0.1615  0.0767
31968W        W47862  12.186  17.520   1.747  0.1892 -0.1713  0.2055
31969W        W47863  17.160   3.399   1.118 -0.0142  0.1315 -0.1083
31970W        W47864   0.191  10.946  10.211  0.0429  0.2682 -0.0185
31971W        W47865  11.895   1.124   3.048 -0.0460  0.2068 -0.0698
31972W        W47866   0.595   9.031   0.723  0.1144 -0.1796  0.1830
31973W        W47867  15.680   8.411  12.877  0.1625  0.0678 -0.0760
31974W        W47868   3.859  14.234  13.415 -0.0454  0.2048  0.0722
31975W        W47869  16.221   5.526   1.115 -0.0710  0.0906  0.0593
31976W        W47870  14.371  12.460  12.496  0.1049 -0.0121  0.0062
31977W        W47871   8.836   7.206  12.610  0.0464 -0.4371  0.0676
31978W        W47872  12.833  14.957   1.890 -0.0546  0.3042  0.1463
31979W        W47873  16.824  11.450   4.708 -0.0213  0.2745 -0.0277
31980W        W47874  13.737  13.115   1.863 -0.1062 -0.0427  0.1120
31981W        W47875   3.539   9.125   0.067  0.4668  0.3483 -0.1494
31982W        W47876   0.984  17.563  12.167 -0.1515 -0.1662 -0.3383
31983W        W47877   2.277  13.283  12.014 -0.2913 -0.1524 -0.1470
31984W        W47878   6.940   8.092  13.777  0.0821 -0.3244 -0.0789
31985W        W47879  16.706   0.577   0.978 -0.1734 -0.0234 -0.1462
31986W        W47880   3.864  15.153  11.097 -0.1407 -0.1044 -0.0554
31987W        W47881  18.658   0.226   5.824 -0.0853  0.2171 -0.0443
31988W        W47882   8.738  16.825   2.160  0.1000 -0.0479  0.0925
31989W        W47883  17.312  11.787  11.934  0.1043  0.0151 -0.2140
31990W        W47884   7.218  14.222  10.957 -0.3018 -0.2233 -0.0879
31991W        W47885   3.714   5.720   0.382  0.2740 -0.0232  0.2346
31992W        W47886  18.810  18.370  10.368 -0.0115  0.0350 -0.0455
31993W        W47887  11.504   9.486   2.821 -0.0353 -0.0830  0.2090
31994W        W47888   2.240  17.820   9.836  0.0232  0.0229  0.3829
31995W        W47889  12.688   8.796   0.791  0.1193 -0.1536  0.0571
31996W        W47890  10.670   9.240   2.412 -0.1045 -0.3862  0.1377
31997W        W47891   5.854   2.859  14.189  0.4364  0.0397  0.2993
31998W        W47892  12.907   1.108  11.703  0.2167 -0.2690 -0.0566
31999W        W47893   8.246  12.281  11.326  0.0251  0.3529  0.1465
32000W        W47894  17.845  16.099  12.149 -0.0021 -0.1629  0.1656
32001W        W47895   4.346  13.094  11.753  0.1900 -0.0521 -0.0444
32002W        W47896   6.058   2.626  15.129 -0.2729  0.0032  0.3003
32003W        W47897  11.407   6.852   3.664 -0.0184 -0.3440  0.0567
32004W        W47898  10.192  16.203   0.015 -0.1896 -0.0223  0.2360
32005W        W47899   0.702   2.139   1.632  0.0789 -0.0436  0.0911
32006W        W47900  11.014   5.740   2.375  0.3685  0.0879  0.1885
32007W        W47901   1.982   5.968   1.852 -0.2181  0.2290 -0.1119
32008W        W47902   4.265  16.060  11.492  0.1436  0.1941  0.2924
32009W        W47903   1.441   7.679   4.198  0.0897 -0.0705  0.0977
32010W        W47904   7.604   1.480  14.834 -0.0723  0.0125 -0.0107
32011W        W47905  12.374   2.907   1.616 -0.5184 -0.0516  0.2799
32012W        W47906   9.347  15.677   4.463 -0.0012 -0.0299 -0.1198
32013W        W47907   4.036   6.281  14.047  0.2981 -0.3435 -0.0908
32014W        W47908   1.053   0.558  13.959  0.2285  0.4785 -0.0308
32015W        W47909  10.109   0.506   1.508 -0.2858 -0.1298  0.0170
32016W        W47910   0.753  18.196   9.777 -0.4447  0.1608 -0.0467
32017W        W47911  13.269  18.610  14.061  0.0267  0.2605  0.1516
32018W        W47912   0.821   4.348  14.934 -0.1088 -0.0541  0.1018
32019W        W47913  18.776   4.593  14.948 -0.0016 -0.0309  0.1622
32020W        W47914   6.848   0.090  11.430  0.3339  0.1198  0.1602
32021W        W47915   4.408  11.102  10.561  0.1664 -0.1546 -0.4693
32022W        W47916   3.918  11.032  14.451  0.1288  0.1397  0.0189
32023W        W47917  13.558  13.575   1.618  0.1149 -0.0958 -0.1182
32024W        W47918   6.173   8.991   0.944  0.0676  0.1828  0.0162
32025W        W47919  10.828  15.638  10.722  0.1494 -0.2344  0.0027
32026W        W47920   1.973   2.511  10.174  0.3306 -0.2109  0.1374
32027W        W47921  15.678  13.180  13.516  0.1371  0.0308 -0.0379
32028W        W47922  18.810   6.051   4.252  0.0783  0.4290 -0.3954
32029W        W47923   9.637  12.264  13.170 -0.2034  0.0560 -0.1727
32030W        W47924   1.603  14.144   5.406  0.4019  0.0794 -0.0676
32031W        W47925  15.617   1.638  11.635 -0.1258  0.1695  0.0554
32032W        W47926  13.364  12.163  11.148 -0.0611  0.2018 -0.0842
32033W        W47927  18.216  18.477   1.422  0.1210 -0.2978 -0.0373
32034W        W47928   0.319   5.558  10.544  0.1174 -0.1722  0.1695
32035W        W47929   3.336  17.370   4.306 -0.1727 -0.0169  0.1017
32036W        W47930  14.105   0.727  12.459  0.0533 -0.1261 -0.0329
32037W        W47931   2.303  14.843   4.530 -0.1286  0.1671  0.2309
32038W        W47932  14.614   9.509   3.247 -0.3232 -0.0646  0.0903
32039W        W47933  12.484   3.937   2.439  0.3467 -0.2605  0.4705
32040W        W47934   2.449  13.300  14.165 -0.2602  0.0634  0.1400
32041W        W47935   1.433  15.085   1.652  0.2459 -0.0897  0.1487
32042W        W47936   5.251   6.627   1.750  0.0116  0.0883  0.3083
32043W        W47937  18.683   6.805   1.689 -0.2652  0.0464  0.2991
32044W        W47938  13.553   1.319  15.266 -0.0454 -0.1156  0.1615
32045W        W47939   2.123   8.282  11.533 -0.3001  0.0867 -0.1205
32046W        W47940  18.413   3.300   0.626 -0.2109 -0.2134  0.0569
32047W        W47941  18.583   8.773   9.552  0.3096 -0.2296 -0.2043
32048W        W47942  14.676  15.980   0.689  0.0143  0.0968 -0.1105
32049W        W47943   4.635   9.725   5.352  0.0832 -0.1838  0.1757
32050W        W47944  12.844   6.182   1.155 -0.0437 -0.3049  0.0733
32051W        W47945   3.572  11.693  15.178  0.0171  0.0133  0.1802
32052W        W47946  17.985   6.704   0.425 -0.1108  0.0784  0.1588
32053W        W47947  14.883   6.069   3.523 -0.3264 -0.3268 -0.0883
32054W        W47948   6.692  10.568   3.958  0.0725 -0.0106 -0.3967
32055W        W47949  18.294  12.256   0.146 -0.0686  0.2117  0.3512
32056W        W47950   0.634   0.064   1.128  0.1732 -0.3303 -0.0699
32057W        W47951  13.116   8.108  13.232 -0.1257 -0.0979 -0.0157
32058W        W47952   3.275   6.420  14.195 -0.1364 -0.1524  0.1017
32059W        W47953  18.390   6.648   3.023 -0.0360 -0.3502  0.2782
32060W        W47954   1.560   9.982  11.588 -0.0743  0.1196  0.0850
32061W        W47955   0.454  11.774   2.353 -0.0557 -0.0794 -0.0430
32062W        W47956   8.985  18.396  11.331  0.0772 -0.2819 -0.1577
32063W        W47957   0.633  16.851   5.391  0.1199 -0.3588 -0.1208
32064W        W47958   4.803   2.983   4.341 -0.0042 -0.1091  0.0791
32065W        W47959  12.530   3.375   5.097 -0.0354 -0.0461 -0.0071
32066W        W47960   7.863  17.989   1.081  0.0314  0.1710  0.0508
32067W        W47961  11.337   3.577  13.654 -0.2755  0.2928  0.1959
32068W        W47962   8.019  10.421  12.209 -0.0426  0.0328  0.1380
32069W        W47963  15.644   7.045   3.520 -0.2360  0.1257  0.1563
32070W        W47964  15.710   8.819  14.217  0.1035 -0.1597 -0.4342
32071W        W47965   8.353  13.240  13.613  0.0706 -0.2763  0.2031
32072W        W47966   0.475  14.237   4.026 -0.0733  0.0777 -0.1558
32073W        W47967  11.952  10.647   2.277 -0.4941  0.0836 -0.1773
32074W        W47968  10.843   8.708   0.829 -0.0607  0.0022  0.1690
32075W        W47969  18.303   3.759  10.596  0.2472  0.0664 -0.1104
32076W        W47970   5.674  16.362   1.720 -0.4019  0.1101 -0.1872
32077W        W47971  15.464  14.656  11.678 -0.1455 -0.1161 -0.1494
32078W        W47972   8.033   6.007   2.594 -0.2615  0.1656 -0.0316
32079W        W47973   7.145   0.265  12.798 -0.0150  0.1408  0.0349
32080W        W47974  11.117   8.801  12.415  0.0252 -0.0945 -0.2041
32081W        W47975  16.689  17.906   5.540  0.1039 -0.2256  0.3006
32082W        W47976   6.949  12.896   1.169  0.3668  0.4088  0.1890
32083W        W47977   5.873   0.955  12.048  0.3283 -0.2435  0.3272
32084W        W47978   1.555  15.581  13.902  0.0983 -0.2519 -0.1631
32085W        W47979   7.019  11.844   5.585 -0.0517 -0.0541  0.1569
32086W        W47980   6.988   6.226  13.360  0.0067 -0.1706 -0.1849
32087W        W47981   0.452  16.549  11.605 -0.1907  0.0278  0.1651
32088W        W47982  10.720   9.107  12.298 -0.1671  0.2528 -0.1611
32089W        W47983  11.304   1.352   0.691 -0.0032  0.0012  0.1187
32090W        W47984  12.677  14.424   5.195 -0.1635  0.1551  0.1242
32091W        W47985   3.568  18.084   2.365  0.1707  0.1886  0.3134
32092W        W47986   4.259   5.956   2.092 -0.2991  0.0177  0.0704
32093W        W47987   3.762   0.100  12.466 -0.0603  0.0448 -0.0961
32094W        W47988  17.083  12.287   9.943 -0.1617 -0.2229  0.1790
32095W        W47989   7.284   2.888  14.697  0.1678 -0.0283  0.1451
32096W        W47990   1.261   1.205  13.092  0.0687  0.1713 -0.0818
32097W        W47991  17.810  18.046  12.547 -0.3045 -0.1983  0.0364
32098W        W47992  14.268   1.337   4.782 -0.1246  0.0726  0.0794
32099W        W47993  18.827  13.407   2.743  0.0283  0.0771  0.1043
32100W        W47994   4.781  18.068   3.796 -0.0029  0.1792 -0.2200
32101W        W47995   4.924   4.327   0.882 -0.0075 -0.3105  0.2919
32102W        W47996  13.402  15.330  13.265  0.0181 -0.3503 -0.0233
32103W        W47997  18.188   6.999   2.519  0.1993 -0.6117  0.2267
32104W        W47998  11.918   0.688   3.917  0.0887  0.0946  0.0874
32105W        W47999  12.512   9.465  11.533  0.1936  0.1051  0.3751
32106W        W48000  16.368   6.079  10.772  0.0199  0.3059  0.0638
32107W        W48001  10.456   4.846   4.341 -0.0091 -0.0868  0.0718
32108W        W48002  14.338   6.841   4.275 -0.3443  0.0923  0.3337
32109W        W48003  10.023   8.527  10.886  0.1302  0.4753  0.0890
32110W        W48004  14.700  18.821  10.442  0.1920  0.2054  0.0822
32111W        W48005  13.139   2.794   4.577  0.1563 -0.1464 -0.2342
32112W        W48006   0.699  13.293   2.128  0.1308  0.3517 -0.0686
32113W        W48007   7.076   8.654  15.361 -0.4073 -0.0814  0.0131
32114W        W48008  18.332  12.104   2.687  0.1653  0.2084  0.1772
32115W        W48009  18.446   5.366   1.004  0.1960 -0.0640  0.0123
32116W        W48010  18.786  15.424  14.677  0.2528 -0.2633 -0.1548
32117W        W48011   0.588   9.713  14.325 -0.0417 -0.0397 -0.2444
32118W        W48012  18.360  16.181  11.546 -0.0271 -0.0379 -0.0945
32119W        W48013   6.792   1.518   1.292 -0.6735 -0.4330  0.2639
32120W        W48014  14.931  17.533   4.127  0.2077  0.1348 -0.2863
32121W        W48015   8.015  16.922   9.711 -0.0696 -0.4231  0.0239
32122W        W48016  11.099   3.789   0.481  0.1278  0.0618  0.0411
32123W        W48017  17.647  17.926   2.649  0.2380  0.0169 -0.3129
32124W        W48018   3.086  15.766  10.741  0.1452  0.1280  0.0618
32125W        W48019  10.496  16.943   4.217 -0.0989  0.3508  0.0316
32126W        W48020   3.344   7.553  13.889  0.0381 -0.1518  0.2174
32127W        W48021  11.067   2.244  11.479 -0.0816  0.0147  0.2224
32128W        W48022  18.858   9.791   4.310 -0.0355  0.0489 -0.0980
32129W        W48023  17.576   5.210   4.685  0.0160  0.1408 -0.1171
32130W        W48024   7.215  16.163  11.843 -0.0242 -0.1669 -0.0787
32131W        W48025  15.556   6.647  12.381  0.3956 -0.0768  0.2307
32132W        W48026  13.825   2.223   2.681 -0.0013 -0.0175  0.2087
32133W        W48027  10.495  16.678   2.187 -0.1895 -0.1559 -0.1151
32134W        W48028   5.229   5.328   3.332  0.0281  0.1963 -0.0405
32135W        W48029  11.338   5.515  10.995 -0.5665  0.0503  0.0715
32136W        W48030   3.748   7.926  12.017 -0.1236 -0.0570  0.2886
32137W        W48031  18.535   8.942   4.310 -0.3382  0.2528 -0.0296
32138W        W48032   4.533  10.203   1.649  0.1913  0.2119 -0.2365
32139W        W48033  14.096  18.154  14.217 -0.0347  0.0042 -0.0473
32140W        W48034   7.603   6.908   4.814 -0.1521  0.3921  0.1743
32141W        W48035  10.069   7.925   3.967 -0.0924 -0.2214  0.0234
32142W        W48036   2.935   2.431   2.259  0.1749  0.2640 -0.0065
32143W        W48037  17.787   4.249   2.766 -0.3365 -0.1161 -0.1011
32144W        W48038   0.855   8.750   4.269  0.1499  0.0650 -0.0616
32145W        W48039  13.258  11.991   3.616 -0.1845  0.1408  0.0812
32146W        W48040   4.453  13.447  13.446  0.0725 -0.0463  0.0832
32147W        W48041   7.703   0.952   1.255 -0.1041 -0.0493  0.3024
32148W        W48042  10.504   7.332  13.745  0.2084 -0.2149  0.2076
32149W        W48043  18.277   3.659  11.831  0.2950 -0.1876 -0.1452
32150W        W48044   4.360   9.589   3.839 -0.0461  0.1059 -0.3361
32151W        W48045   2.043  18.808   0.645 -0.1320 -0.2158  0.3726
32152W        W48046  15.014   2.385  15.380  0.0359  0.3648  0.0108
32153W        W48047   6.435   2.760  10.814  0.3812  0.2168  0.0131
32154W        W48048  18.506   2.250  12.739  0.2398  0.2061  0.0847
32155W        W48049  17.115  16.518   3.749 -0.0064 -0.0511 -0.1274
32156W        W48050   8.393   2.412   5.079  0.0093  0.2309  0.3291
32157W        W48051   5.334   6.559   4.330  0.0697 -0.0373 -0.1884
32158W        W48052  16.512   7.391  14.007 -0.1229  0.0740  0.1183
32159W        W48053   4.725   3.532  13.178  0.2192 -0.0621 -0.0047
32160W        W48054  11.644  18.718  13.006 -0.0241 -0.2987  0.1527
32161W        W48055   1.768  18.660   1.693  0.1412  0.1075  0.1150
32162W        W48056   1.011  10.633   4.672  0.2391  0.0682  0.4453
32163W        W48057   2.659   1.189   0.296 -0.0117  0.3983 -0.0145
32164W        W48058  10.417   2.347  12.313 -0.0256 -0.1061 -0.0334
32165W        W48059  13.210   4.386   2.656  0.1971  0.0648 -0.1080
32166W        W48060   0.237   4.287  10.635 -0.0999 -0.0231  0.1356
32167W        W48061   1.205  18.609  12.430 -0.1507 -0.1260 -0.0840
32168W        W48062   2.921   0.767  15.025  0.1205 -0.0057 -0.3143
32169W        W48063  13.243  10.462   1.951  0.1153  0.4930  0.1748
32170W        W48064   5.957  14.456   0.951  0.2700  0.1072  0.2084
32171W        W48065   3.782  14.461  15.267 -0.2578 -0.1527 -0.1544
32172W        W48066  12.438   1.233  13.814  0.0294  0.0062 -0.2700
32173W        W48067  15.945  11.107   3.754  0.1666  0.1168  0.0505
32174W        W48068   2.546  12.647   3.077  0.0925  0.0044 -0.0527
32175W        W48069   8.059   3.946  11.616 -0.2853 -0.1991 -0.1809
32176W        W48070   8.200   6.493   2.755  0.4429 -0.0719 -0.0614
32177W        W48071  12.693   4.915  11.575 -0.2336  0.1940  0.1957
32178W        W48072  15.573  14.233  14.478  0.3256  0.0961  0.0806
32179W        W48073   8.754  17.466  12.091 -0.0719  0.1379  0.2735
32180W        W48074  13.046  18.102  14.021 -0.1603  0.0976  0.0730
32181W        W48075   5.926  13.604  12.871 -0.3365  0.0508 -0.1450
32182W        W48076  16.138  12.032  13.839 -0.2427 -0.2858  0.1127
32183W        W48077  17.510   0.743  11.534 -0.2456 -0.1206 -0.0404
32184W        W48078   4.575  12.560  10.645  0.3811 -0.2766 -0.0128
32185W        W48079   6.736  16.197  11.552  0.2089  0.3245 -0.0293
32186W        W48080   7.108  18.813  13.360 -0.1584  0.2084 -0.0875
32187W        W48081   8.027   5.778  10.974 -0.1518  0.0115 -0.2674
32188W        W48082  17.388  11.034   2.258 -0.1539 -0.5578 -0.0238
32189W        W48083  16.371  16.692  11.916  0.2188  0.2370 -0.1222
32190W        W48084   8.641   5.319  12.591 -0.1432 -0.0505  0.1831
32191W        W48085   3.831   2.062  12.200  0.0514  0.0630 -0.2305
32192W        W48086   6.291  16.752   3.221  0.1935 -0.1023 -0.0838
32193W        W48087  15.107   6.403   4.921  0.3090 -0.1269 -0.1520
32194W        W48088  14.669   9.592   0.318  0.1900  0.3224  0.3032
32195W        W48089   8.611   6.134   1.424 -0.2301 -0.0338  0.1059
32196W        W48090  15.360   9.096   4.933  0.2014  0.0060  0.1287
32197W        W48091   5.599   4.939   3.115  0.3129 -0.1574 -0.2290
32198W        W48092   2.755  15.498  15.091 -0.0707  0.2614 -0.2386
32199W        W48093  14.454   7.364  10.586 -0.1424  0.0900  0.1686
32200W        W48094   5.994  12.647   1.046  0.2395 -0.0848 -0.0018
32201W        W48095   2.098   4.256   0.653  0.0495  0.2462  0.1486
32202W        W48096   4.028   5.727  11.755 -0.0753  0.1181  0.1665
32203W        W48097   3.457   6.201  11.267  0.0037 -0.1682 -0.1976
32204W        W48098  16.656  15.068  12.411 -0.2641  0.1385  0.1577
32205W        W48099   8.809  10.665   1.632  0.2348 -0.2151 -0.1257
32206W        W48100   2.460   6.986   1.313  0.0362 -0.2230 -0.1032
32207W        W48101  16.776  12.508   3.618 -0.1035  0.0209  0.1944
32208W        W48102  16.613  17.171  11.562 -0.1012 -0.1181 -0.1047
32209W        W48103   2.324  17.215  15.043 -0.1214 -0.1329  0.2244
32210W        W48104   4.244  14.181   3.927 -0.1468  0.3243  0.1317
32211W        W48105   6.443   7.958  15.335  0.1295  0.1362 -0.0427
32212W        W48106   6.314   8.239   3.139 -0.0740  0.2521 -0.3140
32213W        W48107   1.775   0.829   2.708  0.1005 -0.1117 -0.1179
32214W        W48108   2.792   7.582   0.044  0.1017 -0.2347 -0.2138
32215W        W48109  14.224  13.289  12.282  0.0281 -0.0672  0.3194
32216W        W48110   6.968  16.785   2.870  0.0985  0.0096  0.1412
32217W        W48111  16.907  12.324  15.426  0.0444 -0.0498 -0.0750
32218W        W48112   4.395   3.171  13.624  0.0254 -0.1354 -0.1404
32219W        W48113  12.938  18.811   3.191 -0.0022  0.3028 -0.2603
32220W        W48114   2.876  16.403  12.262 -0.1953  0.1916  0.0557
32221W        W48115  15.275   7.277   3.206 -0.2433 -0.0482  0.0369
32222W        W48116  14.115   0.524  13.851  0.1167  0.0259  0.1333
32223W        W48117   7.187   1.126   5.519 -0.1760 -0.6292  0.2694
32224W        W48118  12.949  15.347  14.547  0.0753 -0.2431 -0.4549
32225W        W48119   9.136  14.128  14.157  0.0174  0.2640  0.1124
32226W        W48120  16.894   9.778   3.265 -0.5396  0.0161  0.0957
32227W        W48121   6.700  11.341  10.322  0.3864 -0.0462  0.0351
32228W        W48122   8.402   1.963   4.727  0.0836  0.0914 -0.2824
32229W        W48123   6.914  13.271  14.683 -0.1280  0.0775 -0.1223
32230W        W48124   1.516   7.678   4.717 -0.0562  0.2412 -0.0577
32231W        W48125   1.983  13.811  10.611 -0.0278  0.1099  0.0763
32232W        W48126  14.749   1.615  11.121 -0.0345  0.1682 -0.4220
32233W        W48127   5.274  14.353   0.859  0.0142  0.0782 -0.1215
32234W        W48128   3.141   8.964   1.610 -0.2547 -0.1904  0.2263
32235W        W48129  10.756   0.297   1.571  0.1480 -0.0046  0.0808
32236W        W48130   3.964   0.022   0.905 -0.0951 -0.0200 -0.0963
32237W        W48131  10.537   3.393  11.570  0.0043 -0.1146  0.2710
32238W        W48132   8.384  10.304  11.808  0.0004  0.3366  0.1747
32239W        W48133   9.866  13.603  11.996  0.3350  0.1357 -0.0319
32240W        W48134   8.883   6.470   5.236 -0.1549  0.1459 -0.4014
32241W        W48135  15.996   4.464   1.653 -0.0979 -0.3081 -0.2211
32242W        W48136   9.234  16.866   3.827  0.3922  0.0864 -0.2416
32243W        W48137   9.237   1.547  12.118 -0.2886 -0.1602  0.0062
32244W        W48138   5.590   6.606   0.813 -0.1097  0.1809 -0.1568
32245W        W48139  16.598  11.520  14.853  0.2339  0.0091  0.0689
32246W        W48140  13.386  10.135  13.881  0.2724 -0.2387  0.0178
32247W        W48141   2.285   1.899   3.893 -0.1528  0.1748 -0.0826
32248W        W48142   4.834   1.538  11.391 -0.0761  0.1011 -0.0552
32249W        W48143  11.377   8.349   5.003  0.1910 -0.0084 -0.1825
32250W        W48144  14.800  13.076  12.929  0.3042  0.1541  0.3290
32251W        W48145   6.516  12.375   4.825  0.1000 -0.1877  0.1359
32252W        W48146  15.600   9.339   5.381  0.3886  0.0083  0.1447
32253W        W48147   7.433  17.274   1.337 -0.1362  0.0878 -0.0671
32254W        W48148   4.291  16.047  14.154 -0.1029  0.0820  0.1197
32255W        W48149  16.034   2.451   5.120  0.2437  0.1061 -0.1428
32256W        W48150  11.777   8.595  14.803 -0.3026  0.2652 -0.0438
32257W        W48151   2.876   5.091  11.009 -0.1718 -0.0179 -0.0240
32258W        W48152   5.628   2.497  11.233  0.1429 -0.0240  0.1357
32259W        W48153  11.846   1.287  14.018  0.1598  0.1207 -0.0035
32260W        W48154  12.120   5.589   5.162 -0.0785 -0.1070  0.1008
32261W        W48155   8.274   8.798  13.412  0.0335 -0.0297  0.1015
32262W        W48156   3.099   7.286   0.261  0.3184  0.2475  0.0693
32263W        W48157  11.612  12.871  12.079 -0.1704  0.0285 -0.0674
32264W        W48158   8.238   5.772  10.495 -0.1831  0.1942 -0.1262
32265W        W48159  17.539   3.300  10.570  0.4389 -0.0084  0.0171
32266W        W48160   8.908   4.416   1.772  0.1348 -0.1409  0.1374
32267W        W48161   9.209   7.639   5.381 -0.0713  0.3096  0.2957
32268W        W48162   7.778  13.537  10.739  0.2301  0.1919 -0.0597
32269W        W48163  16.595  16.040   2.945 -0.0876 -0.2293  0.0821
32270W        W48164  15.221   1.694  14.621  0.3381 -0.1217 -0.1856
32271W        W48165   5.098   8.988  11.244 -0.0144 -0.3034  0.0101
32272W        W48166  16.692  18.321  10.572  0.1807  0.0144  0.1819
32273W        W48167   9.571   2.168  12.986  0.3798 -0.0115  0.0646
32274W        W48168  14.307   5.326   1.632  0.3299  0.0043  0.6802
32275W        W48169   4.970   2.050  12.431  0.3044 -0.0767  0.2310
32276W        W48170   2.557   6.251   1.327 -0.0124  0.2135  0.1393
32277W        W48171  10.705   7.123   2.873  0.0227 -0.3013  0.0953
32278W        W48172   2.877   6.762   9.446  0.2248 -0.2687 -0.2724
32279W        W48173  16.294  11.201   3.344 -0.0688 -0.0420 -0.0228
32280W        W48174   4.127  18.256   1.002  0.0540  0.1347 -0.0683
32281W        W48175  14.121  15.016  13.896 -0.1723  0.1206  0.0635
32282W        W48176  17.590  16.327   2.866  0.0161 -0.1196 -0.0124
32283W        W48177  10.781   6.328  13.093  0.5763  0.2130  0.1495
32284W        W48178   5.481  10.453  11.585  0.1617 -0.2612  0.3317
32285W        W48179   2.506   5.638  13.990 -0.0979  0.0691 -0.2110
32286W        W48180   3.430   2.724   4.158  0.3332 -0.2106  0.2591
32287W        W48181   8.778   9.657  12.916 -0.3943  0.2282 -0.1125
32288W        W48182   2.598  15.115  11.612 -0.0883 -0.2645  0.2335
32289W        W48183  18.454  16.710  14.628  0.0086  0.0054 -0.0428
32290W        W48184  13.490  13.567  12.620 -0.2460 -0.2664  0.0947
32291W        W48185  10.002   2.183   4.824 -0.1490 -0.1779  0.3602
32292W        W48186   3.044  14.584   1.563 -0.0387 -0.0369 -0.0629
32293W        W48187   1.419  13.503   1.080  0.1464 -0.0104 -0.0085
32294W        W48188  14.462   2.426  11.262 -0.0280 -0.1386 -0.0224
32295W        W48189   0.687  10.172   1.299  0.2638  0.0226 -0.1718
32296W        W48190   1.309  10.420   4.344  0.1124 -0.3753  0.1536
32297W        W48191   5.248  15.410   1.722  0.0293  0.4028  0.0822
32298W        W48192  12.166   6.311   3.059 -0.4556  0.0459 -0.0959
32299W        W48193   2.516   5.092   0.637 -0.0968 -0.0555 -0.0361
32300W        W48194  18.855  15.516   4.418  0.4277 -0.1707 -0.2622
32301W        W48195  11.452   9.921   3.032  0.2259 -0.1273  0.1075
32302W        W48196  16.136   4.111   2.094  0.2383 -0.3119  0.2204
32303W        W48197   3.092  14.382  11.225 -0.1298 -0.1900  0.2653
32304W        W48198   3.446   0.189   2.273  0.3382  0.0314  0.1814
32305W        W48199   3.764  11.387   3.312  0.2736  0.0993 -0.4915
32306W        W48200  17.461  13.945  11.121 -0.3402 -0.0676  0.1363
32307W        W48201   1.844   1.188  15.332 -0.0773 -0.0000 -0.0304
32308W        W48202  17.702   8.505  14.100  0.2845 -0.0135  0.3582
32309W        W48203  12.421   3.164   5.573  0.0890 -0.1155 -0.0114
32310W        W48204   2.787   2.789  13.285 -0.0692  0.2088  0.2260
32311W        W48205  18.149  10.036  10.515  0.0581  0.2292 -0.1542
32312W        W48206  17.650  16.095  15.200 -0.0448 -0.3742  0.0977
32313W        W48207   1.153   2.253   1.137 -0.0772 -0.0687 -0.0527
32314W        W48208  15.353  12.649  11.570 -0.1106  0.0638 -0.0195
32315W        W48209  12.031   2.029   3.342  0.2028 -0.1904 -0.0447
32316W        W48210   8.832   0.235  12.923 -0.0787 -0.4646 -0.0143
32317W        W48211   8.699   2.174   1.714  0.0843  0.0448 -0.0129
32318W        W48212  10.782  15.212  12.748 -0.1120  0.4969  0.1385
32319W        W48213   0.787  15.477   0.258  0.0372 -0.3756  0.3051
32320W        W48214  14.950  17.776  11.248  0.0891  0.1325 -0.0095
32321W        W48215  16.497   0.809  13.691  0.1822 -0.1535  0.0826
32322W        W48216  12.476   5.011  14.050  0.0921  0.4069 -0.0032
32323W        W48217   4.508  12.454  12.533 -0.1344  0.4617  0.1481
32324W        W48218   7.472   1.426   0.301 -0.2332  0.2521  0.1808
32325W        W48219   8.847   6.182  11.244  0.1787 -0.2691 -0.0877
32326W        W48220   2.635  11.988   5.027 -0.0372 -0.2843  0.1379
32327W        W48221  16.504   1.957   3.249  0.1414 -0.0833  0.2310
32328W        W48222  10.833   9.252   3.281  0.1174 -0.2493 -0.5683
32329W        W48223   4.275  17.269   3.302  0.1543  0.2684  0.0738
32330W        W48224  11.619  12.643   1.601 -0.1641  0.0723 -0.0081
32331W        W48225  13.816   2.345   5.974  0.0721 -0.0476 -0.0795
32332W        W48226   7.267  18.808   0.050  0.0237  0.0535 -0.1922
32333W        W48227  11.405   3.108   9.598 -0.1356 -0.4041  0.0439
32334W        W48228  11.078  15.571   0.579 -0.1674 -0.0948  0.0819
32335W        W48229   0.053   4.134   3.022  0.0693  0.1900 -0.0780
32336W        W48230  16.751  14.710   3.429  0.0093 -0.2704 -0.0015
32337W        W48231   3.707   0.664  11.822 -0.0324 -0.0286  0.0572
32338W        W48232  12.095  13.384   2.179 -0.1460  0.0501 -0.3603
32339W        W48233   7.380  10.958   1.347  0.1419  0.0578 -0.2223
32340W        W48234   4.325   0.858   1.208 -0.0197  0.4219  0.2454
32341W        W48235   6.084   3.191   2.897  0.2328  0.0665 -0.3896
32342W        W48236  10.438  13.237   3.861 -0.0498 -0.1984  0.1939
32343W        W48237   7.137   4.916  11.690 -0.1533  0.1131 -0.3167
32344W        W48238   0.544  18.487  11.660  0.4144 -0.0193 -0.0970
32345W        W48239  16.744  12.090   4.172 -0.0146 -0.0271 -0.3990
32346W        W48240  11.537   0.135  14.634 -0.3404  0.3608  0.2926
32347W        W48241   1.607   4.794   3.460  0.0628 -0.2395  0.1913
32348W        W48242  15.643   8.380  10.663  0.2474  0.1711 -0.1178
32349W        W48243   8.248  14.136   4.042  0.1668  0.0399 -0.0963
32350W        W48244   8.372  11.078   1.722 -0.0275 -0.2633 -0.3394
32351W        W48245   2.051  13.641  11.693 -0.1168  0.2904 -0.0463
32352W        W48246   3.359  10.286   3.524  0.0320 -0.1543 -0.0593
32353W        W48247  13.848  15.505   0.408  0.0999  0.3700  0.1047
32354W        W48248  17.283  14.442  15.451  0.0732  0.0615 -0.2371
32355W        W48249   4.539   9.831  14.061  0.1309 -0.2473  0.1079
32356W        W48250   6.919   8.398  14.256 -0.2797 -0.2124 -0.4015
32357W        W48251   9.315  15.531  12.141  0.0452 -0.0119 -0.0857
32358W        W48252  17.001  15.453   5.296  0.0077  0.3701 -0.2671
32359W        W48253  14.424   3.113  12.893 -0.3460  0.2038 -0.2095
32360W        W48254  12.618  13.645   0.589  0.0479 -0.1275 -0.0978
32361W        W48255   0.830  11.862  11.071  0.0827 -0.2098 -0.0103
32362W        W48256   7.500  13.041  14.698  0.5470  0.0903 -0.0487
32363W        W48257   1.021  10.689   0.575  0.1171  0.1369 -0.1232
32364W        W48258   6.150  12.373  12.724 -0.2170  0.0782  0.0051
32365W        W48259   3.969  12.417   3.404 -0.4183 -0.0506  0.1332
32366W        W48260   3.036   6.339  14.661 -0.3330  0.0791 -0.1165
32367W        W48261  17.866  14.748   0.048 -0.0189 -0.0805 -0.1224
32368W        W48262   0.145  17.778   3.581  0.0042 -0.1705 -0.1507
32369W        W48263  13.359  13.698   3.544 -0.3348 -0.0373 -0.0371
32370W        W48264   9.337   4.995   0.395  0.1490  0.0771 -0.3630
32371W        W48265   7.402  13.958  11.397  0.1661  0.1580 -0.1016
32372W        W48266   2.978   8.997  11.295  0.0659 -0.1171 -0.1201
32373W        W48267   4.839  13.656   4.064 -0.2122 -0.0842 -0.0279
32374W        W48268   5.423   0.997   3.777 -0.0033  0.1577  0.2026
32375W        W48269  12.506  17.856   1.616 -0.0420 -0.2634  0.0307
32376W        W48270   2.579   4.570  14.937 -0.0750 -0.3296 -0.0478
32377W        W48271   1.151  14.999   4.254 -0.2415  0.0835  0.3098
32378W        W48272   3.374   5.491  14.122 -0.0741 -0.1971 -0.2087
32379W        W48273   6.801  14.143  14.317 -0.0507  0.0576 -0.0156
32380W        W48274   3.398   8.585   2.661  0.2602 -0.1820  0.0243
32381W        W48275  15.272  16.043   2.785  0.1445  0.1511  0.0298
32382W        W48276   7.728  14.978   4.150  0.0023  0.0597 -0.1427
32383W        W48277  12.934  15.525  10.483  0.1400  0.4194  0.0935
32384W        W48278   2.292   8.688   4.172 -0.2679  0.0866 -0.1157
32385W        W48279  14.805   3.194   4.317  0.0819 -0.0342 -0.0587
32386W        W48280  12.958  11.147   1.498  0.1138  0.1889 -0.2445
32387W        W48281   1.014  15.599  14.929 -0.0994 -0.2038 -0.1794
32388W        W48282  15.268  18.320  13.829  0.3489  0.0053  0.1263
32389W        W48283  16.033  13.253   3.762  0.1523 -0.1385  0.1825
32390W        W48284  18.852   1.845   2.420 -0.2793  0.1109  0.2336
32391W        W48285   2.980   7.554  10.704  0.1070  0.1878 -0.1069
32392W        W48286   2.156  17.569   1.805 -0.0017  0.1391 -0.2005
32393W        W48287   2.767  10.598   0.507 -0.1847 -0.0682 -0.1144
32394W        W48288   5.567  16.577   5.336  0.0604  0.0952 -0.1016
32395W        W48289   5.762   8.595  13.591  0.0622 -0.0282 -0.1671
32396W        W48290   2.609  12.867   5.417 -0.0808 -0.0801 -0.1484
32397W        W48291  14.596  15.626   4.408 -0.0318 -0.2441 -0.2654
32398W        W48292   1.012   8.638  10.238  0.0193 -0.0885 -0.2276
32399W        W48293  10.804   2.028   3.147 -0.2603 -0.0501  0.0790
32400W        W48294  18.614   9.993  12.042 -0.0845 -0.0492  0.0968
32401W        W48295   0.295  18.829  13.943  0.0441  0.1127  0.1116
32402W        W48296   1.728  17.073   2.979 -0.0326 -0.2837  0.0035
32403W        W48297  16.530   4.193   0.411  0.1454 -0.2327  0.1205
32404W        W48298  13.028   5.513   2.856 -0.0272  0.1493  0.0461
32405W        W48299   3.430   8.041   1.301 -0.0844  0.0221  0.0492
32406W        W48300  11.050   1.632  13.845  0.0063  0.0923  0.0160
32407ION     NA48301   6.229  13.695   9.683  0.2829  0.0691  0.0277
32408ION     NA48302  14.537   4.898   9.836  0.2417  0.0335 -0.3484
32409ION     NA48303  13.266  16.900  10.349 -0.1803 -0.0902 -0.3381
32410ION     NA48304  13.534  10.670   9.751  0.3374 -0.0612 -0.0192
32411ION     NA48305  11.219   7.569  10.325  0.1533 -0.0009 -0.0595
32412ION     NA48306  10.339   9.619  10.207  0.3840 -0.0550  0.2457
32413ION     NA48307  13.843  14.294   5.770  0.2585  0.0308  0.2418
32414ION     NA48308   6.796  10.056   9.780  0.3269  0.1946 -0.2848
32415ION     NA48309   9.519   3.858   9.733  0.0765  0.5136 -0.1141
32416ION     NA48310  13.471   0.518  10.362  0.0883  0.0284  0.0664
32417ION     NA48311   2.242  11.247   5.539  0.1072 -0.2278 -0.3227
32418ION     NA48312   6.346  15.802  10.202  0.0192  0.3876 -0.2488
32419ION     NA48313   2.431   1.652  10.016 -0.0370 -0.1304 -0.0599
32420ION     NA48314   7.050  16.344   9.828 -0.0942  0.0379  0.0192
32421ION     NA48315  10.404  13.587  10.586  0.2496  0.0618  0.0682
32422ION     NA48316   5.626   5.316   5.503 -0.0415 -0.0385 -0.0237
32423ION     NA48317  17.300  16.094  13.064 -0.2665 -0.1553 -0.2077
32424ION     NA48318  18.159  16.990   3.051 -0.1883 -0.0821  0.0484
32425ION     NA48319  13.465  15.408  11.341 -0.1216 -0.4913 -0.0143
32426ION     NA48320  12.537   7.329   5.481 -0.0613  0.1166  0.0680
32427ION     NA48321   1.839  14.768   9.919 -0.0397  0.0034  0.0911
32428ION     NA48322  10.261   6.913  13.912  0.2355  0.2244 -0.1261
32429ION     NA48323  15.587  17.038  10.220 -0.1054  0.2205 -0.0835
32430ION     NA48324   9.839   9.200   5.638 -0.1760  0.3506  0.2620
32431ION     NA48325  12.525   4.281   5.712 -0.1618  0.0567 -0.1743
32432ION     NA48326   8.786   9.399   9.986 -0.1547 -0.0050  0.1301
32433ION     NA48327  17.769   0.269  10.345  0.0952 -0.0086 -0.1913
32434ION     NA48328  18.010   9.361  15.132 -0.1924  0.0712  0.0287
32435ION     NA48329  14.882  17.540  10.361  0.0992 -0.0571  0.2526
32436ION     NA48330   9.657  13.649   6.153  0.3535 -0.0565  0.0981
32437ION     NA48331  14.097  14.871  10.633 -0.0526  0.1417  0.2028
32438ION     NA48332   7.833   6.503  10.227  0.2162 -0.1362  0.2491
32439ION     NA48333   7.320   0.881  13.568  0.4618 -0.0875  0.2600
32440ION     NA48334   8.846   8.463  10.131  0.0892 -0.0918  0.3432
32441ION     NA48335  12.877  11.847   5.541 -0.0289 -0.1950 -0.0176
32442ION     NA48336  15.690   7.547   9.690 -0.0965  0.0296 -0.0587
32443ION     NA48337  18.277   2.085   9.910 -0.2899 -0.1118 -0.2474
32444ION     NA48338   1.950  11.371  13.223  0.1850  0.2052  0.0546
32445ION     NA48339  11.195   2.280  10.326 -0.0139  0.0885 -0.1817
32446ION     NA48340   7.384  11.513   9.949 -0.2633 -0.3654  0.3223
32447ION     NA48341  12.869   4.236   3.292  0.2881 -0.0100 -0.1874
32448ION     NA48342   4.623   5.091   5.379  0.4145  0.2532  0.1612
32449ION     NA48343   2.082  15.483  14.585 -0.3164  0.0672 -0.0860
32450ION     NA48344  16.933   1.689   4.052 -0.1200 -0.2385  0.3055
32451ION     NA48345  17.248  14.618   5.390 -0.2149  0.0511 -0.3223
32452ION     NA48346  15.910   0.666  10.089  0.0136 -0.2592  0.3542
32453ION     NA48347   2.074  15.900   9.547  0.1397 -0.2979  0.2864
32454ION     NA48348  18.825   6.535   9.641 -0.0133 -0.1955 -0.0219
32455ION     NA48349   9.166   7.291  13.017  0.1004  0.0739  0.2027
32456ION     NA48350   3.904   6.428   9.995 -0.2503 -0.1741  0.3259
32457ION     NA48351   8.490  10.227  10.074 -0.1211 -0.1631  0.2639
32458ION     NA48352  17.045  10.173  10.189  0.0731 -0.2318 -0.0936
32459ION     NA48353   3.920  10.247   5.627 -0.2885 -0.5063  0.0746
32460ION     NA48354   4.253   2.638  10.025 -0.3033 -0.1976 -0.0558
32461ION     NA48355   5.551   5.024   9.833  0.1739 -0.1287 -0.0498
32462ION     NA48356   0.294   7.226  10.068  0.0410 -0.0955 -0.0009
32463ION     NA48357   3.766  18.821   0.195  0.1567 -0.0211 -0.1013
32464ION     NA48358   1.132   2.547   5.487 -0.0217 -0.0898 -0.0410
32465ION     NA48359   0.104  12.030   9.794  0.0870 -0.0958  0.2041
32466ION     NA48360   4.632   1.825   2.560  0.0572 -0.3326  0.3050
32467ION     NA48361  11.638   9.660   5.482  0.0507  0.0913 -0.0590
32468ION     NA48362   2.899   5.281  12.363  0.3779 -0.1942 -0.1113
32469ION     NA48363  10.946  17.745  10.265 -0.1022  0.3781 -0.1495
32470ION     NA48364  17.494  12.744   2.761  0.1160 -0.0608 -0.0730
32471ION     NA48365   3.404  15.206   5.583 -0.1834 -0.2277  0.0535
32472ION     NA48366   1.244  14.796  12.332 -0.0432  0.0338 -0.2455
32473ION     NA48367  11.014  10.926  10.417  0.0758  0.0856  0.0132
32474ION     NA48368  11.238  11.529  10.015  0.2457  0.1026 -0.0665
32475ION     NA48369  16.107  18.731   5.622  0.0026 -0.4549  0.1443
32476ION     NA48370  12.119  11.857   9.908 -0.0722 -0.1719  0.0940
32477ION     NA48371  10.119  18.400   1.234  0.0815 -0.0438  0.1879
32478ION     NA48372  14.254  10.575  11.061 -0.0063 -0.1312  0.0091
32479ION     NA48373  15.012   4.991   9.900 -0.4237 -0.1665 -0.0685
32480ION     NA48374   1.799  13.414  12.103  0.2413 -0.0454  0.1575
32481ION     NA48375   0.506  16.877   0.225  0.0378 -0.0334  0.0760
32482ION     NA48376  10.269   7.062  11.230  0.2467  0.1544 -0.4930
32483ION     NA48377   3.516   5.620   9.714  0.0604 -0.0847  0.0732
32484ION     NA48378  14.451   2.353  10.246 -0.0253  0.2024 -0.3762
32485ION     NA48379  14.917   7.804   9.829 -0.2163 -0.0069 -0.4792
32486ION     NA48380   3.545  16.615   9.672 -0.1513  0.0772 -0.3121
32487ION     NA48381   3.492   8.082   3.042 -0.1926 -0.2983 -0.3344
32488ION     NA48382   7.675  12.709   9.829  0.2769 -0.0429 -0.0610
32489ION     NA48383   6.356  17.926  10.004 -0.2696  0.0678  0.2419
32490ION     NA48384   9.709  17.702  11.244 -0.2173 -0.2095 -0.0093
32491ION     NA48385   9.598   7.307   5.612  0.1736  0.3925 -0.1043
32492ION     NA48386   7.527  11.729   0.754  0.1764  0.5057  0.1079
32493ION     NA48387   2.487   5.466   9.667 -0.0945 -0.0410 -0.0078
32494ION     NA48388   0.917   4.302   5.321 -0.2089  0.2345  0.1419
32495ION     NA48389  11.146  15.876  10.272  0.0159  0.0051 -0.2212
32496ION     NA48390  12.122  16.739   6.112 -0.0850 -0.0226  0.2054
32497ION     NA48391   3.421  10.890   5.513 -0.1358  0.3902  0.2824
32498ION     NA48392   3.869  18.771   5.306  0.1017 -0.0614 -0.0537
32499ION     NA48393   5.107   0.610   9.672  0.0469 -0.1339 -0.1544
32500ION     NA48394  15.300  16.356   1.285 -0.0246 -0.0537 -0.1609
32501ION     NA48395   1.307   0.888   2.665 -0.0232 -0.0567  0.3982
32502ION     NA48396   2.144  13.828  10.109  0.0968  0.0740  0.1453
32503ION     NA48397  18.843   9.054  14.398 -0.2231  0.1588 -0.1424
32504ION     NA48398   2.261  12.079   1.330 -0.0881  0.0229  0.1439
32505ION     NA48399   8.967   7.566  10.031  0.2295  0.1061  0.3075
32506ION     NA48400  10.371   3.770   9.902  0.4041  0.1031  0.2036
32507ION     NA48401   6.660   6.001  10.213 -0.1770  0.0429 -0.1667
32508ION     NA48402  10.235   0.284   1.025 -0.0340 -0.1590 -0.1207
32509ION     NA48403   0.655   3.972  12.663  0.2079 -0.2600  0.1381
32510ION     NA48404  12.828   4.028  10.069 -0.0309  0.0503 -0.3063
32511ION     NA48405   2.688  13.292   9.777 -0.2899  0.2200 -0.1479
32512ION     NA48406  14.496  15.880   5.827 -0.1346 -0.1986 -0.0398
32513ION     NA48407   7.115   8.560  11.309  0.2172 -0.1225  0.0604
32514ION     NA48408   8.675  12.167   9.978  0.0678 -0.0220 -0.4780
32515ION     NA48409  10.542   5.240  10.170  0.1242  0.0639 -0.1199
32516ION     NA48410   4.675   5.814   9.886  0.1217 -0.1072  0.1607
32517ION     NA48411  16.055   3.638  10.888 -0.0821 -0.0362  0.1885
32518ION     NA48412  13.358   7.913   3.525  0.0938 -0.3030 -0.3261
32519ION     NA48413   1.778   6.843   4.383 -0.1278 -0.1623 -0.2042
32520ION     NA48414   6.130   2.871   5.596 -0.3386 -0.2754 -0.1926
32521ION     NA48415  13.451   2.220  10.093  0.0282  0.2243 -0.1137
32522ION     NA48416   9.969   6.563   9.913 -0.1000  0.2133 -0.0038
32523ION     NA48417  18.760   4.361  11.203 -0.0433  0.0602  0.1011
32524ION     NA48418   8.560  13.736  10.418  0.2301  0.0955 -0.0470
32525ION     NA48419  18.500  14.547  10.285 -0.1290  0.2885 -0.0679
32526ION     NA48420   3.772   1.400   5.316 -0.0575 -0.2317  0.2207
32527ION     NA48421  15.096   9.477   9.623  0.3036 -0.2820 -0.1325
32528ION     NA48422  15.570   3.641   1.844  0.2496  0.1200 -0.0887
32529ION     NA48423   0.456  14.092  10.189  0.0529  0.1726 -0.0432
32530ION     NA48424  16.094  18.239  12.357  0.0374 -0.0713 -0.1323
32531ION     NA48425  15.596  12.592  10.464 -0.3038  0.0761  0.2637
32532ION     NA48426   7.358   8.989   5.356  0.1439  0.4000  0.0965
32533ION     NA48427  13.090  18.768   5.978 -0.1539  0.1477  0.0111
32534ION     NA48428  15.845  17.826  10.333  0.1104  0.0977 -0.5329
32535ION     NA48429   8.859  15.017   9.900 -0.2317 -0.0464 -0.0403
32536ION     NA48430   0.734  16.686  10.358  0.0701  0.0618  0.0900
32537ION     NA48431   5.824  13.698   2.424  0.1999 -0.2919 -0.0010
32538ION     NA48432   0.569   5.030  13.818  0.2545 -0.0689 -0.1417
32539ION     NA48433   8.482  12.977  10.940 -0.0539  0.0598  0.1271
32540ION     NA48434   0.748  10.283  11.193  0.2731  0.1526 -0.5162
32541ION     NA48435   0.341   2.286   9.690 -0.0218 -0.2677  0.0508
32542ION     NA48436  10.951  10.751   9.920  0.0130 -0.0527  0.0662
32543ION     NA48437  18.299   6.246  15.030 -0.0203  0.2162 -0.0743
32544ION     NA48438   5.411   6.593   5.400  0.1449 -0.3058 -0.1917
32545ION     NA48439  14.820   6.724  15.257  0.0111  0.0651 -0.1154
32546ION     NA48440   5.444  14.485   5.660  0.4275 -0.2420  0.1057
32547ION     NA48441   9.830  14.738  13.879  0.0259  0.0800  0.0961
32548ION     NA48442   2.554  15.362   9.916 -0.1383  0.1229  0.0731
32549ION     NA48443   2.982   5.905  11.122  0.0166  0.0878 -0.0212
32550ION     NA48444  16.380  14.263  10.311 -0.1218 -0.0764 -0.1378
32551ION     NA48445   6.076   0.801   9.870  0.2302 -0.0550  0.0802
32552ION     NA48446   7.647  13.859  10.011 -0.1574 -0.1702 -0.0921
32553ION     NA48447   3.200   6.934  11.480  0.3106 -0.1802  0.3533
32554ION     NA48448  12.353   8.334   5.505 -0.1120 -0.0567  0.3757
32555ION     NA48449   2.270   0.844   9.652 -0.1371  0.0939 -0.0454
32556ION     NA48450   8.575   7.412  15.365 -0.1201 -0.2271  0.1485
32557ION     NA48451   4.813  14.809   9.752  0.1789  0.0270  0.0647
32558ION     NA48452  12.370  18.208  11.010  0.1946  0.0946 -0.2374
32559ION     NA48453  11.122   8.054  11.166 -0.1812  0.3428  0.1130
32560ION     NA48454  12.023   3.737  10.249 -0.2675  0.0669 -0.1066
32561ION     NA48455   6.913  12.292   1.365  0.1115 -0.2144  0.1938
32562ION     NA48456  10.923  16.775   9.982  0.3391 -0.3040  0.0496
32563ION     NA48457  17.470   2.772   9.760 -0.2249  0.2147  0.2266
32564ION     NA48458  15.544  16.234  14.176  0.3352 -0.1064  0.5301
32565ION     NA48459   8.531  16.503   3.177 -0.0103 -0.0684 -0.1887
32566ION     NA48460   4.399  15.660   9.786  0.1612  0.0355 -0.0290
32567ION     NA48461  12.960  11.874  12.583 -0.0324  0.1067 -0.0740
32568ION     NA48462   3.564  14.530   5.086  0.2511  0.1950 -0.1212
32569ION     NA48463  16.015  16.950  11.671 -0.2170  0.0398 -0.1174
32570ION     NA48464  16.887  14.280   6.091 -0.0370  0.2456  0.0724
32571ION     NA48465  10.626  12.197   9.947  0.0970  0.2854 -0.3072
32572ION     NA48466   4.642  17.293   9.972  0.0903  0.1227 -0.1284
32573ION     NA48467   1.380   8.255   5.396 -0.2268  0.3296 -0.0394
32574ION     NA48468  15.909  16.828   4.685  0.0896  0.0024  0.0395
32575ION     NA48469  12.233  17.310  10.802  0.0695  0.3486 -0.3898
32576ION     NA48470  12.314   9.903  15.014  0.0531  0.0438 -0.1288
32577ION     NA48471  10.805   2.540  10.163 -0.1429  0.1075  0.2493
32578ION     NA48472  18.156  11.692   9.945  0.2818 -0.0767 -0.2868
32579ION     NA48473   6.344  17.577   4.306  0.1212 -0.2711 -0.1885
32580ION     NA48474   5.441   7.363   9.905  0.4814  0.2332  0.1638
32581ION     NA48475   0.255  17.572  10.009 -0.0437  0.1437  0.0366
32582ION     NA48476  17.009  14.054   0.340  0.0876  0.2859 -0.0390
32583ION     NA48477  13.928   8.052   9.753  0.2670  0.3111 -0.0191
32584ION     NA48478   2.213   2.030   0.087 -0.0649  0.2383  0.0313
32585ION     NA48479  17.851   7.887  13.718 -0.1250  0.0474 -0.3559
32586ION     NA48480   4.093  13.707   9.871  0.0308  0.1442  0.0971
32587ION     NA48481  15.128  18.569   4.505  0.1126 -0.0948 -0.3056
32588ION     NA48482   6.844   7.678   5.374  0.0846  0.0019 -0.0182
32589ION     NA48483  10.338  18.474  10.273  0.1496 -0.2184 -0.2411
32590ION     NA48484   7.956  15.830   5.631 -0.2910 -0.1535 -0.0505
32591ION     NA48485   2.468  10.901  13.862 -0.0524  0.1280 -0.1296
32592ION     NA48486   5.464  14.407  11.343  0.4425 -0.3803  0.2016
32593ION     NA48487   7.950   0.364  10.388  0.2709  0.0679  0.0953
32594ION     NA48488   0.580  11.440   2.890  0.0781 -0.1388 -0.2367
32595ION     NA48489  10.347   3.201   5.671  0.1160  0.0281  0.0061
32596ION     NA48490   2.668  11.277   9.565 -0.1537  0.1855  0.0854
32597ION     NA48491   8.500   1.816  10.562  0.1222  0.1550 -0.1244
32598ION     NA48492   7.936  16.548  10.042  0.1187 -0.2490 -0.4882
32599ION     NA48493   8.903   5.316  10.347  0.0313  0.0873  0.1437
32600ION     NA48494  12.677   5.338   0.786 -0.1034 -0.2700 -0.0090
32601ION     NA48495  14.534   1.812  13.073  0.1132  0.1062 -0.0017
32602ION     NA48496   4.162  10.285   9.894  0.1924 -0.0704 -0.1521
32603ION     NA48497   1.507  11.004  10.222  0.1965  0.0049 -0.1235
32604ION     NA48498  14.398   0.115   3.985 -0.4551  0.2457 -0.1022
32605ION     NA48499   9.988   1.945  10.207 -0.2146  0.2611 -0.0449
32606ION     NA48500  14.057  11.095   5.082  0.1263 -0.0492  0.1709
32607ION     NA48501  13.877   2.989   9.910 -0.1734  0.2993  0.0610
32608ION     NA48502   0.255   1.685  10.185  0.2294  0.2091 -0.1397
32609ION     NA48503   1.095   0.036   2.809 -0.2296 -0.5439 -0.1045
32610ION     NA48504   3.891  10.155   2.982  0.1304 -0.1374 -0.4038
32611ION     NA48505  15.487  18.273  12.920  0.1312  0.0731 -0.0299
32612ION     NA48506  17.690  14.701  13.625 -0.1805 -0.0223  0.3497
32613ION     NA48507  18.478  13.147   4.977  0.1383  0.1012  0.0012
32614ION     NA48508   3.240  15.007  10.419 -0.0676  0.2852 -0.1775
32615ION     NA48509  16.676   8.007  14.547  0.2116 -0.1463  0.4090
32616ION     NA48510  14.131  15.935   1.630 -0.1559  0.2678  0.1832
32617ION     NA48511  15.108   0.940   1.684 -0.0085  0.3993  0.1049
32618ION     NA48512  17.500   4.149   9.485 -0.3597 -0.0990 -0.1629
32619ION     NA48513   4.196  12.237   5.116 -0.1460  0.4450 -0.4286
32620ION     NA48514  16.370   9.390   5.504  0.4336 -0.0291 -0.2714
32621ION     NA48515   1.101  12.629   1.557  0.1112 -0.0406 -0.2622
32622ION     NA48516   8.652   8.561   0.445 -0.1918 -0.1966  0.0756
32623ION     NA48517  10.055   3.808   5.029  0.0226 -0.3175 -0.3490
32624ION     NA48518  15.588   5.579   9.763  0.0384 -0.1180 -0.2010
32625ION     NA48519   1.832  10.728   9.571  0.2086 -0.1158  0.1231
32626ION     NA48520  11.176   3.300  10.017 -0.3673  0.0965  0.0412
32627ION     NA48521   7.246   8.581  10.394 -0.0581 -0.0874 -0.0047
32628ION     NA48522   5.546   9.437  10.098 -0.0448 -0.0109 -0.1166
32629ION     NA48523  12.722  10.943   5.492  0.0343  0.1384 -0.2758
32630ION     NA48524  15.958  11.913  13.192  0.0487  0.0574  0.0604
32631ION     NA48525   1.024  12.519  12.758  0.0092 -0.1615 -0.0579
32632ION     NA48526  17.153   7.708  10.140  0.0828  0.0452  0.1804
32633ION     NA48527  14.789  13.102  10.284 -0.0765 -0.2083 -0.0728
32634ION     NA48528   6.641  14.265  10.338  0.1254 -0.3134  0.1631
32635ION     NA48529  10.257  18.462   5.882 -0.1746  0.0109  0.1112
32636ION     NA48530  10.428   4.697  10.210  0.2504  0.0504  0.2862
32637ION     NA48531  10.214  16.768   0.296 -0.0552 -0.3272 -0.0851
32638ION     NA48532   1.834  18.568   9.776  0.1515 -0.1991  0.1224
32639ION     NA48533   7.545  15.161  14.849  0.2975 -0.3363  0.0122
32640ION     NA48534   2.076  16.145  10.013  0.4737  0.1545 -0.0045
32641ION     NA48535  17.667   6.496   9.935  0.1614  0.7058  0.0860
32642ION     NA48536   2.112   8.925   9.548  0.0615 -0.1839  0.0722
32643ION     NA48537   3.460   2.476   9.862  0.3431 -0.0312 -0.0591
32644ION     NA48538   3.538   3.478   9.985  0.0709 -0.1551 -0.2508
32645ION     NA48539   3.872  12.122   9.717 -0.0454  0.0047  0.2806
32646ION     NA48540  13.607   2.110  10.986 -0.0375  0.1236  0.0631
32647ION     NA48541   1.379   0.478   9.693 -0.0772 -0.1945  0.1146
32648ION     NA48542   3.395  11.284  13.127 -0.0050  0.0543 -0.2347
32649ION     NA48543  16.772  13.446   6.050 -0.0420  0.2052 -0.1100
32650ION     NA48544  13.965   7.145   9.947  0.2126  0.0698  0.0605
32651ION     NA48545  12.961   2.073  15.029  0.1054 -0.1778  0.2606
32652ION     NA48546   1.064  11.682   9.749  0.3059 -0.0965 -0.0460
32653ION     NA48547   3.073   1.279  13.822 -0.1451  0.1345  0.1279
32654ION     NA48548   5.484  11.890  14.522 -0.0954  0.1558 -0.2000
32655ION     NA48549   1.257  13.579   9.884  0.2228  0.0949  0.2320
32656ION     NA48550  16.852   7.046   2.760 -0.1552 -0.1044  0.2208
32657ION     NA48551  16.920  10.292   4.389  0.0084 -0.0524  0.1200
32658ION     NA48552  17.761  17.723   9.780  0.1253 -0.0503 -0.0819
32659ION     NA48553   4.128   6.968   5.447 -0.0417  0.0606  0.3160
32660ION     NA48554  17.490  11.038  10.040  0.2156  0.0221  0.0095
32661ION     NA48555   6.308   0.189   9.968  0.3213 -0.3823 -0.1677
32662ION     NA48556   3.059  12.378   0.838  0.2719  0.2265 -0.0308
32663ION     NA48557  16.449  11.309  10.652 -0.0943 -0.0204 -0.0308
32664ION     NA48558  17.693   9.548  10.038 -0.1357  0.1342  0.1425
32665ION     NA48559  10.415  11.525   1.265  0.0289 -0.0145 -0.2190
32666ION     NA48560  14.739   0.274   2.237  0.2394  0.3367  0.2365
32667ION     NA48561  13.078   7.757  10.204 -0.1177  0.1438  0.1700
32668ION     NA48562   1.175   8.019   4.976 -0.1767  0.0730 -0.4739
32669ION     NA48563  18.326  16.949   9.813 -0.2709 -0.2939 -0.0953
32670ION     NA48564  14.632  13.876   5.669 -0.0298  0.1046 -0.0538
32671ION     NA48565  12.454   6.741   2.502 -0.0756  0.1459 -0.0601
32672ION     NA48566  16.241   5.806   4.876  0.1503 -0.2156 -0.0608
32673ION     NA48567  16.550   3.238   9.583 -0.1933  0.1339  0.0057
32674ION     NA48568   4.138  17.117   5.585 -0.0562 -0.1668  0.0938
32675ION     NA48569  12.822   5.366   5.680  0.2978  0.2169  0.1578
32676ION     NA48570   5.937  15.977   9.909  0.5510 -0.2148  0.1490
32677ION     NA48571   1.116   2.285   9.844 -0.1736  0.0294  0.0243
32678ION     NA48572   7.208  17.217   9.949 -0.1092  0.0900 -0.0020
32679ION     NA48573  14.012  18.069  10.551  0.1864 -0.4009  0.2314
32680ION     NA48574   3.176   4.852   9.649  0.0202 -0.0165  0.0903
32681ION     NA48575   0.890   5.626  15.401 -0.0275 -0.1805  0.1749
32682ION     NA48576   6.035   5.763  10.863 -0.2698  0.0618 -0.1030
32683ION     NA48577   7.620   4.462   9.713 -0.2449 -0.1045  0.2318
32684ION     NA48578   0.631   7.467   4.415  0.2245  0.0102  0.2056
32685ION     NA48579   0.619   0.691   1.226 -0.1902 -0.2009  0.0524
32686ION     NA48580  12.419   7.380  13.991 -0.3339 -0.0715  0.1693
32687ION     NA48581  18.650   5.781   9.602 -0.5086  0.0197  0.0305
32688ION     NA48582   1.194   5.339   1.084  0.1209  0.0905  0.0424
32689ION     NA48583   6.334  10.310   3.018  0.2388  0.0041  0.2935
32690ION     NA48584  11.098   9.443  10.099  0.0006 -0.0354 -0.0140
32691ION     NA48585  12.784   4.380   0.122  0.0690 -0.4481 -0.3104
32692ION     NA48586  13.449   9.851   9.615 -0.0668  0.1994 -0.2012
32693ION     NA48587   1.433  10.863   3.607 -0.1553  0.0888  0.1278
32694ION     NA48588   2.250  17.014   0.021  0.1160  0.0484  0.1486
32695ION     NA48589   5.463  17.403   9.832  0.1793  0.3527 -0.0834
32696ION     NA48590  11.666  11.615  12.688 -0.0564 -0.1378 -0.0189
32697ION     NA48591  12.745  10.113   9.860  0.0143 -0.0651 -0.0599
32698ION     NA48592  11.154   3.225  11.439  0.2929  0.0813  0.3730
32699ION     NA48593   9.146   8.053   5.664 -0.0601 -0.0756 -0.1011
32700ION     NA48594   8.314  18.740   2.253 -0.0673  0.1271 -0.0421
32701ION     NA48595  11.460  15.629   5.959 -0.1944 -0.0713  0.3050
32702ION     NA48596   9.192   1.764   5.770  0.1078  0.1190 -0.0679
32703ION     NA48597  15.126  12.869   5.717 -0.2406 -0.0813 -0.1878
32704ION     NA48598   8.107   3.831   9.882  0.1401  0.1370 -0.3600
32705ION     NA48599   4.837   1.546  10.073  0.3854  0.2123  0.0241
32706ION     NA48600  17.311   1.900   9.749 -0.1002  0.0234 -0.4154
32707ION     NA48601  13.460   4.776   9.863 -0.4176  0.2966  0.0325
32708ION     NA48602  10.040  10.997  10.179  0.0329 -0.0969 -0.0617
32709ION     NA48603  15.001   6.210  10.409  0.0041  0.0554  0.2746
32710ION     NA48604   1.346   9.222  11.024 -0.2185 -0.0523 -0.2398
32711ION     NA48605  12.730  12.799  10.107 -0.3758  0.3653 -0.2228
32712ION     NA48606   9.572   2.580   5.640  0.0519 -0.1656  0.0735
32713ION     NA48607  14.565   8.763   9.707  0.0606  0.1458  0.2097
32714ION     NA48608   1.931   4.239   5.516  0.1066 -0.1544  0.3659
32715ION     NA48609   2.134   7.065   9.764  0.4082 -0.0483 -0.0161
32716ION     NA48610  16.214   3.689   9.487  0.2694  0.0966  0.1328
32717ION     NA48611   9.659   5.920   5.625  0.1015  0.2643  0.0446
32718ION     NA48612  17.259   6.999   1.091 -0.0471  0.2011 -0.2253
32719ION     NA48613   8.294   9.769   5.685 -0.1887  0.2236  0.0831
32720ION     NA48614  15.986   6.390  10.327 -0.1692  0.4735 -0.1929
32721ION     NA48615  13.791   5.046  10.560  0.3237 -0.0875 -0.3279
32722ION     NA48616   7.001   0.341  10.178  0.2324 -0.3402  0.0022
32723ION     NA48617   5.317   1.353   9.908  0.2952 -0.2855 -0.0684
32724ION     NA48618  12.645  11.091   9.859 -0.1891  0.2268 -0.1879
32725ION     NA48619   8.601   4.132   3.629  0.2067 -0.0819  0.0701
32726ION     NA48620  10.209   8.893   4.100  0.1346 -0.1205 -0.0685
32727ION     NA48621   0.249   5.007   9.868  0.2678  0.0690  0.0870
32728ION     NA48622   1.243   9.292   9.692  0.2735 -0.1835  0.0440
32729ION     NA48623   4.240  18.105  15.340  0.1365  0.0033  0.2329
32730ION     NA48624   5.967   2.265   0.901  0.0129 -0.2645  0.1912
32731ION     NA48625   2.399   6.900  10.161 -0.0643  0.2686  0.2501
32732ION     NA48626   6.243  10.076  14.978 -0.1297  0.1357 -0.1338
32733ION     NA48627  10.234  17.386   4.959 -0.1242  0.2279  0.1565
32734ION     NA48628  11.112  13.167   4.896  0.1776 -0.0363 -0.2021
32735ION     NA48629   8.257   2.331  13.966 -0.1264  0.0915 -0.2287
32736ION     NA48630   6.265   9.269   5.151  0.0980  0.0096 -0.2058
32737ION     NA48631   2.984   2.956   3.742  0.0731 -0.1230 -0.1428
32738ION     NA48632   0.721   3.477   1.605  0.0715 -0.2545 -0.0396
32739ION     NA48633  10.065   3.187   9.863  0.1373  0.0388 -0.0435
32740ION     NA48634   6.448  17.844   5.794 -0.2497  0.2142 -0.2111
32741ION     NA48635  13.319  14.377  12.250  0.3618  0.0673 -0.3242
32742ION     NA48636  11.412   4.314   2.261 -0.0040 -0.0408 -0.0215
32743ION     NA48637  12.521  15.292  10.417 -0.0605  0.1404 -0.0194
32744ION     NA48638   9.120  10.873   9.996 -0.1699 -0.5581  0.2500
32745ION     NA48639   2.775   1.113   5.366 -0.0650  0.0496 -0.1404
32746ION     NA48640   0.728  15.291   4.491 -0.3864  0.1212  0.1409
32747ION     NA48641   1.282  10.691  12.152 -0.0773  0.0001 -0.1412
32748ION     NA48642   4.771  12.194   9.638 -0.3411  0.2728  0.2072
32749ION     NA48643  18.349   4.831   4.240 -0.2573  0.0904  0.1138
32750ION     NA48644   4.726  10.330  14.215 -0.1273 -0.1961 -0.0383
32751ION     NA48645   1.159  15.156   2.741 -0.1562  0.2803  0.2357
32752ION     NA48646   5.868   7.623  12.652  0.0855 -0.0467  0.0962
32753ION     NA48647  11.261  14.299  10.250 -0.0693  0.0738  0.4087
32754ION     NA48648   6.968   3.546   9.864 -0.1501  0.0627  0.1357
32755ION     NA48649   2.788  17.059  15.219  0.1253 -0.2287 -0.1037
32756ION     NA48650   7.938   5.830   5.295  0.1802 -0.1635  0.0474
32757ION     NA48651   0.833   5.053   4.018 -0.0132  0.2154  0.0628
32758ION     NA48652  12.894   6.134   5.105 -0.1566  0.1042  0.1637
32759ION     NA48653  16.466   3.822   9.999 -0.0063  0.1452  0.0352
32760ION     NA48654  18.692   2.691   5.380 -0.1939  0.1944 -0.3286
32761ION     NA48655  16.747   5.163   9.560 -0.2213 -0.0579  0.0197
32762ION     NA48656  11.588  12.487  10.068  0.2557 -0.1279  0.0082
32763ION     NA48657   6.560   4.053   9.814  0.2002  0.1192  0.0708
32764ION     NA48658  13.939   9.652   9.705  0.2645 -0.4004  0.0216
32765ION     NA48659   2.827   0.569   4.456 -0.2752  0.1975 -0.0441
32766ION     NA48660  15.912  11.787  10.085 -0.0974 -0.0819 -0.1302
32767ION     NA48661  11.322   3.776   1.222 -0.1567  0.1521 -0.0163
32768ION     NA48662  14.127  13.691  10.416 -0.1825  0.0914 -0.0116
32769ION     NA48663  13.172   1.360  10.464 -0.1835 -0.0580 -0.1649
32770ION     NA48664   1.194   8.698   9.800  0.1210  0.0666  0.1452
32771ION     NA48665  10.032   2.744   4.255  0.1964  0.1037  0.1729
32772ION     NA48666  18.418  14.712   2.995  0.2375  0.0564 -0.0612
32773ION     NA48667   0.627  10.163  13.453 -0.2041  0.1830 -0.1015
32774ION     NA48668  17.889   2.290  15.326  0.0811 -0.2186 -0.0711
32775ION     NA48669   8.774  18.207  10.212  0.1172 -0.4214  0.4907
32776ION     NA48670  13.420  12.801  13.835 -0.3883 -0.2225 -0.1750
32777ION     NA48671   3.452  15.891   9.998 -0.0908  0.1046  0.2726
32778ION     NA48672   1.443   7.099  11.580  0.0920 -0.4136  0.0582
32779ION     NA48673   6.931   5.184   9.733 -0.2917 -0.1680 -0.3990
32780ION     NA48674   5.239   3.292  10.095  0.0136  0.0970 -0.1234
32781ION     NA48675   9.725  15.124  10.391 -0.1773  0.2672 -0.1718
32782ION     NA48676   0.448   0.691   9.766 -0.2204 -0.1679  0.1934
32783ION     NA48677  10.488   4.367  13.162 -0.0645  0.2302 -0.1108
32784ION     NA48678   9.653   7.983   1.602 -0.1128  0.2062  0.1594
32785ION     NA48679  13.177  13.585  10.219  0.1090 -0.1957  0.3522
32786ION     NA48680  10.779   0.394   2.104  0.1299 -0.0040  0.0608
32787ION     NA48681   9.894  16.980  10.088  0.0944 -0.0911 -0.2899
32788ION     NA48682   7.694  15.746   9.983  0.0144 -0.0263  0.2693
32789ION     NA48683   8.321  16.322  11.017  0.1015 -0.0679 -0.0731
32790ION     NA48684  16.719   0.473  11.006 -0.1422 -0.0825 -0.2140
32791ION     NA48685   0.089   8.751   9.891  0.1398 -0.0441  0.0652
32792ION     NA48686  12.037  16.000  10.191  0.0257  0.0544 -0.0226
32793ION     NA48687  15.240   6.562   5.370 -0.4026 -0.2085 -0.2198
32794ION     NA48688   2.180   3.453   9.532  0.0707 -0.0659 -0.0747
32795ION     NA48689   7.860  14.870  11.152  0.1353  0.1150  0.2458
32796ION     NA48690   7.950  17.699  10.137 -0.0762  0.0353  0.4750
32797ION     NA48691   7.469  15.939  11.258  0.2689 -0.3815  0.1951
32798ION     NA48692   1.089   8.179   4.093 -0.1017  0.0734 -0.1299
32799ION     NA48693   5.498  18.182  10.857 -0.1321 -0.2558 -0.1147
32800ION     NA48694  14.419  15.173   4.494 -0.1930 -0.0100  0.4331
32801ION     NA48695  14.297  10.354   9.761 -0.2233  0.0000 -0.1943
32802ION     NA48696   5.561   3.985   9.631 -0.0289 -0.1012  0.1570
32803ION     NA48697   0.327   9.774   9.679 -0.1908 -0.0788  0.1734
32804ION     NA48698   4.336  12.938   9.809  0.0180 -0.1072 -0.0336
32805ION     NA48699  14.440   1.339  10.183 -0.2161 -0.1335 -0.0833
32806ION     NA48700   3.418   1.283   9.919  0.2203  0.0736  0.2148
32807ION     NA48701   7.977  10.089  10.260 -0.2572 -0.0059 -0.4918
32808ION     NA48702   8.351  17.021   4.544 -0.3811 -0.0499 -0.3929
32809ION     NA48703  18.811  18.759   9.977  0.3794  0.0149  0.0037
32810ION     NA48704  11.206  18.335  14.349  0.0717  0.1488  0.1008
32811ION     NA48705   0.299  11.538  10.167 -0.1731  0.2759  0.0738
32812ION     NA48706   2.074  11.709  10.023 -0.0479  0.0739 -0.0195
32813ION     NA48707   3.365  16.530   1.268 -0.2240 -0.1867 -0.0946
32814ION     NA48708   7.291   7.724  10.390 -0.5004  0.0893  0.2707
32815ION     NA48709  14.819   0.806   3.506  0.0295 -0.0177 -0.4333
32816ION     NA48710  17.782  15.236  15.483  0.0712 -0.0099 -0.1546
32817ION     NA48711  14.200  12.496  10.138 -0.3300 -0.1303  0.1109
32818ION     NA48712  13.378  14.669  14.560 -0.1996 -0.1182 -0.2009
32819ION     NA48713   3.748   5.039  14.800  0.0501  0.2037 -0.1849
32820ION     NA48714   8.653   9.962   0.971 -0.1104  0.1553  0.0621
32821ION     NA48715  13.292  17.776   3.211  0.3119  0.1830 -0.1186
32822ION     NA48716   4.248   4.126   5.250 -0.3672 -0.1583 -0.0181
32823ION     NA48717  14.141   4.075   9.808  0.1468  0.0965  0.1660
32824ION     NA48718   2.416   4.156   2.513  0.0073 -0.1885  0.0274
32825ION     NA48719   5.566  12.274  11.545  0.1484  0.2446 -0.1269
32826ION     NA48720   8.763   6.216   5.637  0.2495  0.2446  0.0578
32827ION     NA48721   9.126  12.879   3.302  0.0304 -0.0073  0.1602
32828ION     NA48722   4.781   9.068   9.973 -0.2455  0.0995  0.1792
32829ION     NA48723  16.796  11.950   2.266 -0.0954 -0.0723 -0.0687
32830ION     NA48724   8.781   2.648  10.570  0.0985 -0.0318 -0.0663
32831ION     NA48725   2.476   4.376   9.764 -0.3871 -0.0544  0.0910
32832ION     NA48726   2.515   2.614  11.967 -0.2020  0.0825 -0.1077
32833ION     NA48727  10.857   0.352  10.249 -0.0947 -0.2431 -0.0184
32834ION     NA48728   6.173   1.604  10.144  0.3468  0.1353 -0.0516
32835ION     NA48729  18.579   7.904   9.619 -0.1144 -0.1669  0.2178
32836ION     NA48730  17.857  15.315  10.381  0.1975 -0.1494 -0.0867
32837ION     NA48731  15.692  18.755  10.370 -0.4884 -0.1788 -0.1123
32838ION     NA48732  16.845  17.419  10.112  0.0075 -0.1695 -0.0217
32839ION     NA48733   8.537   1.050  10.683  0.0846  0.0737 -0.1674
32840ION     NA48734   7.688   0.889  10.251  0.1641 -0.1805  0.0255
32841ION     NA48735  12.518   8.898  10.286  0.0174 -0.2707  0.4174
32842ION     NA48736  18.592   2.551  10.742 -0.2158  0.4121  0.2504
32843ION     NA48737   8.282   1.889   0.686  0.2751 -0.0100  0.2897
32844ION     NA48738   6.126  12.891   9.717 -0.0955 -0.1250  0.1386
32845ION     NA48739   8.862   9.876  13.888 -0.2867  0.2914  0.0194
32846ION     NA48740  12.778   9.363  12.562 -0.0147  0.0007 -0.2879
32847ION     NA48741   7.187   1.806  10.165 -0.2406 -0.0348 -0.0744
32848ION     NA48742  12.498   2.516  10.046 -0.3043  0.0759 -0.1721
32849ION     NA48743   0.839   3.242   9.712  0.0185  0.2131  0.0998
32850ION     NA48744   7.066   2.502   5.513 -0.1257 -0.2665  0.1441
32851ION     NA48745   8.263  16.200   5.316 -0.0049 -0.3123 -0.0395
32852ION     NA48746   1.132   4.867   9.712  0.1037 -0.1913 -0.1435
32853ION     NA48747   1.089  12.758   9.790 -0.0346 -0.0828  0.0359
32854ION     NA48748   8.829  16.440   1.338  0.4903  0.1036  0.2101
32855ION     NA48749  16.941  18.713   3.042  0.1677  0.1607  0.1192
32856ION     NA48750   6.022   2.085  11.261  0.2490  0.2917 -0.0127
32857ION     NA48751   4.526   6.749   9.643  0.1907  0.1079  0.1507
32858ION     NA48752   1.261  15.566   9.961  0.2290 -0.0671  0.3737
32859ION     NA48753  18.177  15.335   9.996 -0.1097  0.0251  0.3907
32860ION     NA48754  10.115   8.209  10.386  0.1037 -0.1804 -0.1032
32861ION     NA48755   6.085   3.337   9.869 -0.1042 -0.2270  0.0520
32862ION     NA48756  11.188   5.978  10.018 -0.1701  0.1650  0.0887
32863ION     NA48757  16.393  17.225  14.850  0.1372  0.3375 -0.0957
32864ION     NA48758   5.558   8.722   3.242 -0.1456 -0.2053  0.1596
32865ION     NA48759  13.036   3.168  10.208  0.1179 -0.0205 -0.0658
32866ION     NA48760   7.274  14.366   5.337 -0.1316 -0.0501 -0.0959
32867ION     NA48761  14.831  16.685  10.577  0.4517  0.3108  0.1400
32868ION     NA48762  17.865   5.764   9.451  0.0259 -0.0604  0.1739
32869ION     NA48763   1.961  17.686  10.335 -0.3033 -0.1403  0.2037
32870ION     NA48764  15.010  12.019  10.052 -0.1140  0.1184  0.1954
32871ION     NA48765  18.312  18.525  10.080 -0.0407 -0.3369 -0.1342
32872ION     NA48766   5.495  18.494  10.008  0.0965  0.3292 -0.0014
32873ION     NA48767   5.732  12.043   9.732  0.3148  0.5662 -0.0296
32874ION     NA48768   2.746   3.027   9.789  0.0522  0.1246 -0.4133
32875ION     NA48769   4.616  17.210   0.043 -0.0104 -0.1594  0.1414
32876ION     NA48770   8.800   0.771  12.333  0.0890  0.0756  0.2201
32877ION     NA48771   4.467   3.593   9.667 -0.1836 -0.0112  0.2781
32878ION     NA48772   3.409  18.382   9.576  0.0150 -0.1142 -0.1450
32879ION     NA48773  15.329   5.989   9.852  0.3260  0.0383 -0.0188
32880ION     NA48774   2.978   8.245   9.611  0.2195 -0.1416  0.2010
32881ION     NA48775  15.450  12.207  14.728 -0.2031 -0.0034 -0.0730
32882ION     NA48776   2.174  15.890  10.810  0.0398 -0.1601 -0.1607
32883ION     NA48777   9.430  13.851  10.067 -0.1470  0.0899  0.0800
32884ION     NA48778   7.376   6.607  14.616 -0.0529 -0.0637 -0.2853
32885ION     NA48779   8.783   4.417  10.050  0.1532 -0.0004 -0.0393
32886ION     NA48780   9.606  10.024  10.030  0.0766  0.2916  0.1698
32887ION     NA48781   6.266  11.516  10.066  0.0512  0.0611 -0.2573
32888ION     NA48782  17.969   4.701  13.276  0.3566 -0.1558  0.0436
32889ION     NA48783   6.782  12.254   9.855  0.4018 -0.0872 -0.1708
32890ION     NA48784   4.358  10.893  10.039 -0.2775 -0.0546 -0.3126
32891ION     NA48785   7.787  16.718   0.525 -0.1986 -0.1013  0.1241
32892ION     NA48786  17.545   8.574  14.583  0.3490 -0.1184  0.1197
32893ION     NA48787  14.418   5.628  15.153 -0.2804 -0.3776 -0.1479
32894ION     NA48788   9.613  11.744   9.999 -0.1340  0.0684 -0.2581
32895ION     NA48789   2.608   9.989   3.920 -0.1388  0.0552  0.2183
32896ION     NA48790  14.725   3.627  10.235  0.1102  0.2757  0.2227
32897ION     NA48791  11.808  18.145  10.411 -0.3048 -0.4845 -0.4215
32898ION     NA48792  14.460   7.904   5.393 -0.0516 -0.0898  0.0141
32899ION     NA48793  14.877  14.791  11.921 -0.1421  0.4290 -0.0028
32900ION     NA48794  14.366  11.838   9.847 -0.3159 -0.3267 -0.0753
32901ION     NA48795   4.560  12.475  13.719 -0.0084 -0.0986  0.0020
32902ION     NA48796   6.429  17.553   0.052 -0.1473  0.0022  0.2646
32903ION     NA48797   9.785  14.185   2.453  0.1757 -0.0874 -0.4155
32904ION     NA48798   5.054   0.531  12.527  0.3399 -0.1084  0.2542
32905ION     NA48799  12.356   1.653  10.326  0.3928  0.2487  0.0373
32906ION     NA48800  16.316  15.770  10.368  0.0141 -0.3542  0.0980
32907ION     NA48801   0.080  12.444   5.289 -0.0178  0.1277 -0.3120
32908ION     NA48802   3.054   8.661  13.853 -0.1697  0.1130  0.1082
32909ION     NA48803   4.244  17.597  10.156  0.0393 -0.0353 -0.0259
32910ION     NA48804   6.061   7.203   5.450 -0.0072  0.0731  0.1341
32911ION     NA48805  14.747   6.929   9.825 -0.1708 -0.0500 -0.2254
32912ION     NA48806   3.694   6.280  14.524  0.1897  0.0486 -0.1570
32913ION     NA48807  16.873   0.919  10.203  0.2080 -0.1023 -0.0442
32914ION     NA48808  15.108  16.778   5.903  0.2498  0.1411 -0.1369
32915ION     NA48809  17.584  13.295  10.457  0.3432 -0.1693  0.1341
32916ION     NA48810   2.733  16.341   9.571 -0.1342  0.0044  0.2425
32917ION     NA48811  14.964  16.087  12.045 -0.0077  0.0171 -0.2788
32918ION     NA48812   8.199  13.165  10.084  0.1425 -0.1426 -0.0524
32919ION     NA48813  18.503  17.814   5.765  0.0432 -0.1281 -0.1068
32920ION     NA48814   8.668   2.378   5.503 -0.3909 -0.1756  0.1560
32921ION     NA48815   3.523   0.357   9.609 -0.2081 -0.1052  0.1912
32922ION     NA48816  14.766  14.343  10.712  0.0314  0.1121 -0.1126
32923ION     NA48817  14.693   3.197   9.871  0.0831 -0.1486  0.1795
32924ION     NA48818  15.296  16.089   6.204 -0.3184  0.2133 -0.1394
32925ION     NA48819  17.708  14.632   3.512 -0.0887  0.0969 -0.2025
32926ION     NA48820  15.725  10.745  10.012  0.0338  0.3002  0.0837
32927ION     NA48821   0.773   5.737   9.606 -0.1033  0.0419 -0.0475
32928ION     NA48822   5.850  10.764   9.679  0.1451 -0.1494 -0.1911
32929ION     NA48823   0.301  13.109   9.902  0.1977  0.3147  0.0330
32930ION     NA48824   2.492   7.949   9.724 -0.0059  0.0698 -0.1702
32931ION     NA48825   8.949  16.527  10.202 -0.0623 -0.0612  0.1789
32932ION     NA48826  12.591   4.967  10.330  0.1022 -0.0525  0.2173
32933ION     NA48827  17.474  14.760   5.777  0.2765  0.1217 -0.1857
32934ION     NA48828  11.144   4.135  10.171  0.2164 -0.1778  0.2382
32935ION     NA48829   3.047   6.316   9.750 -0.4838  0.0849 -0.1778
32936ION     NA48830   7.539  15.585   4.869 -0.3018 -0.2232 -0.4464
32937ION     NA48831  14.338   5.779   9.839 -0.1294 -0.2305 -0.0916
32938ION     NA48832  16.134   8.813  12.135  0.0485 -0.2436 -0.0339
32939ION     NA48833   5.124   8.272  10.311 -0.0951  0.0043 -0.0105
32940ION     NA48834  12.402   0.025  10.512 -0.2154 -0.2461 -0.3572
32941ION     NA48835   2.967  17.317   9.564  0.0320 -0.0685  0.0315
32942ION     NA48836  11.164  17.498   2.415  0.0779  0.1108 -0.0762
32943ION     NA48837  15.440  16.273  10.220 -0.1968 -0.1418 -0.2323
32944ION     NA48838  16.108   2.461  10.140  0.2438 -0.0674  0.0167
32945ION     NA48839   6.037  13.726  10.752 -0.2083  0.2468 -0.0459
32946ION     NA48840   1.711  16.497   9.772  0.0261  0.2763  0.0141
32947ION     NA48841  12.193  15.846  11.545 -0.0889  0.1131  0.2199
32948ION     NA48842   3.448  14.436   9.711  0.0643 -0.0020  0.2123
32949ION     NA48843   0.251  17.933  11.696 -0.2888  0.0246  0.0328
32950ION     NA48844  15.076  11.387  10.436 -0.2981  0.2550 -0.0664
32951ION     NA48845  13.879  12.902   0.411  0.0969  0.3477 -0.2301
32952ION     NA48846   2.426   1.089   2.805  0.0886 -0.2511  0.2940
32953ION     NA48847  10.940  15.546   4.942  0.1398 -0.0953 -0.0057
32954ION     NA48848   6.957   6.847  10.167  0.1610 -0.0592  0.0257
32955ION     NA48849   9.075   3.895   2.931  0.0326 -0.0679 -0.3574
32956ION     NA48850   7.429   5.090   5.120  0.2403  0.0597  0.3251
32957ION     NA48851  16.718   2.979  10.065  0.0323  0.1968  0.0042
32958ION     NA48852   7.795   0.723   5.000  0.0363 -0.2766  0.1811
32959ION     NA48853   8.992  13.479   5.761 -0.3952 -0.2764 -0.0645
32960ION     NA48854  16.447  12.331   0.891  0.0407  0.2708 -0.1775
32961ION     NA48855   7.778   2.711   4.649  0.0109  0.0775 -0.1264
32962ION     NA48856  10.344  13.046   2.548 -0.0126 -0.3821 -0.0589
32963ION     NA48857   9.893   9.610   1.291 -0.5124  0.1237 -0.2660
32964ION     NA48858  16.887   0.363  12.335  0.1375  0.0691  0.1788
32965ION     NA48859  10.194   1.123  10.181 -0.1524  0.2483  0.0816
32966ION     NA48860   1.865  12.651   3.697 -0.0751 -0.0083  0.2373
32967ION     NA48861   8.930  16.442  14.298 -0.2557 -0.2741 -0.0473
32968ION     NA48862   7.440  17.879   3.188  0.0673 -0.1023 -0.0354
32969ION     NA48863   1.825  12.887   9.714 -0.1659  0.2136 -0.0538
32970ION     NA48864   0.845   6.571   9.670 -0.0335  0.3735 -0.2771
32971ION     NA48865  18.453  17.630  12.833 -0.1060  0.1246 -0.3582
32972ION     NA48866  13.008   5.701  10.097 -0.1540 -0.0542  0.0129
32973ION     NA48867  15.470   8.588   9.726 -0.0273 -0.2526 -0.4488
32974ION     NA48868   6.225   4.422   9.834 -0.1204  0.1458  0.4347
32975ION     NA48869  10.536  11.629   9.938 -0.2180 -0.2270  0.2666
32976ION     NA48870  15.503   1.819   4.324 -0.1632  0.0554  0.0365
32977ION     NA48871   1.555  16.946   9.986 -0.3056 -0.3045  0.1307
32978ION     NA48872   5.048  13.829   9.747  0.2296  0.0687  0.2696
32979ION     NA48873  13.160  18.364  10.566 -0.0202 -0.2054 -0.0811
32980ION     NA48874  18.592   4.443   9.637  0.0152  0.2019 -0.4726
32981ION     NA48875  11.439   8.419   3.319 -0.0726  0.2574  0.0965
32982ION     NA48876  16.677   9.270  11.198 -0.0130  0.0005 -0.0662
32983ION     NA48877   0.218   6.604   4.892 -0.0374  0.2791 -0.2929
32984ION     NA48878  10.156   5.627   5.387 -0.3128  0.5290  0.2847
32985ION     NA48879  10.441  17.667  10.216  0.0269 -0.1814  0.1613
32986ION     NA48880   8.923  17.316   0.363  0.1031 -0.0986  0.0456
32987ION     NA48881  10.626  15.085  10.016  0.0788 -0.1367 -0.0348
32988ION     NA48882  11.869   0.698   4.817 -0.2692 -0.2035 -0.4583
32989ION     NA48883  10.848   3.847   5.662 -0.0275 -0.1772  0.0520
32990ION     NA48884   8.576  12.774  14.124 -0.0703 -0.0929 -0.3903
32991ION     NA48885   7.475  16.644  13.035  0.2090 -0.0061 -0.0509
32992ION     NA48886  11.691   0.816  10.268 -0.2206  0.0495 -0.2795
32993ION     NA48887   0.941  15.071  13.556  0.3443  0.0428 -0.4479
32994ION     NA48888   3.285   9.859   9.598  0.1453  0.2197 -0.1243
32995ION     NA48889  11.250  13.286  10.177  0.0914  0.2210 -0.0734
32996ION     NA48890   9.432   1.203  10.331 -0.0773 -0.1416  0.0065
32997ION     NA48891  13.668  16.553   1.983  0.1719 -0.0512 -0.1232
32998ION     NA48892   5.777   6.090   9.953  0.1436  0.2106  0.0302
32999ION     NA48893   4.110  18.805   9.946 -0.2465  0.2523 -0.0539
33000ION     NA48894   3.816  17.736   9.447 -0.1264  0.2043  0.0533
33001ION     NA48895   6.729   2.931  11.668 -0.0418 -0.0734 -0.0019
33002ION     NA48896  13.102   1.251  10.981 -0.2415  0.1717 -0.0360
33003ION     NA48897  15.593   9.092   9.977 -0.2524 -0.0481  0.0352
33004ION     NA48898  10.194   9.894  12.194  0.2489  0.2071 -0.2483
33005ION     NA48899  11.791  13.447   3.465 -0.0829  0.1018  0.1344
33006ION     NA48900   0.871   3.706  15.231  0.1584  0.2511  0.2511
33007ION     NA48901   9.826   2.385  12.544  0.0615 -0.0095  0.1314
33008ION     NA48902  13.658   8.905   9.772 -0.3113  0.0527 -0.2444
33009ION     NA48903   4.742  18.539   5.508 -0.0413 -0.0026  0.1635
33010ION     NA48904   9.785  16.017  10.083 -0.1876 -0.0339  0.2072
33011ION     NA48905   9.185   4.769   5.526 -0.5775 -0.2403  0.1633
33012ION     NA48906  15.285   1.202  10.376 -0.2224 -0.0689 -0.0978
33013ION     NA48907   6.126  16.368   9.595 -0.1537 -0.0614  0.0320
33014ION     NA48908  16.513   7.159   9.884  0.0969  0.3120  0.0653
33015ION     NA48909   7.034  18.381  10.077 -0.0136  0.0674  0.2413
33016ION     NA48910  11.494   0.943   1.714 -0.0071 -0.1544 -0.0283
33017ION     NA48911   2.919   3.636   3.015  0.2674 -0.1903  0.1758
33018ION     NA48912   6.469  16.335   2.302 -0.0492 -0.1718  0.0679
33019ION     NA48913   0.629   8.008   9.610  0.3117 -0.3163  0.2546
33020ION     NA48914  16.899   0.427  13.855  0.0267  0.0381 -0.0209
33021ION     NA48915   1.614   3.981   9.743  0.4270 -0.1762 -0.1362
33022ION     NA48916   2.728  13.039  14.548  0.0967  0.3624 -0.1108
33023ION     NA48917   2.509   9.819  14.264 -0.0908  0.0585  0.0016
33024ION     NA48918  13.954   1.023   5.872 -0.1346  0.1795  0.0832
33025ION     NA48919   9.338  14.353  10.171 -0.2439 -0.3094  0.1290
33026ION     NA48920  15.550   3.238   9.895 -0.0145  0.3194  0.3100
33027ION     NA48921   6.475   9.175  10.158 -0.0297  0.0027  0.1443
33028ION     NA48922  14.124  17.143  10.409 -0.0511  0.3703 -0.0350
33029ION     NA48923  13.584   8.651  10.546 -0.0602 -0.3364  0.1649
33030ION     NA48924   6.414  15.133  10.071  0.1074  0.0560  0.0804
33031ION     NA48925   5.595  15.210   9.905 -0.1243 -0.4558  0.0537
33032ION     NA48926   1.561   9.120   2.017  0.0396 -0.1550  0.1211
33033ION     NA48927   4.142   0.934   9.770 -0.0722  0.2001 -0.2277
33034ION     NA48928   9.107   0.023  10.067 -0.0099 -0.0961  0.1824
33035ION     NA48929   8.989   8.048   5.135  0.1664  0.0806 -0.2728
33036ION     NA48930   5.974   5.115  11.610 -0.0361  0.2000  0.1317
33037ION     NA48931   6.357   5.373   9.710  0.1591  0.1726 -0.1438
33038ION     NA48932   9.607   4.431   9.666 -0.1584  0.0956  0.2555
33039ION     NA48933  11.714   0.068  15.132  0.2931  0.3962  0.3452
33040ION     NA48934  18.271   3.042  10.017  0.5968  0.1390  0.3613
33041ION     NA48935  16.202  16.090   5.754  0.0098  0.0783  0.3001
33042ION     NA48936   3.959  15.000   9.855 -0.3506 -0.0876 -0.0164
33043ION     NA48937  17.480   3.477  12.230 -0.3201  0.0039 -0.1955
33044ION     NA48938  12.954   1.907  11.586  0.2593 -0.0124  0.2059
33045ION     NA48939  13.949  11.626   9.693 -0.1362  0.1901  0.0239
33046ION     NA48940   9.703   9.120   9.981 -0.0453  0.2134  0.2499
33047ION     NA48941  12.085   5.612   9.956 -0.0772 -0.0558  0.1144
33048ION     NA48942  13.010  18.130  11.852 -0.0809 -0.0717  0.2074
33049ION     NA48943   3.923   8.403   9.743 -0.1599 -0.2743 -0.3234
33050ION     NA48944   2.366   4.123  11.013 -0.0978 -0.2112 -0.1679
33051ION     NA48945   5.174   7.017  10.181  0.0465 -0.1802 -0.1749
33052ION     NA48946  12.010  16.594   5.170 -0.2743  0.2140  0.1208
33053ION     NA48947  11.441   8.770  10.031  0.2294  0.0035 -0.0687
33054ION     NA48948  15.100   0.368  10.458  0.2665 -0.0255  0.0398
33055ION     NA48949  17.513  17.921  10.692 -0.2323  0.2908 -0.1686
33056ION     NA48950  16.446  12.787  10.234  0.0097 -0.1880 -0.1451
33057ION     NA48951   7.746  11.953  13.803  0.0319 -0.0473 -0.0188
33058ION     NA48952   8.203  13.836   5.919 -0.2804  0.1391  0.1679
33059ION     NA48953   3.064  13.077  15.361  0.0543  0.0275  0.0571
33060ION     NA48954   6.490  16.785   9.891  0.0916 -0.1488 -0.0456
33061ION     NA48955   7.981   2.802   9.943  0.1191 -0.1024 -0.0771
33062ION     NA48956   5.813  13.205  14.414  0.1638 -0.0117 -0.1465
33063ION     NA48957  16.262   8.696  10.519 -0.1558  0.1206  0.0453
33064ION     NA48958  11.517   6.823  10.346 -0.1333  0.0285 -0.0400
33065ION     NA48959  13.081  14.544  10.659 -0.2396 -0.2028 -0.1012
33066ION     NA48960  12.463   0.069   5.610 -0.2850  0.4264 -0.1976
33067ION     NA48961   5.219   3.246  12.380 -0.1424 -0.2960  0.2026
33068ION     NA48962  14.315   0.248  10.586  0.0829  0.2548  0.2319
33069ION     NA48963   7.654   2.124   3.387 -0.2739  0.3131  0.1954
33070ION     NA48964   3.844   9.449   9.926 -0.5047  0.1617 -0.0660
33071ION     NA48965  17.579  16.268  10.088 -0.3674 -0.1866  0.0082
33072ION     NA48966  15.713  10.882   5.326 -0.3198 -0.2230  0.1969
33073ION     NA48967   4.896  16.475  10.006  0.1993  0.1288  0.1733
33074ION     NA48968  10.116  10.146   3.772 -0.2496 -0.0195 -0.0674
33075ION     NA48969   2.572   2.857   2.502 -0.1819 -0.0105  0.1316
33076ION     NA48970  17.531  12.448  10.143  0.3348 -0.3484  0.1017
33077ION     NA48971   7.313   3.196  10.025 -0.3251 -0.0874 -0.1627
33078ION     NA48972   4.718  15.473  10.847 -0.2584  0.0444  0.2834
33079ION     NA48973   8.521   7.581  12.363 -0.0877 -0.1704 -0.0074
33080ION     NA48974  18.836  13.156  14.416  0.0218 -0.2181 -0.1952
33081ION     NA48975  16.400   8.086   9.800 -0.4791  0.0123 -0.1075
33082ION     NA48976   6.768   6.639  13.012  0.0178 -0.1264 -0.1310
33083ION     NA48977   5.635   7.592  10.289 -0.1172 -0.1795  0.1120
33084ION     NA48978   5.527   3.105   2.783 -0.0240  0.2450  0.2208
33085ION     NA48979  12.780   2.429  10.735 -0.0111 -0.1232 -0.1642
33086ION     NA48980  15.498  13.808  10.306  0.0539 -0.0084  0.2918
33087ION     NA48981  11.536  15.122  10.333  0.4048  0.0675 -0.3047
33088ION     NA48982   0.648  16.166   2.847  0.1844  0.1644 -0.1862
33089ION     NA48983  16.341  17.526   3.101 -0.1198 -0.0517 -0.2043
33090ION     NA48984   6.599  10.237   5.640 -0.2514  0.0098  0.1075
33091ION     NA48985  11.995   9.437   9.859  0.3968  0.1137 -0.2221
33092ION     NA48986   8.464   5.320   5.540 -0.1114  0.3041 -0.0516
33093ION     NA48987   4.043  10.968   1.989  0.0357  0.1027  0.3394
33094ION     NA48988   4.307  18.452   1.814  0.2449 -0.1780  0.1432
33095ION     NA48989   6.916   1.056   9.972 -0.2126 -0.0017  0.0362
33096ION     NA48990  13.381  12.140   9.917 -0.2016 -0.2614  0.1476
33097ION     NA48991  14.839  18.343  15.012  0.3234 -0.1268  0.2720
33098ION     NA48992  16.283  12.642   5.715  0.0571 -0.0629  0.1437
33099ION     NA48993  13.766  15.727  10.511  0.2065  0.0558 -0.1033
33100ION     NA48994   3.418  10.730   9.752 -0.1797  0.0022 -0.1759
33101ION     NA48995  13.932  12.194   4.950 -0.0307  0.0228  0.0825
33102ION     NA48996   1.645   6.131   9.632  0.2514  0.0207 -0.1646
33103ION     NA48997   8.889   3.144   4.221  0.0994 -0.0817 -0.1241
33104ION     NA48998   0.099  15.692   5.572  0.0818 -0.1051 -0.2324
33105ION     NA48999  11.480   1.662  10.375  0.2617 -0.1988 -0.1562
33106ION     NA49000  12.752   8.801   9.817  0.0735 -0.0645 -0.3557
33107ION     NA49001   5.379   2.642  10.249 -0.0807  0.1148 -0.0870
33108ION     NA49002   7.083   4.437  10.500  0.1907 -0.2375  0.1423
33109ION     NA49003  10.015   7.741  10.080  0.0262 -0.1269  0.0603
33110ION     NA49004   1.618   1.617   9.535 -0.1752 -0.1166 -0.1599
33111ION     NA49005   2.927   0.239   5.634  0.1109  0.0947  0.2630
33112ION     NA49006   5.265  16.168   5.533  0.1877  0.0303 -0.1999
33113ION     NA49007  11.454   7.949   4.074  0.1863 -0.0370  0.0840
33114ION     NA49008  12.683   3.776   4.059  0.1892 -0.2276  0.0691
33115ION     NA49009  12.824  12.184  11.852 -0.0120  0.0932  0.1450
33116ION     NA49010  12.113   8.182  10.044 -0.0807  0.1549  0.0240
33117ION     NA49011   9.070  13.333  13.188 -0.0247  0.0762 -0.2724
33118ION     NA49012   9.791   5.505  10.384 -0.1423 -0.1718 -0.0291
33119ION     NA49013   1.486   7.833   9.732 -0.0725  0.0560  0.1496
33120ION     NA49014  12.999  15.434  13.522 -0.0753 -0.0664 -0.1299
33121ION     NA49015   4.585   9.977   2.158 -0.1749 -0.3732 -0.0903
33122ION     NA49016  10.352  15.654  10.008 -0.3861 -0.0616  0.1632
33123ION     NA49017   8.417  11.018   2.262 -0.1415  0.2997 -0.2645
33124ION     NA49018   1.364   7.350   9.480  0.3929 -0.1321 -0.1610
33125ION     NA49019   6.879  13.628   9.699  0.0054 -0.1850  0.2724
33126ION     NA49020   4.161  10.060  14.975  0.1358  0.1871  0.1619
33127ION     NA49021  14.432  17.880   2.245 -0.3807 -0.2125  0.1756
33128ION     NA49022   1.614  16.773   5.153 -0.2166 -0.2702 -0.0818
33129ION     NA49023   6.369   0.258  12.445  0.0396  0.2795  0.2506
33130ION     NA49024  18.810  13.943   9.706 -0.2281  0.1609 -0.1736
33131ION     NA49025  18.624  18.600   2.348 -0.2591  0.0690 -0.0008
33132ION     NA49026  12.365   1.113  10.342  0.0434 -0.1870  0.2040
33133ION     NA49027  15.646   4.289   9.875  0.2350 -0.1717  0.2499
33134ION     NA49028   5.331  12.818   5.370  0.0241 -0.0597  0.0423
33135ION     NA49029  11.888  17.962   2.180  0.2821 -0.1995  0.0454
33136ION     NA49030  17.065   5.237   5.017  0.0837 -0.1114 -0.4163
33137ION     NA49031   8.697   6.385  10.009  0.4953 -0.2332  0.2236
33138ION     NA49032   0.011  13.959   1.415  0.0508 -0.0271  0.3146
33139ION     NA49033   8.155   5.770   9.917 -0.1145  0.3878 -0.0639
33140ION     NA49034   6.768   2.561   9.783  0.0652 -0.1526  0.2170
33141ION     NA49035   1.165  16.572   5.791 -0.2395 -0.0176 -0.2624
33142ION     NA49036  18.036   8.274  10.162 -0.0722 -0.2402 -0.0391
33143ION     NA49037   9.136  13.083  10.170  0.3275  0.1683  0.3039
33144ION     NA49038   4.622  13.826   0.800  0.0195  0.3767 -0.0337
33145ION     NA49039  11.170   6.728   2.099  0.2548  0.1503  0.2471
33146ION     NA49040   0.754  10.119   9.816  0.3359 -0.0270 -0.1207
33147ION     NA49041   9.173  11.217  13.136  0.2617  0.0869  0.0072
33148ION     NA49042   0.583  10.781  15.096 -0.0654  0.2008  0.1297
33149ION     NA49043   4.929   7.433   5.276  0.0536 -0.0617  0.0454
33150ION     NA49044  17.914  15.351   1.811 -0.4842  0.1728 -0.2170
33151ION     NA49045  15.162   2.478  10.431 -0.1587 -0.1525 -0.0569
33152ION     NA49046   3.419  12.875   9.837 -0.0249 -0.0941  0.3197
33153ION     NA49047   8.309  15.092   6.005 -0.0948  0.2942  0.2503
33154ION     NA49048   8.339  11.626  10.039  0.1514  0.1368  0.1086
33155ION     NA49049  14.026  12.185   1.322 -0.3214 -0.2084 -0.1507
33156ION     NA49050  12.454   1.863  14.430  0.3546  0.0173 -0.4060
33157ION     NA49051   3.589   7.651  14.359  0.0709  0.2202  0.3003
33158ION     NA49052   1.469   1.612   0.652  0.4129 -0.0509 -0.3411
33159ION     NA49053   1.510   2.346  12.888 -0.0192  0.2979  0.1554
33160ION     NA49054  18.539   0.595  10.116 -0.0667  0.1162 -0.0395
33161ION     NA49055  12.140  13.190  10.304  0.0311  0.4416  0.2966
33162ION     NA49056   1.071  13.630  14.220  0.0453 -0.3746  0.1840
33163ION     NA49057  12.884  16.043  10.423 -0.0908  0.1222  0.0285
33164ION     NA49058   9.876   4.654  13.680  0.1308 -0.2511  0.0307
33165ION     NA49059  18.511  12.019   4.759  0.0702  0.2976 -0.1707
33166ION     NA49060   7.393   0.142   5.471  0.1724  0.0541 -0.1268
33167ION     NA49061  10.564   8.639   1.297  0.3951 -0.2556 -0.0584
33168ION     NA49062  18.203  10.481  10.262  0.3599 -0.1694  0.0179
33169ION     NA49063  13.280   2.378  12.369 -0.3095 -0.1060  0.2469
33170ION     NA49064  16.224   1.437   9.998  0.0754 -0.1262  0.0917
33171ION     NA49065   5.303  12.875   9.660 -0.2968 -0.1598 -0.1246
33172ION     NA49066   0.170  15.226  10.046  0.1703 -0.0288 -0.0761
33173ION     NA49067  18.372   9.704  10.236 -0.0254 -0.0685  0.1039
33174ION     NA49068   9.035   3.180  11.501  0.0164 -0.0758  0.1739
33175ION     NA49069  13.403  17.781   2.674  0.3165  0.0572  0.1291
  18.88222  18.88222  15.49211
