INSANE! Membrane UpperLeaflet>loPI=1 LowerLeaflet>loPI=1
49675
    1loPI    C1    1   8.906  14.777   9.885 -0.0753 -0.2080 -0.0617
    1loPI    C2    2   9.034  14.466  10.102 -0.1247 -0.0598  0.1831
    1loPI    C3    3   8.836  14.766  10.278 -0.3799 -0.0519 -0.1082
    1loPI   PO4    4   8.950  14.821   9.689  0.0647 -0.0825  0.1656
    1loPI   GL1    5   9.204  14.775   9.334 -0.0501  0.1414 -0.2206
    1loPI   GL2    6   9.428  14.896   9.434  0.0650  0.0937  0.5215
    1loPI   C1A    7   9.310  14.716   8.917  0.0727 -0.1201 -0.0363
    1loPI   C2A    8   9.270  14.754   8.451  0.0907 -0.1622 -0.1460
    1loPI   C3A    9   9.340  14.893   8.109 -0.2669  0.1216 -0.0929
    1loPI   C4A   10   9.209  15.175   7.798 -0.0125 -0.0219  0.0901
    1loPI   C5A   11   9.402  15.246   7.434 -0.0626 -0.0031 -0.1819
    1loPI   C6A   12   9.526  15.383   6.991  0.0486 -0.2316 -0.2081
    1loPI   C1B   13   9.565  15.125   9.058  0.1482  0.1191  0.0525
    1loPI   C2B   14   9.462  15.282   8.667  0.0745  0.0873 -0.1362
    1loPI   C3B   15   9.615  15.291   8.147 -0.3012 -0.2638  0.3858
    1loPI   C4B   16   9.831  15.065   7.844 -0.3298 -0.2814 -0.0523
    2loPI    C1   17   5.959  15.633  10.127  0.0081  0.1186  0.2186
    2loPI    C2   18   6.092  15.296  10.296  0.4181  0.1181 -0.0900
    2loPI    C3   19   6.268  15.645  10.381  0.0785  0.2408  0.1285
    2loPI   PO4   20   5.971  15.607   9.823 -0.1585 -0.1326 -0.0489
    2loPI   GL1   21   6.061  15.724   9.338  0.1333 -0.5598 -0.2650
    2loPI   GL2   22   6.209  15.455   9.388 -0.0475  0.3659 -0.3469
    2loPI   C1A   23   6.158  15.615   8.917 -0.1078 -0.0180 -0.3040
    2loPI   C2A   24   6.307  15.683   8.553 -0.0526  0.3994  0.0156
    2loPI   C3A   25   6.022  15.619   8.190 -0.0761  0.2490  0.1292
    2loPI   C4A   26   5.723  15.495   7.805 -0.0511  0.1627  0.3390
    2loPI   C5A   27   5.846  15.355   7.389 -0.1872  0.1909  0.2047
    2loPI   C6A   28   6.125  15.518   7.221 -0.1188 -0.0911 -0.1853
    2loPI   C1B   29   6.044  15.149   9.108  0.0770  0.1224  0.0547
    2loPI   C2B   30   5.920  14.837   8.668 -0.0238  0.1733 -0.0081
    2loPI   C3B   31   5.905  14.646   8.280 -0.1587 -0.0060  0.1012
    2loPI   C4B   32   5.516  14.629   8.098 -0.1174 -0.3648 -0.2270
    3loPI    C1   33  16.346  18.211   9.713 -0.1212  0.2037 -0.1631
    3loPI    C2   34  16.744  18.218   9.669 -0.1057 -0.1018 -0.0926
    3loPI    C3   35  16.581  18.275  10.030 -0.1340  0.1724 -0.1471
    3loPI   PO4   36  16.274  18.109   9.530 -0.1188  0.2229 -0.0125
    3loPI   GL1   37  16.248  18.067   9.027 -0.1127  0.0178  0.1367
    3loPI   GL2   38  16.402  17.962   8.776 -0.0187  0.0282 -0.2828
    3loPI   C1A   39  16.067  18.382   8.648 -0.3594  0.0473 -0.0367
    3loPI   C2A   40  16.029  18.451   8.181  0.1449  0.0005  0.0112
    3loPI   C3A   41  16.126  18.521   7.743 -0.2561 -0.0451  0.0210
    3loPI   C4A   42  15.892  18.518   7.474  0.0834 -0.0738 -0.0480
    3loPI   C5A   43  15.681  18.193   7.185 -0.2659  0.0829  0.1009
    3loPI   C6A   44  15.548  18.024   6.724  0.0119  0.2243 -0.1021
    3loPI   C1B   45  16.049  17.881   8.457 -0.0873 -0.2006  0.0914
    3loPI   C2B   46  16.166  17.529   8.201 -0.0348 -0.1542  0.0442
    3loPI   C3B   47  16.151  17.206   7.927 -0.0169  0.1110  0.2786
    3loPI   C4B   48  16.223  17.054   7.532  0.2268  0.1005  0.1152
    4loPI    C1   49   6.712  14.833  10.019  0.1984  0.1272  0.1145
    4loPI    C2   50   6.446  14.881  10.314  0.1630  0.2661  0.0607
    4loPI    C3   51   6.800  14.712  10.390 -0.0179 -0.1087  0.0918
    4loPI   PO4   52   6.694  15.087   9.796 -0.0308  0.1673 -0.0773
    4loPI   GL1   53   6.726  15.040   9.264 -0.1041  0.2089  0.2358
    4loPI   GL2   54   6.565  15.264   9.130  0.2685  0.0859  0.1382
    4loPI   C1A   55   6.969  15.109   8.924  0.1603  0.0443 -0.0019
    4loPI   C2A   56   6.977  14.967   8.525  0.0942 -0.0671  0.0087
    4loPI   C3A   57   6.929  15.061   8.100 -0.1753  0.1241 -0.0012
    4loPI   C4A   58   7.074  15.122   7.597  0.0261  0.2247  0.0780
    4loPI   C5A   59   6.993  15.200   7.154 -0.1435  0.0236  0.0968
    4loPI   C6A   60   7.239  14.974   6.835  0.2764 -0.0526  0.0564
    4loPI   C1B   61   6.459  15.191   8.784  0.0791 -0.0797  0.0212
    4loPI   C2B   62   6.528  15.194   8.337 -0.2724 -0.2113  0.3634
    4loPI   C3B   63   6.501  15.508   8.052  0.3386 -0.1477  0.2392
    4loPI   C4B   64   6.187  15.547   7.718 -0.1561  0.1373 -0.2035
    5loPI    C1   65   6.456  18.228   9.473 -0.0498  0.0360  0.2171
    5loPI    C2   66   6.229  17.960   9.281 -0.1325  0.1478  0.1581
    5loPI    C3   67   6.464  17.843   9.583  0.3316 -0.1114 -0.2867
    5loPI   PO4   68   6.574  18.378   9.265  0.2669  0.3417 -0.1116
    5loPI   GL1   69   6.517  18.479   8.896  0.2348 -0.2599  0.2953
    5loPI   GL2   70   6.304  18.262   8.878 -0.1154  0.1520  0.2405
    5loPI   C1A   71   6.881  18.596   8.564 -0.5184  0.0806 -0.0333
    5loPI   C2A   72   7.008  18.804   8.145  0.0595 -0.3339  0.1137
    5loPI   C3A   73   7.346  18.794   7.799 -0.0769  0.1860  0.0502
    5loPI   C4A   74   7.441  18.666   7.406  0.1116 -0.0544 -0.0263
    5loPI   C5A   75   7.434  18.901   7.018 -0.1117 -0.1945 -0.0731
    5loPI   C6A   76   7.547  18.718   6.533 -0.1142 -0.0887  0.0843
    5loPI   C1B   77   6.392  18.187   8.373 -0.0330  0.1123 -0.1071
    5loPI   C2B   78   6.504  17.976   8.098  0.0290  0.2077 -0.0687
    5loPI   C3B   79   6.844  17.964   7.797 -0.0024 -0.0563 -0.3357
    5loPI   C4B   80   7.233  17.856   7.579  0.0441  0.4084  0.0858
    6loPI    C1   81  19.455   3.747  10.135  0.0434 -0.0089  0.0233
    6loPI    C2   82  19.769   3.673  10.372 -0.0877  0.0496  0.2184
    6loPI    C3   83  19.489   3.392  10.317 -0.0559  0.0351  0.1298
    6loPI   PO4   84  19.565   3.846   9.959 -0.2901 -0.5191  0.3789
    6loPI   GL1   85  19.504   3.896   9.475 -0.2419 -0.0245  0.0668
    6loPI   GL2   86  19.772   3.710   9.505  0.0791 -0.1715 -0.1307
    6loPI   C1A   87  19.462   3.621   9.142 -0.4240 -0.1630 -0.1979
    6loPI   C2A   88  19.443   3.487   8.804 -0.1943 -0.1679  0.0171
    6loPI   C3A   89  19.350   3.158   8.517  0.1283  0.0618  0.3169
    6loPI   C4A   90  19.548   3.178   8.151  0.0452  0.0161  0.0567
    6loPI   C5A   91  19.401   3.104   7.731 -0.0942  0.1326 -0.0817
    6loPI   C6A   92  19.277   3.034   7.341  0.1951  0.2886 -0.0712
    6loPI   C1B   93  19.960   3.719   9.102 -0.2938 -0.0357  0.0351
    6loPI   C2B   94  20.039   3.715   8.716 -0.2940  0.2273  0.1954
    6loPI   C3B   95  19.881   3.582   8.297  0.0899  0.0368 -0.2993
    6loPI   C4B   96  19.879   3.537   7.756 -0.2896  0.2099 -0.1868
    7loPI    C1   97   4.824   1.231   9.527 -0.0359 -0.1278 -0.1002
    7loPI    C2   98   4.530   1.151   9.786  0.0622  0.2183  0.1250
    7loPI    C3   99   4.804   0.872   9.703 -0.2605 -0.0684 -0.0014
    7loPI   PO4  100   4.805   1.305   9.299  0.1098  0.0154  0.0766
    7loPI   GL1  101   4.776   1.223   8.858  0.3661  0.2207  0.1490
    7loPI   GL2  102   4.616   1.575   8.810  0.0407 -0.2481  0.2133
    7loPI   C1A  103   4.849   1.166   8.427  0.1999 -0.1455 -0.0657
    7loPI   C2A  104   4.854   1.150   8.059 -0.0026 -0.0893  0.2966
    7loPI   C3A  105   4.723   1.220   7.608 -0.4412  0.2380 -0.2876
    7loPI   C4A  106   4.617   1.111   7.212  0.0236 -0.0682  0.1554
    7loPI   C5A  107   4.802   0.859   6.885 -0.1225  0.0140  0.1280
    7loPI   C6A  108   5.100   0.504   6.991 -0.2289 -0.2194 -0.0805
    7loPI   C1B  109   4.484   1.518   8.408  0.1323  0.1244  0.1142
    7loPI   C2B  110   4.532   1.468   7.959 -0.0145  0.0462  0.0830
    7loPI   C3B  111   4.347   1.539   7.520  0.2725 -0.0856 -0.0275
    7loPI   C4B  112   4.239   1.590   6.999  0.0012  0.1823 -0.1592
    8loPI    C1  113   7.926  10.539   9.906 -0.0311  0.1298  0.1396
    8loPI    C2  114   7.942  10.469  10.299 -0.0060  0.0073  0.1171
    8loPI    C3  115   8.270  10.586  10.103 -0.1084  0.4548  0.2025
    8loPI   PO4  116   7.807  10.370   9.781  0.0508 -0.0680 -0.1126
    8loPI   GL1  117   7.690  10.100   9.446 -0.2108  0.0651 -0.0613
    8loPI   GL2  118   7.520  10.015   9.210  0.2937 -0.3384  0.1677
    8loPI   C1A  119   8.056  10.072   9.169  0.1222 -0.1536  0.2075
    8loPI   C2A  120   8.145  10.129   8.762  0.3626  0.0285 -0.1881
    8loPI   C3A  121   8.083  10.108   8.272  0.3626 -0.1685  0.1527
    8loPI   C4A  122   8.143  10.004   7.849  0.0177  0.1180 -0.1008
    8loPI   C5A  123   8.313   9.787   7.535 -0.2170  0.0137 -0.0800
    8loPI   C6A  124   8.415   9.294   7.453 -0.2658 -0.1024  0.2738
    8loPI   C1B  125   7.702   9.815   8.797  0.0105  0.2048 -0.3809
    8loPI   C2B  126   7.628   9.890   8.346 -0.1723 -0.0683 -0.1743
    8loPI   C3B  127   7.650  10.079   7.934 -0.0428  0.0638 -0.1179
    8loPI   C4B  128   7.778   9.864   7.495 -0.0299  0.0311 -0.2813
    9loPI    C1  129   4.767   0.133   9.550  0.3071 -0.0901  0.0826
    9loPI    C2  130   4.388   0.170   9.672  0.1885  0.0279 -0.3086
    9loPI    C3  131   4.677   0.096   9.938 -0.1073 -0.0666 -0.0068
    9loPI   PO4  132   4.675   0.304   9.211 -0.3014 -0.0832  0.0724
    9loPI   GL1  133   4.694   0.308   8.828 -0.1420 -0.2643  0.0008
    9loPI   GL2  134   5.108   0.227   8.748 -0.0726  0.0899 -0.4552
    9loPI   C1A  135   4.298   0.161   8.627 -0.1755  0.4550  0.1108
    9loPI   C2A  136   3.962   0.132   8.323 -0.1351  0.2444  0.3388
    9loPI   C3A  137   4.072   0.041   7.851  0.1224  0.0573  0.0095
    9loPI   C4A  138   4.088  -0.146   7.466  0.1126 -0.1275  0.0424
    9loPI   C5A  139   4.173  -0.036   7.033  0.0347 -0.0256 -0.1973
    9loPI   C6A  140   4.502   0.374   6.877  0.1672  0.0204  0.0428
    9loPI   C1B  141   5.078   0.362   8.416 -0.1938 -0.3075  0.0081
    9loPI   C2B  142   5.057   0.158   8.008 -0.1168 -0.1684  0.0673
    9loPI   C3B  143   5.023  -0.113   7.751  0.1081  0.2624 -0.0010
    9loPI   C4B  144   5.049  -0.234   7.408 -0.2193  0.1025 -0.1451
   10loPI    C1  145   1.012   7.760  10.138  0.3526 -0.1731  0.2900
   10loPI    C2  146   1.367   7.932  10.203  0.1914  0.1901  0.2315
   10loPI    C3  147   1.030   8.132  10.283 -0.0022 -0.0742  0.0919
   10loPI   PO4  148   1.079   7.646   9.845  0.1125  0.1006 -0.1728
   10loPI   GL1  149   0.894   7.671   9.436  0.0806 -0.1168  0.0872
   10loPI   GL2  150   0.869   7.959   9.358 -0.0526  0.1591 -0.0095
   10loPI   C1A  151   1.333   7.831   9.251  0.1215  0.4591  0.1582
   10loPI   C2A  152   1.525   7.596   8.900 -0.6156  0.0383 -0.1377
   10loPI   C3A  153   1.543   7.572   8.510  0.1228  0.1797  0.0374
   10loPI   C4A  154   1.439   7.741   8.202 -0.2580 -0.1617 -0.2994
   10loPI   C5A  155   1.538   7.981   7.839 -0.2437  0.1679  0.1580
   10loPI   C6A  156   1.744   7.904   7.423  0.0360  0.0773  0.2056
   10loPI   C1B  157   0.934   7.862   8.946  0.0866  0.0749 -0.1545
   10loPI   C2B  158   0.870   8.043   8.510  0.3977  0.1780 -0.0973
   10loPI   C3B  159   0.855   7.840   8.137 -0.4159 -0.2518 -0.6117
   10loPI   C4B  160   1.095   7.819   7.782 -0.3215  0.1254  0.0566
   11loPI    C1  161  10.005   2.967   9.240  0.2111  0.0944 -0.1418
   11loPI    C2  162  10.194   3.083   9.573  0.0564  0.0732 -0.0453
   11loPI    C3  163   9.795   3.050   9.571  0.0498  0.1489 -0.2560
   11loPI   PO4  164  10.196   3.046   9.051  0.0563  0.0756 -0.0617
   11loPI   GL1  165  10.436   2.988   8.637  0.1357 -0.0568 -0.0529
   11loPI   GL2  166  10.768   2.938   8.475  0.1450  0.0632 -0.0041
   11loPI   C1A  167  10.370   3.307   8.160 -0.1515  0.0270  0.0436
   11loPI   C2A  168  10.407   3.266   7.671  0.2102 -0.2992 -0.0451
   11loPI   C3A  169  10.450   3.027   7.392 -0.0296 -0.1823 -0.2303
   11loPI   C4A  170  10.721   2.768   7.212  0.3600  0.0162  0.2355
   11loPI   C5A  171  10.819   2.668   6.791  0.4327  0.1219  0.0878
   11loPI   C6A  172  11.137   2.694   6.629  0.4295 -0.1342  0.3255
   11loPI   C1B  173  10.866   2.979   8.006 -0.3421 -0.0664  0.1961
   11loPI   C2B  174  10.866   3.133   7.625 -0.1058  0.3119  0.0015
   11loPI   C3B  175  10.899   3.483   7.398  0.0053  0.0472  0.0436
   11loPI   C4B  176  10.815   3.586   6.858 -0.0907  0.1246 -0.3124
   12loPI    C1  177   2.713   5.306   9.875 -0.1108  0.0611 -0.0080
   12loPI    C2  178   2.923   5.095  10.142 -0.2620 -0.1420 -0.0472
   12loPI    C3  179   2.575   5.261  10.248 -0.1519  0.0759 -0.0213
   12loPI   PO4  180   2.862   5.286   9.662 -0.2173  0.0356 -0.0188
   12loPI   GL1  181   3.019   5.193   9.290  0.4175  0.1616 -0.3328
   12loPI   GL2  182   2.764   5.353   9.152 -0.0576  0.1651  0.0429
   12loPI   C1A  183   3.113   5.011   8.835  0.0706  0.4147  0.0150
   12loPI   C2A  184   2.951   5.054   8.484  0.1276 -0.0793  0.5042
   12loPI   C3A  185   2.866   5.217   8.088 -0.0715  0.0573 -0.0985
   12loPI   C4A  186   2.941   5.489   7.739  0.0299  0.1913  0.1633
   12loPI   C5A  187   3.314   5.676   7.640 -0.0723  0.3029  0.0379
   12loPI   C6A  188   3.662   5.550   7.785 -0.1291 -0.2918 -0.5122
   12loPI   C1B  189   2.928   5.626   8.832 -0.0212  0.0628  0.2463
   12loPI   C2B  190   3.077   5.522   8.390 -0.0273  0.1968  0.0132
   12loPI   C3B  191   3.340   5.288   8.115  0.2923 -0.1984 -0.0359
   12loPI   C4B  192   3.305   5.140   7.795 -0.2624 -0.2651  0.0996
   13loPI    C1  193  16.108  14.273   9.686 -0.0030  0.0587  0.0676
   13loPI    C2  194  16.312  14.210  10.024  0.1034  0.1686  0.0245
   13loPI    C3  195  16.354  14.555   9.825 -0.1199  0.1898  0.0115
   13loPI   PO4  196  16.029  14.132   9.564 -0.2048  0.1491  0.1384
   13loPI   GL1  197  16.132  14.041   9.196 -0.2402  0.4565 -0.1515
   13loPI   GL2  198  16.035  13.781   8.980 -0.1650 -0.0767  0.2715
   13loPI   C1A  199  16.289  14.272   8.872  0.2458 -0.2984  0.3689
   13loPI   C2A  200  16.092  14.205   8.540  0.0429 -0.2516  0.0738
   13loPI   C3A  201  15.789  14.244   8.239 -0.1313  0.0715 -0.3090
   13loPI   C4A  202  15.500  14.335   7.925 -0.1602 -0.3359 -0.2789
   13loPI   C5A  203  15.459  14.207   7.455  0.4976 -0.1706  0.2149
   13loPI   C6A  204  15.601  13.899   7.065  0.1017  0.0304  0.3123
   13loPI   C1B  205  15.853  13.772   8.606  0.1993  0.1770 -0.0189
   13loPI   C2B  206  15.551  13.835   8.204 -0.0568 -0.1024 -0.0381
   13loPI   C3B  207  15.546  13.731   7.711 -0.1636  0.2323 -0.1871
   13loPI   C4B  208  15.916  13.643   7.379  0.0736  0.0946 -0.1050
   14loPI    C1  209  19.823   0.310   9.774  0.1109 -0.1106 -0.0385
   14loPI    C2  210  19.600   0.536  10.017 -0.1455  0.1273 -0.4831
   14loPI    C3  211  19.492   0.159   9.939  0.1129 -0.0584  0.0136
   14loPI   PO4  212  19.836   0.430   9.564 -0.1079 -0.0365  0.1227
   14loPI   GL1  213  19.788   0.472   9.150  0.2042  0.1425  0.0204
   14loPI   GL2  214  19.717   0.232   8.998 -0.3533  0.0377  0.0236
   14loPI   C1A  215  19.933   0.501   8.668  0.0685  0.1244  0.0789
   14loPI   C2A  216  19.877   0.397   8.310  0.0271  0.1787  0.1166
   14loPI   C3A  217  20.060   0.460   7.862 -0.2056  0.1266 -0.0746
   14loPI   C4A  218  20.153   0.471   7.344 -0.0230 -0.0027 -0.0523
   14loPI   C5A  219  20.031   0.567   6.873 -0.1462  0.3188 -0.1465
   14loPI   C6A  220  20.081   0.228   6.522  0.0924  0.2823  0.0653
   14loPI   C1B  221  19.785  -0.042   8.625  0.1380  0.0951  0.3270
   14loPI   C2B  222  19.829  -0.247   8.214 -0.3071 -0.0324  0.1524
   14loPI   C3B  223  19.773  -0.472   7.944  0.1766 -0.3647 -0.1212
   14loPI   C4B  224  19.743  -0.734   7.757  0.2362  0.4147 -0.2077
   15loPI    C1  225   4.748   2.094   9.609  0.0064 -0.0625 -0.0018
   15loPI    C2  226   5.064   2.255   9.424 -0.1311 -0.0142 -0.1975
   15loPI    C3  227   5.117   2.026   9.747  0.1155 -0.1327 -0.3193
   15loPI   PO4  228   4.621   2.088   9.339  0.1464 -0.4913 -0.0270
   15loPI   GL1  229   4.709   2.040   8.951 -0.2851 -0.0089 -0.1822
   15loPI   GL2  230   4.961   2.114   8.896  0.0168 -0.0349 -0.2984
   15loPI   C1A  231   4.755   1.976   8.505 -0.1496  0.0785  0.0811
   15loPI   C2A  232   4.580   1.951   8.135 -0.0036 -0.2834  0.2395
   15loPI   C3A  233   4.406   1.950   7.752 -0.1092 -0.1624 -0.1697
   15loPI   C4A  234   4.023   1.908   7.426 -0.0716  0.1503  0.1308
   15loPI   C5A  235   3.690   1.784   7.170 -0.2252 -0.4255 -0.0517
   15loPI   C6A  236   3.724   1.559   6.801 -0.0968  0.1312 -0.0763
   15loPI   C1B  237   5.255   2.214   8.534 -0.0441 -0.2122  0.0183
   15loPI   C2B  238   5.380   1.960   8.239 -0.0288 -0.0919  0.0480
   15loPI   C3B  239   5.332   1.879   7.851 -0.0262  0.1414  0.0347
   15loPI   C4B  240   5.256   1.959   7.364  0.0331  0.1488  0.0058
   16loPI    C1  241  14.918  16.673   9.789 -0.0762  0.0854 -0.0105
   16loPI    C2  242  14.861  16.284   9.861  0.0781  0.0745  0.0558
   16loPI    C3  243  14.621  16.556  10.029 -0.1189  0.0012 -0.1038
   16loPI   PO4  244  14.987  16.673   9.530 -0.1605  0.0821  0.2129
   16loPI   GL1  245  14.988  16.538   9.215  0.2669  0.1860  0.3131
   16loPI   GL2  246  15.157  16.555   8.914  0.1455 -0.1247 -0.0113
   16loPI   C1A  247  14.675  16.510   8.847  0.1361 -0.0821 -0.0770
   16loPI   C2A  248  14.426  16.448   8.597 -0.3913 -0.1209  0.1415
   16loPI   C3A  249  14.522  16.585   8.242  0.1386  0.1843  0.2652
   16loPI   C4A  250  14.470  16.496   7.953  0.1455 -0.0464  0.1443
   16loPI   C5A  251  14.502  16.524   7.606  0.1049 -0.2606  0.0563
   16loPI   C6A  252  14.641  16.495   7.267  0.2017  0.1208 -0.0614
   16loPI   C1B  253  15.457  16.708   8.602 -0.2840 -0.1530 -0.1749
   16loPI   C2B  254  15.742  16.862   8.235 -0.0371  0.0161 -0.0073
   16loPI   C3B  255  15.642  17.136   7.909  0.1091 -0.2457 -0.0399
   16loPI   C4B  256  15.367  17.388   7.611  0.1937  0.1161 -0.1559
   17loPI    C1  257  17.249  16.417   9.461  0.0867 -0.2716  0.0982
   17loPI    C2  258  17.276  16.808   9.541 -0.1061 -0.2116 -0.1185
   17loPI    C3  259  17.215  16.547   9.838  0.2536 -0.1034  0.0571
   17loPI   PO4  260  17.159  16.498   9.137 -0.0309 -0.2126  0.0304
   17loPI   GL1  261  16.846  16.515   8.748 -0.0138 -0.0357  0.1626
   17loPI   GL2  262  17.181  16.407   8.639  0.0476  0.0624 -0.2585
   17loPI   C1A  263  16.801  16.578   8.341 -0.1555  0.4614 -0.0105
   17loPI   C2A  264  16.511  16.330   8.020 -0.2566  0.1982 -0.0750
   17loPI   C3A  265  16.251  16.220   7.709  0.2012  0.1471 -0.1822
   17loPI   C4A  266  16.086  16.329   7.327  0.0881  0.1431  0.0743
   17loPI   C5A  267  15.774  16.044   7.117  0.3188 -0.0102 -0.0928
   17loPI   C6A  268  15.635  15.671   6.786 -0.0309 -0.4203 -0.1761
   17loPI   C1B  269  17.148  16.248   8.232 -0.2906  0.0668 -0.0554
   17loPI   C2B  270  16.959  16.096   7.904 -0.1394 -0.1790  0.0243
   17loPI   C3B  271  17.098  15.969   7.537  0.1604  0.0773  0.0054
   17loPI   C4B  272  17.228  15.780   7.129 -0.0658  0.1110  0.2753
   18loPI    C1  273   8.009   0.112   9.255 -0.0183  0.0813 -0.1158
   18loPI    C2  274   7.926   0.366   9.553 -0.1753 -0.0500 -0.0460
   18loPI    C3  275   8.093   0.011   9.633  0.2617  0.1227 -0.1654
   18loPI   PO4  276   8.090   0.174   9.099  0.1557 -0.2922  0.0864
   18loPI   GL1  277   8.301  -0.260   8.867 -0.0470  0.0761 -0.1164
   18loPI   GL2  278   8.326  -0.577   8.812  0.0668  0.0786  0.0492
   18loPI   C1A  279   8.124  -0.124   8.495 -0.0044  0.0474 -0.0085
   18loPI   C2A  280   7.975  -0.116   8.134  0.0333 -0.0184 -0.0783
   18loPI   C3A  281   7.820  -0.175   7.664  0.0140 -0.1620  0.1714
   18loPI   C4A  282   8.010  -0.235   7.286 -0.2181 -0.1412  0.3690
   18loPI   C5A  283   8.158  -0.469   6.886 -0.1123  0.4696 -0.2746
   18loPI   C6A  284   7.936  -0.782   6.784 -0.3005  0.1267 -0.3560
   18loPI   C1B  285   8.476  -0.578   8.428 -0.0030  0.1402 -0.2759
   18loPI   C2B  286   8.874  -0.464   8.273  0.0136  0.2143  0.0212
   18loPI   C3B  287   9.089  -0.450   7.932 -0.0993 -0.1022  0.0748
   18loPI   C4B  288   9.003  -0.395   7.483  0.2452  0.0913 -0.0627
   19loPI    C1  289  14.764   5.712   9.620 -0.0907  0.2889 -0.0869
   19loPI    C2  290  14.810   5.978   9.916  0.1836  0.0799  0.0635
   19loPI    C3  291  14.805   5.587   9.998  0.1145  0.0248 -0.1936
   19loPI   PO4  292  14.915   5.863   9.380 -0.3463  0.0350 -0.2183
   19loPI   GL1  293  14.891   5.993   8.989  0.1757  0.1845  0.4052
   19loPI   GL2  294  14.962   6.334   8.990 -0.0759  0.0100 -0.0890
   19loPI   C1A  295  14.779   5.559   8.635  0.2048  0.1835  0.0993
   19loPI   C2A  296  14.788   5.540   8.231  0.5230  0.1159  0.0925
   19loPI   C3A  297  14.923   5.458   7.816  0.0963  0.2505  0.1188
   19loPI   C4A  298  14.781   5.082   7.824 -0.2663 -0.3084 -0.2346
   19loPI   C5A  299  14.658   4.653   7.921  0.0666  0.1513  0.2192
   19loPI   C6A  300  14.704   4.283   8.049  0.2163 -0.1141 -0.2847
   19loPI   C1B  301  15.126   6.207   8.590 -0.2282 -0.0275  0.0479
   19loPI   C2B  302  15.120   6.076   8.153  0.0828 -0.0278  0.0873
   19loPI   C3B  303  15.223   5.818   7.745  0.0072 -0.1804  0.0146
   19loPI   C4B  304  15.436   5.793   7.392 -0.1611 -0.1287 -0.0215
   20loPI    C1  305   9.331  16.265   9.729  0.0141  0.0998 -0.1387
   20loPI    C2  306   9.421  16.348  10.110 -0.0500  0.0026 -0.1018
   20loPI    C3  307   9.495  15.984   9.962 -0.1153  0.0107 -0.1545
   20loPI   PO4  308   9.387  16.465   9.588  0.0431  0.2438  0.0616
   20loPI   GL1  309   9.499  16.537   9.164 -0.0349 -0.0037 -0.1243
   20loPI   GL2  310   9.417  16.770   8.982  0.0889 -0.1204 -0.1554
   20loPI   C1A  311   9.689  16.338   8.793 -0.2747 -0.0429  0.0350
   20loPI   C2A  312   9.951  16.252   8.448 -0.3424 -0.0699 -0.4980
   20loPI   C3A  313  10.121  15.886   8.178  0.1168  0.4098  0.2471
   20loPI   C4A  314  10.165  15.525   7.975 -0.0310  0.1034 -0.0398
   20loPI   C5A  315  10.094  15.323   7.558 -0.1639 -0.0189  0.4157
   20loPI   C6A  316  10.104  14.925   7.368 -0.2471 -0.1286  0.1836
   20loPI   C1B  317   9.435  16.702   8.486  0.0570 -0.0326  0.2318
   20loPI   C2B  318   9.786  16.708   8.193 -0.1725  0.0159  0.4064
   20loPI   C3B  319   9.998  16.858   7.819 -0.3075  0.3573 -0.1392
   20loPI   C4B  320   9.925  16.896   7.336 -0.1253  0.0786 -0.2605
   21loPI    C1  321  11.118   5.069   9.378 -0.0069  0.1643  0.0424
   21loPI    C2  322  11.171   5.196   9.754  0.0456 -0.0605  0.1124
   21loPI    C3  323  10.819   5.042   9.643 -0.0987  0.3604 -0.0384
   21loPI   PO4  324  11.133   5.235   9.247  0.1358  0.1108 -0.1465
   21loPI   GL1  325  10.965   5.312   8.805  0.2140  0.0873  0.0281
   21loPI   GL2  326  11.082   4.926   8.769  0.0427 -0.0821  0.1360
   21loPI   C1A  327  10.950   5.219   8.356  0.1371 -0.0420  0.1687
   21loPI   C2A  328  11.108   5.172   8.008  0.1515 -0.2076  0.0140
   21loPI   C3A  329  11.140   5.322   7.620 -0.0274  0.0336  0.2807
   21loPI   C4A  330  11.156   5.419   7.240 -0.3225  0.0450 -0.0708
   21loPI   C5A  331  11.094   5.203   6.826 -0.0084 -0.1657 -0.4582
   21loPI   C6A  332  10.857   4.893   6.586 -0.1941 -0.3841  0.1511
   21loPI   C1B  333  11.393   4.965   8.505  0.1631  0.1853  0.2396
   21loPI   C2B  334  11.573   4.952   8.158 -0.0057 -0.1677  0.1635
   21loPI   C3B  335  11.611   5.188   7.786  0.2753 -0.0278  0.1706
   21loPI   C4B  336  11.645   5.458   7.421  0.0839 -0.1571  0.0537
   22loPI    C1  337  13.860   5.602   9.743  0.2096 -0.3665 -0.0548
   22loPI    C2  338  14.003   5.942   9.897 -0.0353 -0.2971  0.0231
   22loPI    C3  339  13.903   5.640  10.139 -0.3467 -0.2166 -0.0013
   22loPI   PO4  340  13.961   5.632   9.450  0.1067 -0.0600  0.0086
   22loPI   GL1  341  13.949   5.797   9.080 -0.1428 -0.2699 -0.0555
   22loPI   GL2  342  13.700   5.921   9.035 -0.2617 -0.1875  0.2237
   22loPI   C1A  343  13.980   5.979   8.653  0.3039 -0.0675  0.0603
   22loPI   C2A  344  13.666   6.227   8.397  0.1142 -0.1377  0.1241
   22loPI   C3A  345  13.617   6.351   8.021 -0.0529  0.1549 -0.1190
   22loPI   C4A  346  13.189   6.362   7.863  0.2193  0.0243  0.4769
   22loPI   C5A  347  12.896   6.510   7.450  0.1170 -0.0386  0.0767
   22loPI   C6A  348  13.128   6.382   7.098 -0.1420 -0.1802 -0.1149
   22loPI   C1B  349  13.403   5.852   8.707  0.1068 -0.0944 -0.1558
   22loPI   C2B  350  13.235   5.952   8.331  0.2186 -0.0065 -0.1974
   22loPI   C3B  351  13.082   5.898   7.862  0.0775  0.1385 -0.2447
   22loPI   C4B  352  13.002   5.979   7.444 -0.0083  0.0574 -0.0746
   23loPI    C1  353   0.145  16.913   9.637  0.0145 -0.0360 -0.0712
   23loPI    C2  354   0.285  17.268   9.757 -0.0379 -0.0498  0.0319
   23loPI    C3  355  -0.063  17.131   9.899  0.0080 -0.1666  0.0335
   23loPI   PO4  356   0.167  16.864   9.326 -0.0947 -0.0261  0.1441
   23loPI   GL1  357  -0.025  16.972   8.917  0.0508  0.1078  0.3824
   23loPI   GL2  358  -0.313  17.167   8.968  0.1060  0.3399  0.2183
   23loPI   C1A  359  -0.248  16.811   8.615  0.1026  0.0238 -0.1602
   23loPI   C2A  360  -0.354  16.728   8.160  0.0481 -0.1544  0.0496
   23loPI   C3A  361  -0.320  16.683   7.739 -0.0956 -0.1804 -0.1555
   23loPI   C4A  362  -0.428  16.993   7.413 -0.0604 -0.0760  0.1403
   23loPI   C5A  363  -0.775  17.317   7.272 -0.0331 -0.0835 -0.0298
   23loPI   C6A  364  -0.968  17.405   6.902  0.2511 -0.0098  0.2322
   23loPI   C1B  365  -0.355  17.262   8.454  0.1084  0.0202 -0.1491
   23loPI   C2B  366  -0.179  17.162   8.002  0.4155  0.1148 -0.2457
   23loPI   C3B  367   0.066  16.989   7.642  0.0877  0.1684  0.0320
   23loPI   C4B  368   0.349  16.992   7.304  0.2810  0.1401 -0.2988
   24loPI    C1  369  11.018  16.969   9.748 -0.3002  0.1554  0.1958
   24loPI    C2  370  11.160  16.860  10.106 -0.2013  0.3616  0.2206
   24loPI    C3  371  11.244  17.222   9.959 -0.0555  0.1975 -0.1106
   24loPI   PO4  372  10.768  16.861   9.650 -0.1104  0.0680 -0.1226
   24loPI   GL1  373  10.556  16.797   9.275 -0.3878 -0.2065  0.2003
   24loPI   GL2  374  10.358  16.959   9.401  0.0115 -0.0486  0.1816
   24loPI   C1A  375  10.481  16.934   8.783  0.1260 -0.2669  0.0490
   24loPI   C2A  376  10.385  17.123   8.402 -0.0249 -0.1884 -0.1381
   24loPI   C3A  377  10.443  17.050   8.014 -0.1508  0.0850  0.2554
   24loPI   C4A  378  10.566  17.165   7.574  0.0231  0.1894 -0.1109
   24loPI   C5A  379  10.318  17.236   7.241 -0.1106  0.4132 -0.2135
   24loPI   C6A  380  10.097  17.427   6.832 -0.1706 -0.0465  0.0384
   24loPI   C1B  381  10.404  17.319   9.147 -0.1318 -0.2509  0.0142
   24loPI   C2B  382  10.035  17.428   8.857  0.0445 -0.1497  0.1145
   24loPI   C3B  383   9.676  17.320   8.631 -0.0486  0.1926  0.0555
   24loPI   C4B  384   9.311  17.286   8.600  0.1194 -0.1053 -0.0248
   25loPI    C1  385   8.524  14.467   9.984  0.1083 -0.1019  0.1569
   25loPI    C2  386   8.216  14.263  10.137  0.0616 -0.0410  0.1444
   25loPI    C3  387   8.399  14.544  10.356  0.0723 -0.0381  0.1317
   25loPI   PO4  388   8.446  14.393   9.744 -0.1119  0.2405  0.3249
   25loPI   GL1  389   8.554  14.553   9.410 -0.0044 -0.2733  0.2036
   25loPI   GL2  390   8.665  14.921   9.248  0.1336 -0.1255  0.2223
   25loPI   C1A  391   8.277  14.320   9.132  0.2648 -0.2690 -0.0085
   25loPI   C2A  392   8.308  14.300   8.687 -0.2069 -0.4316  0.1769
   25loPI   C3A  393   8.414  14.338   8.219 -0.0997  0.1698 -0.0376
   25loPI   C4A  394   8.355  13.975   7.881  0.1998  0.0949 -0.1714
   25loPI   C5A  395   8.379  13.571   7.628  0.0484 -0.0693  0.0670
   25loPI   C6A  396   8.703  13.562   7.258  0.2073  0.0145  0.1540
   25loPI   C1B  397   8.815  14.638   8.964  0.2107  0.3567 -0.4602
   25loPI   C2B  398   8.877  14.465   8.527  0.0386  0.1344  0.0546
   25loPI   C3B  399   9.007  14.507   8.066  0.0850  0.0764  0.1642
   25loPI   C4B  400   9.055  14.555   7.591 -0.1801 -0.0299  0.0644
   26loPI    C1  401   7.057   1.331   9.722  0.0638  0.1146 -0.1067
   26loPI    C2  402   6.814   1.319  10.039 -0.0126 -0.0287 -0.1693
   26loPI    C3  403   7.197   1.428  10.084  0.0672 -0.3748  0.0311
   26loPI   PO4  404   6.868   1.232   9.519 -0.0231  0.2831  0.0355
   26loPI   GL1  405   6.972   1.177   9.056  0.1003 -0.1210  0.0358
   26loPI   GL2  406   7.203   1.196   8.968  0.0231 -0.0430 -0.2177
   26loPI   C1A  407   6.686   1.063   8.714  0.0466 -0.2149  0.1174
   26loPI   C2A  408   6.708   1.080   8.337 -0.2002 -0.1685 -0.1539
   26loPI   C3A  409   6.897   1.206   7.921 -0.0353  0.0242 -0.1102
   26loPI   C4A  410   7.171   1.199   7.528  0.0492  0.0329 -0.2562
   26loPI   C5A  411   7.360   1.175   7.137  0.1067 -0.2095 -0.1716
   26loPI   C6A  412   7.533   1.228   6.739  0.1646 -0.0610 -0.0702
   26loPI   C1B  413   7.121   1.198   8.536 -0.3515 -0.0517  0.0519
   26loPI   C2B  414   7.378   1.009   8.148 -0.2067 -0.0912 -0.0841
   26loPI   C3B  415   7.682   1.145   7.793 -0.3750 -0.1529  0.0314
   26loPI   C4B  416   8.015   1.119   7.649 -0.0712 -0.1047  0.0579
   27loPI    C1  417   7.414  14.322   9.984  0.0366 -0.0017  0.2239
   27loPI    C2  418   7.235  14.666  10.082 -0.0422 -0.0218  0.1524
   27loPI    C3  419   7.258  14.369  10.349 -0.1838 -0.0469  0.1371
   27loPI   PO4  420   7.249  14.286   9.742  0.1663  0.2684 -0.0659
   27loPI   GL1  421   7.530  14.241   9.415  0.0124  0.1774  0.1547
   27loPI   GL2  422   7.371  13.912   9.120 -0.0333  0.3838 -0.0937
   27loPI   C1A  423   7.793  14.193   9.066  0.1835  0.2242  0.4388
   27loPI   C2A  424   7.831  14.128   8.555  0.2769  0.0503 -0.0996
   27loPI   C3A  425   7.938  14.038   8.124 -0.0300  0.0937  0.2627
   27loPI   C4A  426   7.894  13.827   7.741  0.1127 -0.0088 -0.1913
   27loPI   C5A  427   8.028  13.804   7.297 -0.0330  0.3409  0.0138
   27loPI   C6A  428   8.244  13.537   7.028  0.4316 -0.0042  0.0824
   27loPI   C1B  429   7.397  14.307   8.731  0.1589  0.1497  0.2158
   27loPI   C2B  430   7.144  14.523   8.541  0.0875 -0.0579 -0.1353
   27loPI   C3B  431   6.836  14.463   8.189  0.0730 -0.2013 -0.4587
   27loPI   C4B  432   6.876  14.530   7.797 -0.1345  0.5063  0.1761
   28loPI    C1  433   5.736   1.257   9.307 -0.3409  0.2698 -0.0203
   28loPI    C2  434   5.633   0.876   9.239  0.2288  0.0382  0.3423
   28loPI    C3  435   5.682   1.007   9.614  0.2507  0.4125  0.2134
   28loPI   PO4  436   5.958   1.241   9.106  0.2186  0.0493  0.1400
   28loPI   GL1  437   6.125   1.403   8.821 -0.2905 -0.2917 -0.4308
   28loPI   GL2  438   6.027   1.308   8.511  0.0315 -0.0966  0.0113
   28loPI   C1A  439   6.017   1.785   8.679 -0.2940  0.0542 -0.0715
   28loPI   C2A  440   6.052   1.823   8.182  0.0462 -0.0333 -0.1865
   28loPI   C3A  441   6.212   1.861   7.758 -0.0186  0.0512 -0.0221
   28loPI   C4A  442   6.208   2.143   7.427  0.0717 -0.0551  0.3013
   28loPI   C5A  443   6.359   2.016   7.027  0.2291  0.2618 -0.0469
   28loPI   C6A  444   6.438   2.333   6.829  0.1254 -0.0218  0.1401
   28loPI   C1B  445   5.827   1.002   8.323 -0.0302  0.2405 -0.2965
   28loPI   C2B  446   5.826   0.853   7.863  0.1984  0.4097 -0.1949
   28loPI   C3B  447   5.592   0.703   7.487  0.1483 -0.0334  0.2007
   28loPI   C4B  448   5.538   0.334   7.228 -0.5597  0.3941  0.0442
   29loPI    C1  449  10.458  19.362   9.907  0.1699  0.1496 -0.2763
   29loPI    C2  450  10.707  19.591  10.121  0.0761 -0.0489  0.0515
   29loPI    C3  451  10.318  19.684  10.098  0.0540 -0.1247  0.1127
   29loPI   PO4  452  10.488  19.203   9.654  0.0656 -0.0426 -0.0505
   29loPI   GL1  453  10.335  19.226   9.137  0.0776  0.1835  0.1109
   29loPI   GL2  454  10.690  19.022   9.145  0.1237  0.1883 -0.1320
   29loPI   C1A  455  10.620  19.213   8.667 -0.1922  0.3453  0.4107
   29loPI   C2A  456  10.644  18.981   8.262  0.4845 -0.0634 -0.2764
   29loPI   C3A  457  10.677  19.037   7.829  0.0249  0.0510  0.2216
   29loPI   C4A  458  10.331  18.970   7.552  0.1461 -0.0137 -0.2279
   29loPI   C5A  459   9.981  18.720   7.495 -0.2129 -0.1475  0.2265
   29loPI   C6A  460  10.209  18.278   7.338  0.1938 -0.2137  0.0458
   29loPI   C1B  461  10.460  18.740   8.840 -0.0318  0.2489  0.2582
   29loPI   C2B  462  10.432  18.532   8.500  0.0243 -0.0277  0.1087
   29loPI   C3B  463  10.385  18.500   8.011 -0.2723  0.2160  0.0571
   29loPI   C4B  464  10.094  18.380   7.781  0.0039  0.0443 -0.1657
   30loPI    C1  465  13.934   1.008   9.062 -0.0507 -0.0836 -0.0137
   30loPI    C2  466  13.639   0.969   9.329 -0.0611  0.0787 -0.0003
   30loPI    C3  467  13.875   1.292   9.337 -0.0433  0.0707 -0.1697
   30loPI   PO4  468  13.753   0.944   8.860  0.1511 -0.0185  0.2019
   30loPI   GL1  469  13.583   0.818   8.562  0.0914  0.0032  0.0142
   30loPI   GL2  470  13.347   0.659   8.360 -0.0026  0.0603  0.3509
   30loPI   C1A  471  13.801   0.674   8.169  0.2422  0.1323 -0.2759
   30loPI   C2A  472  13.945   0.764   7.788 -0.1365 -0.0263 -0.1581
   30loPI   C3A  473  13.981   0.536   7.345 -0.0763 -0.0431 -0.0671
   30loPI   C4A  474  14.037   0.533   6.895  0.2167  0.2143 -0.1768
   30loPI   C5A  475  13.936   0.520   6.374 -0.0396  0.1200 -0.0948
   30loPI   C6A  476  14.164   0.651   6.058  0.0093 -0.1154  0.1754
   30loPI   C1B  477  13.353   0.686   8.012  0.0899  0.1296  0.1855
   30loPI   C2B  478  13.569   0.737   7.488  0.3870  0.1084  0.2501
   30loPI   C3B  479  13.556   0.825   7.091 -0.1236  0.0386 -0.0305
   30loPI   C4B  480  13.529   0.673   6.737  0.0729  0.2054  0.2266
   31loPI    C1  481  11.187   1.009   9.899 -0.0300  0.1744 -0.2617
   31loPI    C2  482  11.373   1.318  10.073 -0.0278 -0.1078  0.2546
   31loPI    C3  483  10.974   1.315  10.044 -0.0199  0.0015  0.1314
   31loPI   PO4  484  11.379   0.916   9.693  0.3810 -0.1883 -0.2374
   31loPI   GL1  485  11.398   0.820   9.204 -0.2631 -0.1942  0.0116
   31loPI   GL2  486  11.284   1.134   9.252 -0.2548  0.1609  0.2918
   31loPI   C1A  487  11.140   0.788   8.828  0.1134 -0.1859 -0.1373
   31loPI   C2A  488  10.745   1.007   8.623 -0.2514  0.0984  0.2361
   31loPI   C3A  489  10.689   1.188   8.279 -0.0922 -0.0473 -0.4295
   31loPI   C4A  490  10.702   1.116   7.787 -0.0595  0.0804  0.4222
   31loPI   C5A  491  10.584   1.310   7.382 -0.1882 -0.2489  0.1497
   31loPI   C6A  492  10.824   1.359   7.024  0.1645  0.3295 -0.2596
   31loPI   C1B  493  11.242   1.310   8.917 -0.2836 -0.2084  0.0390
   31loPI   C2B  494  11.235   1.221   8.450 -0.1189 -0.1294  0.1159
   31loPI   C3B  495  11.147   0.807   8.310 -0.0801  0.1932 -0.0029
   31loPI   C4B  496  10.871   0.471   8.326 -0.0191 -0.2367 -0.6422
   32loPI    C1  497  14.331  19.060   9.557  0.2524 -0.1111 -0.0316
   32loPI    C2  498  14.134  18.840   9.827  0.3005 -0.0742  0.0336
   32loPI    C3  499  14.060  19.232   9.796 -0.0265 -0.1572 -0.3081
   32loPI   PO4  500  14.280  19.005   9.251  0.1678  0.0853  0.0416
   32loPI   GL1  501  14.498  19.113   8.866  0.2031  0.1590  0.0725
   32loPI   GL2  502  14.845  19.118   8.850  0.3278 -0.1336 -0.1399
   32loPI   C1A  503  14.565  19.317   8.416 -0.3054 -0.0844 -0.0135
   32loPI   C2A  504  14.748  19.541   8.132 -0.1402  0.0346 -0.0141
   32loPI   C3A  505  14.790  19.799   7.707 -0.1279  0.2404 -0.0121
   32loPI   C4A  506  14.786  19.746   7.247 -0.0376  0.0858 -0.2319
   32loPI   C5A  507  14.864  19.899   6.842  0.1447 -0.1899  0.2021
   32loPI   C6A  508  15.299  19.822   6.643  0.1035  0.1078 -0.0842
   32loPI   C1B  509  14.755  18.907   8.505 -0.4359 -0.2239 -0.0925
   32loPI   C2B  510  14.939  19.034   8.131 -0.2574  0.1142  0.4614
   32loPI   C3B  511  15.287  18.890   7.875  0.1943 -0.3422  0.2114
   32loPI   C4B  512  15.423  18.714   7.389 -0.1479  0.1608 -0.0269
   33loPI    C1  513  18.432   6.300   9.735  0.0635 -0.2430 -0.3362
   33loPI    C2  514  18.141   6.108   9.929  0.0503  0.0328 -0.0755
   33loPI    C3  515  18.519   5.982   9.960  0.0054 -0.1198 -0.1375
   33loPI   PO4  516  18.340   6.257   9.489 -0.1829 -0.1644  0.1847
   33loPI   GL1  517  18.380   6.094   9.052 -0.1558 -0.0237  0.1606
   33loPI   GL2  518  18.117   6.274   9.035 -0.0591 -0.0051 -0.0609
   33loPI   C1A  519  18.591   5.905   8.744  0.1910 -0.1184 -0.0278
   33loPI   C2A  520  18.594   6.043   8.363 -0.2459  0.1046 -0.0085
   33loPI   C3A  521  18.270   6.150   8.055 -0.1041 -0.1602 -0.0722
   33loPI   C4A  522  18.072   6.041   7.653  0.0319  0.0114 -0.2529
   33loPI   C5A  523  18.319   5.703   7.361 -0.0269 -0.3195  0.0345
   33loPI   C6A  524  18.648   5.811   6.974 -0.1566  0.3626  0.0705
   33loPI   C1B  525  18.170   6.411   8.577  0.2461  0.1720  0.2140
   33loPI   C2B  526  18.230   6.672   8.166  0.1109 -0.0173  0.1572
   33loPI   C3B  527  17.906   6.799   7.894 -0.1062  0.0166  0.0035
   33loPI   C4B  528  17.827   6.748   7.338 -0.0617  0.0550  0.1028
   34loPI    C1  529   4.089   4.601   9.708  0.0779  0.2110 -0.0365
   34loPI    C2  530   4.000   4.311   9.968 -0.0192  0.0395 -0.2570
   34loPI    C3  531   3.937   4.694  10.066  0.0667 -0.0142  0.0187
   34loPI   PO4  532   3.970   4.508   9.534  0.2611 -0.2282  0.0080
   34loPI   GL1  533   3.787   4.656   9.177  0.0333 -0.1373  0.1565
   34loPI   GL2  534   4.165   4.819   9.130 -0.2510  0.4231 -0.2832
   34loPI   C1A  535   3.870   5.052   8.872  0.0183 -0.0277  0.3973
   34loPI   C2A  536   4.160   4.834   8.588 -0.0077  0.0466 -0.0140
   34loPI   C3A  537   4.305   4.401   8.393  0.0588  0.0893  0.1714
   34loPI   C4A  538   4.458   4.099   8.081 -0.1881 -0.0893 -0.0127
   34loPI   C5A  539   4.287   3.997   7.670 -0.2084  0.0786 -0.0221
   34loPI   C6A  540   3.763   3.969   7.688  0.2464  0.0029 -0.0793
   34loPI   C1B  541   4.557   4.863   8.885 -0.0403  0.0144 -0.2358
   34loPI   C2B  542   4.649   4.717   8.509 -0.1196  0.3530 -0.1468
   34loPI   C3B  543   4.814   4.583   8.061  0.3224  0.1013 -0.2090
   34loPI   C4B  544   4.959   4.194   8.070 -0.2505 -0.1608  0.1382
   35loPI    C1  545   8.685  18.236   9.847 -0.0666  0.1562  0.0926
   35loPI    C2  546   8.531  18.047  10.165  0.0883 -0.2420 -0.0625
   35loPI    C3  547   8.928  18.083  10.126  0.0618  0.1124 -0.0421
   35loPI   PO4  548   8.554  18.113   9.638  0.0201 -0.0988 -0.1150
   35loPI   GL1  549   8.374  18.373   9.179  0.0708 -0.1643 -0.1332
   35loPI   GL2  550   8.111  18.455   9.046  0.3707  0.2280 -0.0545
   35loPI   C1A  551   8.684  18.487   8.919 -0.1752 -0.0101 -0.0065
   35loPI   C2A  552   8.663  18.829   8.721  0.0963 -0.3185 -0.1061
   35loPI   C3A  553   9.049  19.053   8.642 -0.2200 -0.1211  0.3966
   35loPI   C4A  554   9.282  19.556   8.410  0.1392  0.1877 -0.1155
   35loPI   C5A  555   9.474  19.805   8.094  0.0612  0.0436 -0.0319
   35loPI   C6A  556   9.251  19.739   7.699 -0.4663  0.4597 -0.1223
   35loPI   C1B  557   8.230  18.524   8.680  0.2419  0.1215 -0.1254
   35loPI   C2B  558   8.286  18.687   8.311  0.1098  0.1482 -0.1994
   35loPI   C3B  559   8.406  18.912   7.889 -0.1164 -0.0188 -0.1085
   35loPI   C4B  560   8.911  18.895   7.696  0.0600  0.0709 -0.3555
   36loPI    C1  561  10.382  16.830   9.996  0.1224  0.2055  0.0217
   36loPI    C2  562  10.432  16.765  10.388 -0.0493  0.0454  0.0188
   36loPI    C3  563  10.705  16.634  10.126 -0.0744 -0.0986  0.0639
   36loPI   PO4  564  10.140  16.789   9.924 -0.0347  0.0433  0.0071
   36loPI   GL1  565   9.976  16.659   9.562  0.2783 -0.1405  0.3719
   36loPI   GL2  566   9.859  16.910   9.451  0.3281 -0.1645 -0.0200
   36loPI   C1A  567  10.052  16.474   9.115 -0.1150 -0.0589 -0.0783
   36loPI   C2A  568  10.371  16.377   8.759 -0.5757  0.2845 -0.0444
   36loPI   C3A  569  10.501  16.203   8.373  0.1738 -0.2885  0.0167
   36loPI   C4A  570  10.572  16.103   7.869 -0.0798  0.1236 -0.0467
   36loPI   C5A  571  10.572  15.565   7.703  0.1104 -0.1142 -0.1343
   36loPI   C6A  572  10.574  15.156   7.540 -0.0077 -0.0955 -0.1193
   36loPI   C1B  573   9.890  16.960   9.044 -0.0643 -0.2712  0.1621
   36loPI   C2B  574  10.015  16.797   8.651  0.2647  0.0426 -0.0031
   36loPI   C3B  575  10.236  16.606   8.263 -0.1051  0.1921  0.1508
   36loPI   C4B  576  10.163  16.362   7.962 -0.2924  0.0819  0.1843
   37loPI    C1  577  13.349   7.150   9.764  0.3181  0.0354 -0.2384
   37loPI    C2  578  13.535   6.865   9.974  0.3024 -0.0311 -0.3142
   37loPI    C3  579  13.606   7.250  10.054  0.1902 -0.0549 -0.0921
   37loPI   PO4  580  13.419   7.103   9.510  0.3113  0.0415  0.1403
   37loPI   GL1  581  13.361   7.321   9.098 -0.2675  0.1247  0.1995
   37loPI   GL2  582  13.556   7.677   9.158  0.0132  0.0833  0.0312
   37loPI   C1A  583  13.524   7.255   8.654 -0.0616  0.5116  0.1304
   37loPI   C2A  584  13.552   7.183   8.213  0.0092  0.0047 -0.0148
   37loPI   C3A  585  13.527   7.272   7.866 -0.2069  0.2204 -0.1392
   37loPI   C4A  586  13.642   7.615   7.635  0.0902 -0.0413  0.0262
   37loPI   C5A  587  13.782   7.620   7.223 -0.1679 -0.0991 -0.3032
   37loPI   C6A  588  14.231   7.722   7.013  0.0201  0.1429 -0.2246
   37loPI   C1B  589  13.769   7.758   8.724  0.3926 -0.3844  0.0371
   37loPI   C2B  590  14.102   7.981   8.324  0.0512  0.0523  0.2827
   37loPI   C3B  591  14.319   8.103   7.923  0.0415  0.0330  0.2276
   37loPI   C4B  592  14.544   7.942   7.543  0.2672 -0.1221  0.5716
   38loPI    C1  593  10.823  10.786   9.955  0.1189  0.0617 -0.1442
   38loPI    C2  594  11.196  10.796   9.811  0.1527 -0.1439 -0.0734
   38loPI    C3  595  11.094  11.031  10.118  0.1693  0.0559 -0.2194
   38loPI   PO4  596  10.699  10.688   9.731  0.0695 -0.1956 -0.0479
   38loPI   GL1  597  10.928  11.132   9.503 -0.2906 -0.2800 -0.2406
   38loPI   GL2  598  10.582  11.029   9.385  0.2259 -0.2195 -0.0004
   38loPI   C1A  599  11.123  10.973   9.247 -0.2284  0.1703  0.0634
   38loPI   C2A  600  11.169  10.782   8.818 -0.0221  0.0624  0.0236
   38loPI   C3A  601  11.143  10.483   8.484 -0.4423 -0.1677 -0.4361
   38loPI   C4A  602  11.306  10.368   8.046  0.0441  0.1094  0.0993
   38loPI   C5A  603  11.280  10.243   7.697  0.1687 -0.1553 -0.1153
   38loPI   C6A  604  11.119  10.465   7.327 -0.2358 -0.4674  0.1828
   38loPI   C1B  605  10.640  10.932   8.909 -0.2894  0.2600 -0.0633
   38loPI   C2B  606  10.590  10.833   8.523 -0.3308 -0.1039  0.1274
   38loPI   C3B  607  10.547  10.891   8.058  0.1542 -0.4072 -0.0519
   38loPI   C4B  608  10.461  10.895   7.631 -0.2915  0.3079  0.0074
   39loPI    C1  609   9.906   7.856   9.773 -0.2463  0.3153  0.1624
   39loPI    C2  610  10.100   7.922  10.117 -0.0717  0.0104  0.1266
   39loPI    C3  611   9.901   7.580  10.062  0.0859 -0.0386 -0.1578
   39loPI   PO4  612   9.749   8.021   9.746  0.2624 -0.3794 -0.1412
   39loPI   GL1  613   9.664   8.231   9.343 -0.1337 -0.1284  0.0721
   39loPI   GL2  614   9.906   8.397   9.400  0.3777  0.0495 -0.0119
   39loPI   C1A  615   9.805   8.049   8.948 -0.5471  0.0240  0.0675
   39loPI   C2A  616   9.727   8.294   8.547  0.0413 -0.0917 -0.0624
   39loPI   C3A  617   9.861   8.684   8.269  0.0546  0.1210 -0.3068
   39loPI   C4A  618  10.101   8.742   7.816  0.2178  0.1620 -0.2163
   39loPI   C5A  619   9.994   9.061   7.470 -0.0373 -0.0551 -0.1114
   39loPI   C6A  620   9.709   9.149   7.087  0.0403 -0.4123  0.1295
   39loPI   C1B  621   9.835   8.641   8.945  0.1326  0.0141 -0.1425
   39loPI   C2B  622   9.772   8.893   8.694  0.0983 -0.4446 -0.0178
   39loPI   C3B  623   9.526   9.022   8.439  0.1303  0.1292  0.0802
   39loPI   C4B  624   9.176   8.808   8.398  0.0341 -0.4387 -0.2512
   40loPI    C1  625  18.121   3.123   9.569  0.2414 -0.0186  0.1017
   40loPI    C2  626  18.128   2.872   9.880  0.2173 -0.0376  0.0869
   40loPI    C3  627  18.141   3.267   9.942  0.3821 -0.0452  0.1051
   40loPI   PO4  628  17.954   3.060   9.410 -0.1824 -0.1513 -0.1434
   40loPI   GL1  629  18.096   3.193   8.965  0.1146  0.0017  0.0356
   40loPI   GL2  630  18.222   3.418   9.088 -0.1066 -0.0230  0.3245
   40loPI   C1A  631  17.980   2.843   8.672  0.0649  0.2020  0.2533
   40loPI   C2A  632  17.798   2.628   8.349  0.1613 -0.0427 -0.0511
   40loPI   C3A  633  17.490   2.529   8.035 -0.0621 -0.1105 -0.2136
   40loPI   C4A  634  17.531   2.602   7.534 -0.0461 -0.0335  0.0813
   40loPI   C5A  635  17.350   2.544   7.112 -0.1757 -0.1532 -0.1385
   40loPI   C6A  636  17.331   2.386   6.709  0.1751 -0.0409 -0.1208
   40loPI   C1B  637  17.923   3.497   8.681 -0.1209 -0.1086 -0.2015
   40loPI   C2B  638  17.833   3.610   8.292 -0.1464  0.2358  0.0034
   40loPI   C3B  639  18.121   3.418   7.959  0.1860 -0.0875  0.3455
   40loPI   C4B  640  18.542   3.386   7.735  0.0047 -0.0716 -0.0097
   41loPI    C1  641  12.027   7.094   9.603 -0.1885 -0.0727  0.1869
   41loPI    C2  642  11.760   7.293   9.823 -0.0021 -0.0645  0.4092
   41loPI    C3  643  12.151   7.333   9.899  0.0726  0.0314 -0.0017
   41loPI   PO4  644  11.902   7.013   9.418  0.2266  0.0671 -0.0486
   41loPI   GL1  645  11.778   7.099   9.088  0.1316 -0.0275  0.0866
   41loPI   GL2  646  11.940   7.007   8.802 -0.0861  0.2939 -0.0412
   41loPI   C1A  647  11.652   7.441   8.783 -0.2080  0.0906 -0.0450
   41loPI   C2A  648  11.690   7.538   8.396  0.1885 -0.0802  0.2386
   41loPI   C3A  649  11.846   7.986   8.238 -0.2687  0.4685  0.0937
   41loPI   C4A  650  11.938   8.062   7.791  0.0831 -0.3444 -0.0362
   41loPI   C5A  651  12.099   8.369   7.511 -0.0573 -0.1285 -0.2768
   41loPI   C6A  652  12.185   8.697   7.273 -0.0379  0.1691  0.3247
   41loPI   C1B  653  12.126   7.312   8.530 -0.1481 -0.2318 -0.2262
   41loPI   C2B  654  12.192   7.492   8.083  0.3213 -0.1167 -0.1085
   41loPI   C3B  655  12.206   7.572   7.676 -0.0073  0.0780  0.1836
   41loPI   C4B  656  12.273   7.452   7.269  0.0998  0.1722  0.0238
   42loPI    C1  657  13.874   9.506   9.758 -0.0878  0.0771 -0.2613
   42loPI    C2  658  13.524   9.422   9.584 -0.2734  0.3185 -0.0130
   42loPI    C3  659  13.534   9.648   9.914  0.1009  0.1448  0.0998
   42loPI   PO4  660  14.089   9.648   9.561 -0.1588 -0.0901  0.0648
   42loPI   GL1  661  14.110   9.597   9.036  0.2698  0.0800 -0.3112
   42loPI   GL2  662  14.144   9.935   9.148  0.1954 -0.1516 -0.3201
   42loPI   C1A  663  13.899   9.431   8.648  0.0268  0.0781 -0.1826
   42loPI   C2A  664  13.760   9.470   8.227  0.2867  0.0343 -0.0474
   42loPI   C3A  665  13.894   9.641   7.917 -0.0377 -0.3336  0.2101
   42loPI   C4A  666  14.056  10.087   7.722 -0.3448  0.3233  0.0506
   42loPI   C5A  667  13.907  10.364   7.586 -0.1104  0.0836 -0.2591
   42loPI   C6A  668  13.595  10.677   7.530 -0.1777 -0.0224 -0.1714
   42loPI   C1B  669  14.013   9.920   8.613 -0.1069  0.1847  0.1945
   42loPI   C2B  670  13.890   9.966   8.278 -0.1756  0.1651 -0.0138
   42loPI   C3B  671  13.552   9.976   8.093 -0.4994 -0.0107 -0.2386
   42loPI   C4B  672  13.383  10.199   7.718 -0.1780 -0.0311  0.1786
   43loPI    C1  673  18.103  16.545   9.559  0.0150  0.0212  0.0465
   43loPI    C2  674  17.733  16.481   9.697  0.0199 -0.0121  0.0443
   43loPI    C3  675  18.033  16.242   9.810  0.0015 -0.1135 -0.1180
   43loPI   PO4  676  18.133  16.514   9.319 -0.1954 -0.1728 -0.3075
   43loPI   GL1  677  18.313  16.695   8.977  0.0793 -0.2152 -0.1389
   43loPI   GL2  678  17.979  16.834   8.942 -0.0971  0.0152  0.2237
   43loPI   C1A  679  18.373  16.741   8.547 -0.1230 -0.0212 -0.0163
   43loPI   C2A  680  18.260  16.687   8.171 -0.1534  0.0925 -0.1490
   43loPI   C3A  681  18.577  16.811   7.889 -0.2168  0.1520 -0.3032
   43loPI   C4A  682  18.676  17.188   7.729 -0.0081 -0.1101  0.3749
   43loPI   C5A  683  18.419  17.234   7.438 -0.0027 -0.0825 -0.1541
   43loPI   C6A  684  18.321  17.302   6.961 -0.0919  0.0746  0.0975
   43loPI   C1B  685  17.876  16.736   8.458  0.0421  0.0926  0.1214
   43loPI   C2B  686  17.465  16.660   8.178  0.0913  0.3356 -0.0483
   43loPI   C3B  687  17.073  16.631   7.906 -0.0344 -0.0727 -0.1777
   43loPI   C4B  688  16.921  16.708   7.415 -0.2419  0.1914  0.1189
   44loPI    C1  689   6.849   3.047   9.948  0.1918  0.3283  0.0046
   44loPI    C2  690   7.125   2.768   9.870 -0.1404  0.0006 -0.0229
   44loPI    C3  691   6.897   2.738  10.197 -0.2066  0.2193 -0.0473
   44loPI   PO4  692   6.862   3.236   9.696 -0.0099 -0.2434  0.1791
   44loPI   GL1  693   7.023   3.211   9.244  0.1522 -0.0541 -0.1768
   44loPI   GL2  694   7.292   3.035   9.131 -0.1070  0.1029  0.2261
   44loPI   C1A  695   6.774   3.176   8.943 -0.1401  0.4278  0.2442
   44loPI   C2A  696   6.843   3.403   8.539 -0.3993  0.2351 -0.1267
   44loPI   C3A  697   6.685   3.474   8.063 -0.0929  0.1168  0.1961
   44loPI   C4A  698   6.620   3.702   7.642  0.1700  0.0981  0.2809
   44loPI   C5A  699   6.762   3.963   7.328  0.2628 -0.0787  0.1285
   44loPI   C6A  700   7.107   3.886   7.208  0.2564 -0.4815  0.1549
   44loPI   C1B  701   7.287   3.178   8.672 -0.3198 -0.2020 -0.4166
   44loPI   C2B  702   7.256   3.168   8.226  0.2513  0.0272  0.2937
   44loPI   C3B  703   7.194   3.158   7.734 -0.2061 -0.1047  0.2254
   44loPI   C4B  704   7.176   2.894   7.402  0.2348 -0.2641  0.2520
   45loPI    C1  705  13.392  13.480   9.817 -0.0869  0.1626  0.0224
   45loPI    C2  706  13.615  13.515   9.487 -0.1862  0.1653 -0.0446
   45loPI    C3  707  13.750  13.658   9.835 -0.0352  0.0685 -0.0622
   45loPI   PO4  708  13.136  13.497   9.598  0.0752  0.1900  0.0521
   45loPI   GL1  709  13.149  13.308   9.186  0.0230  0.2039  0.2248
   45loPI   GL2  710  13.407  13.340   9.015 -0.1428  0.1237  0.0951
   45loPI   C1A  711  13.076  13.150   8.718  0.1037  0.1072  0.0081
   45loPI   C2A  712  12.945  13.028   8.245  0.0134  0.4864 -0.0103
   45loPI   C3A  713  12.935  12.767   7.870 -0.1135 -0.0068 -0.2413
   45loPI   C4A  714  12.826  12.571   7.336 -0.1420 -0.1198 -0.3020
   45loPI   C5A  715  12.572  12.657   7.026 -0.0286  0.1472  0.0602
   45loPI   C6A  716  12.181  12.882   7.125  0.1428  0.3027 -0.0678
   45loPI   C1B  717  13.666  13.386   8.683 -0.2328 -0.1025  0.2168
   45loPI   C2B  718  13.662  13.461   8.270  0.0288 -0.3895 -0.3153
   45loPI   C3B  719  13.605  13.581   7.923 -0.2450  0.1980 -0.0517
   45loPI   C4B  720  13.560  13.599   7.557  0.0096  0.0722  0.2044
   46loPI    C1  721  19.375   4.446  10.050 -0.1000  0.0528 -0.1619
   46loPI    C2  722  19.629   4.227  10.268 -0.0352  0.2393 -0.0469
   46loPI    C3  723  19.235   4.163  10.295 -0.0124  0.0824 -0.0769
   46loPI   PO4  724  19.451   4.416   9.807 -0.2925  0.0414  0.1198
   46loPI   GL1  725  19.589   4.433   9.388  0.2722  0.0136  0.1674
   46loPI   GL2  726  19.148   4.464   9.349 -0.1122  0.1876 -0.5533
   46loPI   C1A  727  19.524   4.618   9.009 -0.4384 -0.3608 -0.0673
   46loPI   C2A  728  19.511   4.506   8.667 -0.0994 -0.0940  0.0214
   46loPI   C3A  729  19.394   4.576   8.268  0.1853 -0.4014 -0.2692
   46loPI   C4A  730  19.564   4.430   7.913  0.1284  0.0433  0.0565
   46loPI   C5A  731  19.897   4.384   7.688 -0.0590  0.1323 -0.0898
   46loPI   C6A  732  20.165   4.412   7.185  0.4526  0.1963  0.0729
   46loPI   C1B  733  19.024   4.742   9.056  0.4271  0.2534  0.0175
   46loPI   C2B  734  18.955   4.631   8.625  0.1089  0.0123  0.0993
   46loPI   C3B  735  18.963   4.727   8.186  0.0666 -0.0553 -0.0559
   46loPI   C4B  736  19.148   4.675   7.734  0.0735  0.0091  0.0117
   47loPI    C1  737   8.518   9.057  10.151 -0.0418  0.4296 -0.3123
   47loPI    C2  738   8.897   8.980  10.253 -0.0875  0.3773 -0.1809
   47loPI    C3  739   8.677   9.231  10.474 -0.2479  0.1128 -0.0330
   47loPI   PO4  740   8.480   8.782   9.969  0.1597 -0.0870  0.0984
   47loPI   GL1  741   8.517   8.897   9.475 -0.0323  0.0613 -0.1243
   47loPI   GL2  742   8.528   8.550   9.530 -0.0409 -0.1424 -0.1544
   47loPI   C1A  743   8.479   8.905   9.112 -0.3163  0.1535  0.1381
   47loPI   C2A  744   8.463   8.897   8.721  0.0338 -0.0733 -0.0575
   47loPI   C3A  745   8.757   8.949   8.391  0.3951 -0.1414  0.0183
   47loPI   C4A  746   8.692   9.072   8.005  0.1435  0.5228  0.1182
   47loPI   C5A  747   8.889   9.331   7.738 -0.0511  0.0449  0.2580
   47loPI   C6A  748   9.218   9.474   7.390 -0.0459  0.2560 -0.1572
   47loPI   C1B  749   8.278   8.458   9.235  0.0930  0.1851  0.0483
   47loPI   C2B  750   8.249   8.459   8.807  0.0865 -0.0119  0.3941
   47loPI   C3B  751   8.098   8.684   8.403 -0.2082 -0.0347  0.2057
   47loPI   C4B  752   7.737   8.729   8.583  0.0167 -0.0732  0.0014
   48loPI    C1  753  18.991   3.722  10.017  0.0117 -0.0507 -0.1453
   48loPI    C2  754  18.623   3.633  10.147  0.0481 -0.0343 -0.0291
   48loPI    C3  755  18.755   4.010  10.163  0.1029 -0.0551  0.0142
   48loPI   PO4  756  18.937   3.706   9.671  0.0989 -0.1104 -0.1894
   48loPI   GL1  757  19.030   3.902   9.382  0.1191  0.0702 -0.0433
   48loPI   GL2  758  18.788   3.766   9.165 -0.0139 -0.2199  0.0701
   48loPI   C1A  759  19.266   4.144   8.968  0.0637  0.0705  0.4502
   48loPI   C2A  760  19.061   4.144   8.532 -0.1578  0.1657 -0.2914
   48loPI   C3A  761  19.092   4.177   8.146 -0.0740  0.2060 -0.1423
   48loPI   C4A  762  19.212   4.181   7.681  0.1148 -0.1410 -0.0777
   48loPI   C5A  763  19.084   4.013   7.367 -0.1486 -0.0029  0.1089
   48loPI   C6A  764  19.208   3.882   6.994 -0.1834  0.1619  0.0337
   48loPI   C1B  765  18.890   3.685   8.731  0.0003  0.2083 -0.1393
   48loPI   C2B  766  18.771   3.759   8.323  0.2182 -0.0069 -0.1486
   48loPI   C3B  767  18.853   3.919   7.798  0.0837 -0.0603  0.1758
   48loPI   C4B  768  18.652   3.824   7.480 -0.1330 -0.2097 -0.3197
   49loPI    C1  769  11.454   2.507   9.341  0.0874  0.0008 -0.1461
   49loPI    C2  770  11.317   2.192   9.135 -0.0632  0.0580 -0.1348
   49loPI    C3  771  11.180   2.264   9.504 -0.0825  0.1775 -0.1650
   49loPI   PO4  772  11.470   2.668   9.118 -0.1209 -0.0886  0.0137
   49loPI   GL1  773  11.703   2.726   8.833  0.3128 -0.0603  0.1462
   49loPI   GL2  774  11.792   3.026   8.700 -0.1971  0.1246 -0.0668
   49loPI   C1A  775  11.673   2.615   8.408  0.1914 -0.0467  0.0062
   49loPI   C2A  776  11.611   2.493   7.969 -0.1110  0.0098  0.1162
   49loPI   C3A  777  11.594   2.695   7.683 -0.0745 -0.3938  0.1331
   49loPI   C4A  778  11.186   2.813   7.358  0.0801  0.2180 -0.2183
   49loPI   C5A  779  11.033   3.134   6.985 -0.0956  0.1512  0.1685
   49loPI   C6A  780  10.579   3.154   6.795  0.1383  0.2186 -0.2205
   49loPI   C1B  781  11.871   3.088   8.295  0.0724  0.3209 -0.1889
   49loPI   C2B  782  11.969   3.186   7.877  0.2951  0.0737  0.0162
   49loPI   C3B  783  11.782   3.095   7.476 -0.1146  0.0419  0.2423
   49loPI   C4B  784  11.981   2.700   7.269 -0.0738  0.1755  0.0105
   50loPI    C1  785  12.580  19.467   9.551  0.0349  0.0352 -0.0497
   50loPI    C2  786  12.285  19.699   9.687  0.0808  0.0818 -0.0292
   50loPI    C3  787  12.581  19.589   9.932  0.1431  0.1339 -0.0808
   50loPI   PO4  788  12.575  19.372   9.347 -0.0690 -0.2596 -0.1191
   50loPI   GL1  789  12.682  19.307   8.937  0.2355  0.0973 -0.1288
   50loPI   GL2  790  12.911  19.135   9.040 -0.2540 -0.0897  0.0557
   50loPI   C1A  791  12.863  19.136   8.581  0.2366 -0.1345  0.0458
   50loPI   C2A  792  12.739  19.064   8.201 -0.2864 -0.0276 -0.1841
   50loPI   C3A  793  12.889  19.149   7.759  0.2405  0.3457  0.3488
   50loPI   C4A  794  12.879  19.443   7.355 -0.1277  0.3614 -0.2387
   50loPI   C5A  795  12.590  19.730   7.067  0.0125 -0.2837 -0.0355
   50loPI   C6A  796  12.510  20.017   6.788  0.1802 -0.4592 -0.1000
   50loPI   C1B  797  12.629  18.753   8.792  0.1220  0.1003  0.3016
   50loPI   C2B  798  12.521  18.693   8.417  0.0386 -0.1110  0.1733
   50loPI   C3B  799  12.595  18.678   7.971 -0.0144  0.2905  0.1567
   50loPI   C4B  800  12.682  18.777   7.448  0.0505 -0.2710 -0.3204
   51loPI    C1  801  15.176   1.973   9.379  0.1334  0.0524  0.3046
   51loPI    C2  802  15.541   1.811   9.361  0.0846 -0.0260 -0.0527
   51loPI    C3  803  15.263   1.650   9.599  0.2508 -0.0272  0.1438
   51loPI   PO4  804  15.148   2.066   9.126  0.2096 -0.1922 -0.0121
   51loPI   GL1  805  15.330   1.876   8.702  0.1614  0.4168  0.0350
   51loPI   GL2  806  15.505   1.655   8.847 -0.2130 -0.1174  0.0057
   51loPI   C1A  807  15.072   2.081   8.362 -0.1537  0.0822 -0.2837
   51loPI   C2A  808  15.145   1.934   7.930  0.0607 -0.2480  0.1543
   51loPI   C3A  809  15.342   1.727   7.579 -0.1217  0.0558  0.0364
   51loPI   C4A  810  15.202   1.401   7.349 -0.3707 -0.1197  0.0354
   51loPI   C5A  811  15.467   1.179   7.161  0.0096  0.1748  0.1774
   51loPI   C6A  812  15.668   1.417   6.767 -0.2250  0.2275  0.1413
   51loPI   C1B  813  15.469   1.514   8.436  0.1463  0.0818 -0.1582
   51loPI   C2B  814  15.551   1.565   7.979  0.1530  0.2191  0.0049
   51loPI   C3B  815  15.801   1.528   7.536 -0.1000 -0.1349 -0.0903
   51loPI   C4B  816  15.843   1.912   7.268  0.2058 -0.0172 -0.1777
   52loPI    C1  817  14.250   7.574   9.533 -0.0653  0.0621  0.1229
   52loPI    C2  818  14.295   7.927   9.717 -0.1818  0.0136  0.2461
   52loPI    C3  819  14.148   7.614   9.918  0.4192 -0.2510  0.2933
   52loPI   PO4  820  14.139   7.668   9.287 -0.1290 -0.1265  0.1635
   52loPI   GL1  821  14.290   7.780   8.885 -0.1112 -0.1356  0.1165
   52loPI   GL2  822  14.537   8.047   8.734  0.1513 -0.4394  0.0616
   52loPI   C1A  823  14.377   7.623   8.528 -0.2402  0.1917 -0.0262
   52loPI   C2A  824  14.266   7.582   8.050 -0.0767 -0.0483 -0.0641
   52loPI   C3A  825  14.163   7.611   7.690  0.0176 -0.2595 -0.1868
   52loPI   C4A  826  14.230   7.326   7.381 -0.0122 -0.0878  0.0279
   52loPI   C5A  827  14.430   7.181   7.010 -0.0339  0.0716  0.0304
   52loPI   C6A  828  14.537   7.100   6.637 -0.2282 -0.1742 -0.1533
   52loPI   C1B  829  14.645   8.187   8.297  0.1475  0.1530  0.2398
   52loPI   C2B  830  14.853   8.302   7.874 -0.3747 -0.0777 -0.0902
   52loPI   C3B  831  14.875   8.381   7.384 -0.0938 -0.3783 -0.1030
   52loPI   C4B  832  14.885   8.613   7.023 -0.2797  0.2791  0.3061
   53loPI    C1  833   8.295   0.945   9.341  0.0070 -0.2048 -0.0528
   53loPI    C2  834   8.317   0.693   9.651  0.0555 -0.0649  0.0587
   53loPI    C3  835   8.020   0.959   9.631 -0.0960 -0.2461 -0.1479
   53loPI   PO4  836   8.317   0.780   9.129  0.1059  0.1922  0.1684
   53loPI   GL1  837   8.199   0.594   8.748  0.2397  0.1450  0.1669
   53loPI   GL2  838   7.910   0.441   8.698  0.1533 -0.0842  0.0641
   53loPI   C1A  839   8.321   0.773   8.339  0.1391  0.2146  0.2384
   53loPI   C2A  840   8.373   0.856   7.891 -0.1378  0.0119 -0.2617
   53loPI   C3A  841   8.476   0.977   7.463 -0.0798 -0.1351  0.0856
   53loPI   C4A  842   8.367   1.092   7.164 -0.0536  0.0121  0.1589
   53loPI   C5A  843   8.350   1.459   6.871  0.1663  0.1278  0.1308
   53loPI   C6A  844   8.283   1.638   6.383 -0.2519 -0.3186  0.1322
   53loPI   C1B  845   7.742   0.271   8.364 -0.1567  0.1661  0.3952
   53loPI   C2B  846   7.668   0.241   7.901 -0.0340 -0.5238  0.1410
   53loPI   C3B  847   7.735   0.297   7.468  0.2040 -0.0196  0.0455
   53loPI   C4B  848   7.695   0.266   7.027 -0.1132  0.0868  0.0966
   54loPI    C1  849  18.793  15.779   9.569 -0.1246  0.0211  0.0555
   54loPI    C2  850  18.502  15.504   9.580 -0.0853 -0.0221  0.0153
   54loPI    C3  851  18.883  15.395   9.638 -0.0567  0.0052 -0.1176
   54loPI   PO4  852  18.846  15.880   9.338  0.2032  0.0786 -0.2587
   54loPI   GL1  853  19.093  16.044   8.958 -0.2077  0.1132 -0.0814
   54loPI   GL2  854  19.004  15.736   8.880 -0.4041 -0.0199  0.0982
   54loPI   C1A  855  18.950  16.071   8.468 -0.1810  0.0561  0.0198
   54loPI   C2A  856  18.813  15.889   8.087 -0.0523  0.0098 -0.0008
   54loPI   C3A  857  18.789  15.775   7.697 -0.2076  0.0621  0.2448
   54loPI   C4A  858  18.846  15.940   7.295 -0.0740 -0.0213 -0.0968
   54loPI   C5A  859  19.055  16.221   7.123  0.0617  0.1002 -0.1788
   54loPI   C6A  860  19.389  16.529   7.271  0.3450 -0.1805  0.1942
   54loPI   C1B  861  19.203  15.572   8.611  0.0780 -0.0148  0.2340
   54loPI   C2B  862  19.304  15.708   8.235  0.1140  0.1721  0.1311
   54loPI   C3B  863  19.245  15.675   7.888 -0.2708  0.3230 -0.0306
   54loPI   C4B  864  19.257  15.654   7.433 -0.0843 -0.0761  0.1789
   55loPI    C1  865  15.232  15.417   9.412  0.1511 -0.0408  0.3323
   55loPI    C2  866  14.923  15.372   9.662 -0.0605  0.0974  0.1007
   55loPI    C3  867  15.153  15.698   9.685 -0.0467  0.0843  0.1494
   55loPI   PO4  868  15.141  15.373   9.125 -0.1967  0.1707  0.2893
   55loPI   GL1  869  14.903  15.508   8.795  0.1150  0.2507 -0.0850
   55loPI   GL2  870  14.981  15.769   8.806  0.2206 -0.0246  0.0365
   55loPI   C1A  871  14.983  15.564   8.390  0.2271  0.0308 -0.1762
   55loPI   C2A  872  15.026  15.618   7.974  0.0137 -0.0165 -0.1229
   55loPI   C3A  873  15.113  15.623   7.544 -0.4629  0.0618 -0.4769
   55loPI   C4A  874  15.250  15.648   7.169  0.1799  0.1740  0.1100
   55loPI   C5A  875  15.197  15.317   7.053 -0.0212  0.0336 -0.0791
   55loPI   C6A  876  15.196  15.312   6.586 -0.1974  0.0489  0.1253
   55loPI   C1B  877  14.895  16.119   8.620 -0.0015  0.0174 -0.3281
   55loPI   C2B  878  15.008  16.468   8.397 -0.0460 -0.0364  0.2770
   55loPI   C3B  879  15.283  16.686   8.131  0.1428  0.1929 -0.2374
   55loPI   C4B  880  15.436  16.742   7.686 -0.2210 -0.0917 -0.0546
   56loPI    C1  881  13.228   2.806   9.592  0.2258 -0.0301 -0.2259
   56loPI    C2  882  13.519   2.832   9.865 -0.2210  0.0355  0.2598
   56loPI    C3  883  13.265   2.523   9.871 -0.1443 -0.0430 -0.1848
   56loPI   PO4  884  13.420   2.782   9.337  0.0579  0.0149 -0.1235
   56loPI   GL1  885  13.358   2.776   8.994  0.1556 -0.1401  0.2340
   56loPI   GL2  886  13.497   3.139   8.910 -0.1490 -0.0664 -0.1704
   56loPI   C1A  887  13.139   2.631   8.616 -0.0643  0.2133 -0.0786
   56loPI   C2A  888  13.224   2.674   8.234 -0.2726 -0.1104 -0.1422
   56loPI   C3A  889  13.603   2.602   7.915 -0.1101 -0.0555 -0.0059
   56loPI   C4A  890  13.891   2.555   7.612  0.0054  0.1424  0.1205
   56loPI   C5A  891  14.125   2.591   7.376 -0.0006 -0.0586 -0.0144
   56loPI   C6A  892  14.355   2.730   7.073 -0.3020  0.1189  0.2473
   56loPI   C1B  893  13.331   3.485   8.671 -0.0563 -0.1155 -0.1332
   56loPI   C2B  894  13.128   3.730   8.283  0.1635  0.3216 -0.1481
   56loPI   C3B  895  13.157   3.617   7.871 -0.1557 -0.1449  0.1820
   56loPI   C4B  896  13.128   3.354   7.478  0.1531 -0.0995  0.0716
   57loPI    C1  897   3.731   8.727  10.327 -0.0851 -0.1427  0.3048
   57loPI    C2  898   3.660   9.094  10.470 -0.1262 -0.0631  0.0829
   57loPI    C3  899   3.977   8.888  10.599  0.0938  0.1895 -0.0445
   57loPI   PO4  900   3.854   8.719  10.131 -0.1634 -0.2521 -0.0249
   57loPI   GL1  901   4.026   8.604   9.732  0.2552 -0.1747  0.1321
   57loPI   GL2  902   3.660   8.734   9.536  0.0972  0.1806 -0.2037
   57loPI   C1A  903   4.167   8.649   9.412 -0.0695 -0.2159  0.1087
   57loPI   C2A  904   4.322   8.707   8.980 -0.0471  0.0748 -0.1641
   57loPI   C3A  905   4.533   8.520   8.573 -0.0785 -0.1205  0.0961
   57loPI   C4A  906   4.703   8.254   8.381  0.0790 -0.1250  0.3682
   57loPI   C5A  907   4.620   8.196   7.946  0.2391  0.0840  0.4103
   57loPI   C6A  908   4.580   8.192   7.483  0.0159  0.0360  0.1546
   57loPI   C1B  909   3.428   8.659   9.174 -0.1865 -0.2405  0.2728
   57loPI   C2B  910   3.457   8.560   8.727 -0.2429  0.0577  0.5686
   57loPI   C3B  911   3.571   8.197   8.490  0.1550 -0.1129  0.2407
   57loPI   C4B  912   3.754   8.002   8.217 -0.1133 -0.2735  0.0694
   58loPI    C1  913  19.206   1.816   9.442 -0.0443 -0.1510  0.0267
   58loPI    C2  914  19.582   1.893   9.552 -0.1203  0.0428  0.1565
   58loPI    C3  915  19.302   1.829   9.830 -0.2306  0.1291  0.0661
   58loPI   PO4  916  19.187   1.741   9.177 -0.0643  0.0667 -0.0428
   58loPI   GL1  917  18.927   1.836   8.765  0.0621 -0.2180 -0.0882
   58loPI   GL2  918  19.013   1.561   8.655 -0.2299 -0.1084  0.0660
   58loPI   C1A  919  18.919   1.959   8.318  0.0048  0.0216  0.0612
   58loPI   C2A  920  18.889   1.970   7.822  0.3739 -0.0220  0.0645
   58loPI   C3A  921  18.905   2.261   7.388  0.0958 -0.2042 -0.0221
   58loPI   C4A  922  18.812   2.699   7.331  0.1972 -0.0571  0.3109
   58loPI   C5A  923  18.656   2.994   7.121 -0.2066  0.0204 -0.0432
   58loPI   C6A  924  18.449   3.349   7.218  0.0607  0.1239 -0.0400
   58loPI   C1B  925  19.056   1.519   8.126  0.0693 -0.2087  0.0350
   58loPI   C2B  926  18.913   1.446   7.771 -0.3715  0.1161 -0.0727
   58loPI   C3B  927  18.921   1.684   7.408  0.0917 -0.0043 -0.3720
   58loPI   C4B  928  18.727   1.932   7.035  0.1335 -0.0192  0.0044
   59loPI    C1  929  18.738  11.733   9.918  0.1982 -0.1237 -0.0045
   59loPI    C2  930  18.386  11.673   9.738  0.1359  0.0455  0.0589
   59loPI    C3  931  18.493  11.445  10.049 -0.0395  0.1717  0.2140
   59loPI   PO4  932  18.970  11.775   9.796 -0.1423  0.0317  0.1306
   59loPI   GL1  933  19.156  11.615   9.450 -0.2026  0.0240 -0.3388
   59loPI   GL2  934  19.227  12.022   9.331 -0.1046  0.3055  0.2844
   59loPI   C1A  935  19.035  11.638   8.925  0.0080  0.0708  0.1295
   59loPI   C2A  936  18.743  11.641   8.641  0.3520  0.1880  0.3592
   59loPI   C3A  937  18.505  11.662   8.266  0.1078  0.0260  0.1680
   59loPI   C4A  938  18.249  11.855   8.049 -0.3015  0.4621  0.6388
   59loPI   C5A  939  17.914  12.212   7.937  0.0698 -0.1112 -0.3299
   59loPI   C6A  940  17.654  12.552   7.723  0.4208 -0.2375 -0.1243
   59loPI   C1B  941  19.076  12.159   8.975  0.0998 -0.0065 -0.3356
   59loPI   C2B  942  19.077  12.031   8.577 -0.0230  0.0930 -0.0053
   59loPI   C3B  943  19.257  11.952   8.085 -0.1119  0.0468 -0.3472
   59loPI   C4B  944  19.258  11.752   7.674  0.0940  0.1675 -0.1220
   60loPI    C1  945  17.073   9.205   9.525  0.0507 -0.0531 -0.1961
   60loPI    C2  946  17.384   9.233   9.775 -0.1005  0.1194 -0.0244
   60loPI    C3  947  17.063   9.018   9.878 -0.0423 -0.0543 -0.1992
   60loPI   PO4  948  17.243   9.134   9.292  0.0089  0.0205 -0.3143
   60loPI   GL1  949  17.398   9.005   8.915 -0.0734 -0.0976 -0.0432
   60loPI   GL2  950  17.721   9.138   8.918  0.2569  0.3197 -0.2078
   60loPI   C1A  951  17.569   8.780   8.505 -0.2187  0.0121 -0.0664
   60loPI   C2A  952  17.295   8.868   8.061 -0.0684 -0.2955  0.0924
   60loPI   C3A  953  17.036   9.261   7.928 -0.0675  0.0489 -0.3537
   60loPI   C4A  954  16.753   9.492   7.647  0.0108 -0.2037  0.0382
   60loPI   C5A  955  16.531   9.596   7.363  0.2341 -0.0686  0.1967
   60loPI   C6A  956  16.386   9.953   7.140  0.0358  0.4545 -0.1743
   60loPI   C1B  957  17.862   9.218   8.517  0.2224 -0.3511 -0.4243
   60loPI   C2B  958  18.211   9.285   8.129  0.1183 -0.1180  0.1085
   60loPI   C3B  959  18.154   9.300   7.609 -0.1647  0.0465  0.2148
   60loPI   C4B  960  18.320   9.518   7.291  0.2605  0.2925  0.3175
   61loPI    C1  961   8.214  13.212  10.208 -0.1434  0.0759  0.0556
   61loPI    C2  962   8.547  13.224  10.430  0.0141  0.2294 -0.1845
   61loPI    C3  963   8.218  13.416  10.552 -0.0472 -0.0744  0.1448
   61loPI   PO4  964   8.327  13.333   9.910  0.2938 -0.1649 -0.0922
   61loPI   GL1  965   8.277  13.528   9.475 -0.0257 -0.3928  0.0193
   61loPI   GL2  966   8.087  13.209   9.390  0.1763  0.0185  0.3212
   61loPI   C1A  967   8.215  13.762   8.985  0.3258  0.1135  0.0799
   61loPI   C2A  968   8.187  13.614   8.602 -0.2171  0.0712  0.2471
   61loPI   C3A  969   8.152  13.579   8.113  0.1259 -0.1683  0.0956
   61loPI   C4A  970   7.810  13.297   7.889  0.2901 -0.0174  0.2345
   61loPI   C5A  971   7.808  13.011   7.393  0.1773  0.2579  0.2789
   61loPI   C6A  972   7.981  12.853   7.061  0.0224  0.3579  0.3201
   61loPI   C1B  973   8.101  13.186   8.967  0.1697 -0.1495  0.0404
   61loPI   C2B  974   7.833  13.265   8.532  0.0169  0.1864 -0.2781
   61loPI   C3B  975   7.692  13.626   8.281  0.0722  0.1142 -0.4441
   61loPI   C4B  976   7.472  13.647   8.016  0.1838 -0.0630  0.0340
   62loPI    C1  977  17.383  13.132   9.766  0.2156  0.1863 -0.1398
   62loPI    C2  978  17.174  13.188  10.102  0.1370 -0.1193 -0.1342
   62loPI    C3  979  17.563  13.097  10.122  0.2189  0.2145 -0.1388
   62loPI   PO4  980  17.323  13.359   9.505  0.1330  0.0877 -0.2888
   62loPI   GL1  981  17.157  13.662   9.248 -0.2363  0.1794  0.4208
   62loPI   GL2  982  16.840  13.868   9.166 -0.1568  0.3446  0.0515
   62loPI   C1A  983  17.096  13.826   8.768  0.2953  0.0346  0.0484
   62loPI   C2A  984  16.948  13.891   8.303  0.0312  0.0792  0.0740
   62loPI   C3A  985  16.704  13.839   7.973 -0.2210 -0.0331 -0.1589
   62loPI   C4A  986  16.372  13.696   7.677  0.0573  0.0045  0.3789
   62loPI   C5A  987  16.231  14.027   7.377 -0.3109 -0.1506  0.2418
   62loPI   C6A  988  15.947  14.236   7.103  0.1568 -0.0501  0.0405
   62loPI   C1B  989  16.537  13.878   8.890 -0.2023  0.0777  0.2085
   62loPI   C2B  990  16.424  13.826   8.431  0.0139 -0.1584  0.0766
   62loPI   C3B  991  16.226  14.040   8.087 -0.2249  0.1059 -0.1216
   62loPI   C4B  992  15.949  14.019   7.774 -0.3499 -0.1050  0.0068
   63loPI    C1  993  10.665  16.144  10.161 -0.1376 -0.0679 -0.1563
   63loPI    C2  994  10.304  16.317  10.170 -0.1116 -0.0225  0.0851
   63loPI    C3  995  10.377  15.995  10.397  0.0609  0.0936  0.1962
   63loPI   PO4  996  10.764  16.127   9.993 -0.5384 -0.0362 -0.1065
   63loPI   GL1  997  10.882  15.967   9.593  0.0864 -0.1103 -0.0577
   63loPI   GL2  998  10.836  16.240   9.469 -0.2305 -0.3428 -0.0438
   63loPI   C1A  999  11.073  15.876   9.194  0.1360  0.1225 -0.0776
   63loPI   C2A 1000  11.220  15.693   8.774  0.2651 -0.0599 -0.4296
   63loPI   C3A 1001  11.385  15.883   8.407 -0.0273 -0.0665  0.0136
   63loPI   C4A 1002  11.514  15.979   8.000 -0.2312  0.1092  0.1523
   63loPI   C5A 1003  11.571  16.176   7.643  0.2681  0.2247  0.3843
   63loPI   C6A 1004  11.346  16.197   7.197 -0.0431 -0.1275  0.0257
   63loPI   C1B 1005  10.857  16.517   9.026  0.1247 -0.2104  0.3089
   63loPI   C2B 1006  10.741  16.581   8.525  0.2292 -0.1997 -0.2027
   63loPI   C3B 1007  10.703  16.560   8.107  0.0851 -0.1879  0.2370
   63loPI   C4B 1008  10.516  16.605   7.661 -0.2909  0.1856  0.2359
   64loPI    C1 1009   9.090   2.733   9.723  0.0822  0.2477  0.0117
   64loPI    C2 1010   8.990   3.065   9.922 -0.0903  0.1436  0.1007
   64loPI    C3 1011   9.099   2.736  10.123 -0.2944  0.0291  0.0265
   64loPI   PO4 1012   9.182   2.801   9.522 -0.1335 -0.5168  0.0039
   64loPI   GL1 1013   9.232   2.701   9.076 -0.1435 -0.0142 -0.0945
   64loPI   GL2 1014   9.538   2.902   9.092  0.0041 -0.0678 -0.0303
   64loPI   C1A 1015   9.368   2.755   8.640  0.1047  0.0692 -0.1327
   64loPI   C2A 1016   9.424   2.966   8.279  0.0481  0.0989 -0.0458
   64loPI   C3A 1017   9.267   3.132   7.836 -0.1888 -0.0254 -0.0687
   64loPI   C4A 1018   9.244   3.095   7.424 -0.1189  0.1266 -0.2163
   64loPI   C5A 1019   9.457   3.185   7.051  0.0424 -0.2096 -0.3559
   64loPI   C6A 1020   9.485   3.025   6.687 -0.0083  0.2528 -0.0353
   64loPI   C1B 1021   9.551   3.235   8.708 -0.1150 -0.0245 -0.1521
   64loPI   C2B 1022   9.613   3.515   8.281 -0.0455  0.0169  0.0823
   64loPI   C3B 1023   9.427   3.637   7.761 -0.1183  0.0614 -0.0315
   64loPI   C4B 1024   9.561   3.492   7.396 -0.2305 -0.3742  0.0129
   65loPI    C1 1025  19.031  18.996   9.637  0.1047  0.0965 -0.0521
   65loPI    C2 1026  18.742  19.086   9.898 -0.0025 -0.0396 -0.1220
   65loPI    C3 1027  19.119  19.201   9.968 -0.0689  0.1177 -0.0184
   65loPI   PO4 1028  18.966  18.803   9.440 -0.2916  0.4021  0.0296
   65loPI   GL1 1029  19.132  18.766   9.050  0.0077  0.0105  0.0669
   65loPI   GL2 1030  19.377  18.895   9.117  0.0752  0.2608  0.1274
   65loPI   C1A 1031  19.098  18.705   8.616 -0.1905 -0.0406  0.2734
   65loPI   C2A 1032  19.118  18.602   8.164  0.3022 -0.0778  0.0458
   65loPI   C3A 1033  19.374  18.482   7.865  0.0529  0.2511 -0.1022
   65loPI   C4A 1034  19.432  18.256   7.511 -0.2297 -0.2165  0.0864
   65loPI   C5A 1035  19.550  17.951   7.208 -0.1543 -0.0453 -0.1403
   65loPI   C6A 1036  19.555  17.673   6.860  0.3017 -0.2049  0.0770
   65loPI   C1B 1037  19.493  18.992   8.712  0.0180 -0.1791 -0.0862
   65loPI   C2B 1038  19.846  18.973   8.395 -0.0201 -0.1663 -0.1727
   65loPI   C3B 1039  19.984  18.742   8.077  0.0389 -0.0068 -0.0835
   65loPI   C4B 1040  20.056  18.679   7.582 -0.2200  0.0274  0.1571
   66loPI    C1 1041   2.415  10.766  10.065 -0.0914 -0.0281  0.0538
   66loPI    C2 1042   2.592  10.410  10.026  0.0302  0.0349  0.0258
   66loPI    C3 1043   2.811  10.745  10.012 -0.1238  0.1269 -0.2765
   66loPI   PO4 1044   2.220  10.733   9.987  0.0999 -0.1507 -0.2030
   66loPI   GL1 1045   2.207  10.900   9.570  0.1487  0.1562  0.1334
   66loPI   GL2 1046   1.936  10.707   9.594 -0.0301 -0.2378 -0.1825
   66loPI   C1A 1047   2.150  11.081   9.169  0.0456  0.1388  0.0600
   66loPI   C2A 1048   2.072  11.214   8.751 -0.0139  0.0103  0.0363
   66loPI   C3A 1049   1.953  11.193   8.301 -0.2645 -0.0193  0.1544
   66loPI   C4A 1050   1.961  11.261   7.960  0.0565  0.0909  0.4050
   66loPI   C5A 1051   1.753  11.258   7.592  0.1219 -0.3976  0.1888
   66loPI   C6A 1052   1.449  11.311   7.227 -0.2308 -0.0751  0.1280
   66loPI   C1B 1053   2.035  10.587   9.122 -0.2598  0.0174  0.1473
   66loPI   C2B 1054   1.903  10.343   8.727 -0.0923 -0.0245  0.2757
   66loPI   C3B 1055   1.650  10.068   8.589 -0.1720  0.0831  0.1894
   66loPI   C4B 1056   1.299   9.798   8.735  0.1497 -0.1100  0.1354
   67loPI    C1 1057  19.553  10.227   9.902  0.0087  0.1156  0.0332
   67loPI    C2 1058  19.569   9.943  10.184 -0.0439 -0.0456 -0.1239
   67loPI    C3 1059  19.540  10.328  10.288 -0.3436 -0.1220  0.0881
   67loPI   PO4 1060  19.373  10.091   9.625 -0.2341  0.0194 -0.0272
   67loPI   GL1 1061  19.486   9.705   9.388  0.1542  0.1865 -0.0218
   67loPI   GL2 1062  19.179   9.876   9.197  0.0933 -0.0220 -0.1382
   67loPI   C1A 1063  19.673   9.588   9.039  0.1741  0.0291  0.2122
   67loPI   C2A 1064  19.734   9.656   8.571  0.2976  0.1706 -0.2124
   67loPI   C3A 1065  19.777   9.491   8.189 -0.0111 -0.0252  0.1908
   67loPI   C4A 1066  19.814   9.447   7.679  0.0119 -0.1487 -0.0697
   67loPI   C5A 1067  20.098   9.528   7.362 -0.1942 -0.0808  0.3583
   67loPI   C6A 1068  20.209   9.923   7.096  0.2230 -0.1822 -0.3214
   67loPI   C1B 1069  19.291   9.765   8.803  0.2045 -0.2207  0.0637
   67loPI   C2B 1070  19.297   9.505   8.374 -0.0327 -0.0573  0.0213
   67loPI   C3B 1071  19.322   9.462   7.978 -0.2395 -0.1692 -0.0617
   67loPI   C4B 1072  19.345   9.516   7.501 -0.0781  0.3233 -0.0924
   68loPI    C1 1073  14.262  10.637   9.871  0.0786  0.1493 -0.1171
   68loPI    C2 1074  13.901  10.801   9.918 -0.0727 -0.2003 -0.0268
   68loPI    C3 1075  14.071  10.603  10.221  0.3455  0.2441  0.0412
   68loPI   PO4 1076  14.368  10.620   9.594  0.1708 -0.2585  0.1574
   68loPI   GL1 1077  14.420  10.438   9.238  0.4448 -0.0293  0.2485
   68loPI   GL2 1078  14.243  10.531   8.956  0.1876 -0.0880  0.1267
   68loPI   C1A 1079  14.576  10.234   8.799  0.0654 -0.0154 -0.0055
   68loPI   C2A 1080  14.423  10.263   8.279  0.0396  0.1544  0.3593
   68loPI   C3A 1081  14.464  10.397   7.820 -0.0005 -0.1418 -0.3361
   68loPI   C4A 1082  14.336  10.618   7.419  0.3213 -0.2184 -0.1328
   68loPI   C5A 1083  14.390  10.923   7.005 -0.0976 -0.0499 -0.0369
   68loPI   C6A 1084  14.490  11.274   6.765  0.2625  0.0596  0.0996
   68loPI   C1B 1085  14.037  10.434   8.573  0.1083  0.2568  0.0401
   68loPI   C2B 1086  13.979  10.434   8.193  0.3484 -0.0056  0.1406
   68loPI   C3B 1087  13.560  10.520   8.012  0.2112 -0.0701  0.1239
   68loPI   C4B 1088  13.173  10.651   7.848  0.1294  0.0873  0.3548
   69loPI    C1 1089  18.204  13.723   9.888  0.3105 -0.0411  0.2132
   69loPI    C2 1090  18.030  13.439  10.110  0.3371 -0.0107  0.2732
   69loPI    C3 1091  18.429  13.474  10.105  0.3404 -0.0579  0.1630
   69loPI   PO4 1092  17.988  13.770   9.692  0.2158  0.1285 -0.2628
   69loPI   GL1 1093  17.880  13.852   9.183 -0.0620  0.0013  0.3640
   69loPI   GL2 1094  17.682  13.584   9.163  0.3448  0.0477 -0.0056
   69loPI   C1A 1095  17.670  14.081   8.909  0.0466  0.0510  0.0864
   69loPI   C2A 1096  17.423  14.370   8.699 -0.0155  0.1580 -0.2404
   69loPI   C3A 1097  17.211  14.318   8.335  0.1363 -0.0851 -0.1793
   69loPI   C4A 1098  17.070  14.202   7.971 -0.0536  0.3528  0.1399
   69loPI   C5A 1099  17.169  13.921   7.716 -0.1762 -0.2409 -0.2058
   69loPI   C6A 1100  16.861  13.788   7.407  0.1760 -0.0506  0.2885
   69loPI   C1B 1101  17.794  13.456   8.767 -0.1028 -0.1943  0.2165
   69loPI   C2B 1102  17.804  13.502   8.258 -0.0340  0.1477  0.5375
   69loPI   C3B 1103  18.027  13.520   7.864  0.2940 -0.1943 -0.3103
   69loPI   C4B 1104  18.181  13.459   7.400  0.1243 -0.1394 -0.1884
   70loPI    C1 1105   5.861  11.261  10.023 -0.2415 -0.0285 -0.0019
   70loPI    C2 1106   5.711  11.524  10.284  0.0948  0.0117  0.1551
   70loPI    C3 1107   5.945  11.226  10.412  0.2384  0.0138 -0.0956
   70loPI   PO4 1108   5.964  11.386   9.885 -0.1596  0.0689 -0.0048
   70loPI   GL1 1109   5.998  11.635   9.481 -0.0179  0.0536  0.1446
   70loPI   GL2 1110   6.212  11.439   9.407 -0.2235 -0.1178 -0.0102
   70loPI   C1A 1111   5.689  11.718   9.171 -0.0166  0.1164  0.1360
   70loPI   C2A 1112   5.540  11.518   8.740  0.1086  0.1267  0.0669
   70loPI   C3A 1113   5.360  11.455   8.345 -0.0317  0.0886 -0.0680
   70loPI   C4A 1114   5.165  11.361   7.929 -0.1379 -0.0562 -0.0970
   70loPI   C5A 1115   5.159  11.221   7.515 -0.0695  0.0486 -0.0583
   70loPI   C6A 1116   5.372  10.930   7.408  0.0937  0.3440 -0.2461
   70loPI   C1B 1117   6.286  11.611   9.072  0.0388 -0.3089 -0.2234
   70loPI   C2B 1118   6.259  11.765   8.730  0.0779 -0.1998 -0.1160
   70loPI   C3B 1119   6.433  11.953   8.488 -0.1022  0.0381 -0.0311
   70loPI   C4B 1120   6.317  11.770   8.068 -0.1001 -0.0793 -0.3498
   71loPI    C1 1121   7.392  17.701  10.016  0.1977  0.3313 -0.0898
   71loPI    C2 1122   7.666  17.988  10.065  0.4132  0.0913  0.1393
   71loPI    C3 1123   7.766  17.605  10.118  0.0868 -0.0168  0.0011
   71loPI   PO4 1124   7.269  17.669   9.749 -0.1702  0.0542  0.2861
   71loPI   GL1 1125   7.001  17.674   9.410 -0.1309  0.1501  0.1442
   71loPI   GL2 1126   7.279  17.872   9.296  0.0985  0.1992 -0.1803
   71loPI   C1A 1127   7.035  17.557   8.892  0.0422 -0.1955  0.0496
   71loPI   C2A 1128   6.846  17.460   8.459  0.1030 -0.1814  0.0750
   71loPI   C3A 1129   6.730  17.553   8.076 -0.0244 -0.1571  0.1299
   71loPI   C4A 1130   6.744  17.348   7.761  0.0351 -0.2647  0.1485
   71loPI   C5A 1131   6.889  17.480   7.297 -0.1893  0.3687  0.0224
   71loPI   C6A 1132   7.273  17.558   7.143 -0.0935 -0.2059  0.2851
   71loPI   C1B 1133   7.435  17.800   8.897  0.1650 -0.2988  0.0265
   71loPI   C2B 1134   7.301  17.786   8.517 -0.1848  0.0260 -0.0736
   71loPI   C3B 1135   7.193  17.671   8.076 -0.2242 -0.2465  0.0612
   71loPI   C4B 1136   7.551  17.872   7.975  0.1964 -0.1367  0.0264
   72loPI    C1 1137  14.083   6.449   9.816  0.1210 -0.0044 -0.0856
   72loPI    C2 1138  13.690   6.378   9.813  0.1281 -0.0431 -0.1122
   72loPI    C3 1139  13.859   6.556  10.129  0.0726  0.0692 -0.1448
   72loPI   PO4 1140  14.242   6.554   9.635 -0.0823  0.0069 -0.0434
   72loPI   GL1 1141  14.244   6.494   9.222  0.0817 -0.0498 -0.0335
   72loPI   GL2 1142  14.327   6.794   9.144  0.3966  0.0057 -0.0799
   72loPI   C1A 1143  14.366   6.299   8.892 -0.0201 -0.0806 -0.0446
   72loPI   C2A 1144  14.594   6.081   8.574  0.0082  0.4185 -0.0499
   72loPI   C3A 1145  14.648   5.988   8.165 -0.1483 -0.3628 -0.0022
   72loPI   C4A 1146  14.532   5.881   7.800  0.1725 -0.0466 -0.1794
   72loPI   C5A 1147  14.693   5.777   7.425 -0.0068  0.2886 -0.5623
   72loPI   C6A 1148  15.052   5.519   7.226 -0.4272  0.1997 -0.1239
   72loPI   C1B 1149  14.241   6.873   8.710 -0.1380  0.0001 -0.0858
   72loPI   C2B 1150  14.377   6.836   8.304 -0.0228  0.0968  0.1938
   72loPI   C3B 1151  14.503   6.816   7.939 -0.2328 -0.0193  0.0736
   72loPI   C4B 1152  14.531   6.945   7.522  0.1638 -0.0738  0.1013
   73loPI    C1 1153   0.729  15.193   9.895 -0.0291  0.1665 -0.1537
   73loPI    C2 1154   0.339  15.246   9.966 -0.0449 -0.0635 -0.0583
   73loPI    C3 1155   0.564  15.045  10.228  0.1680  0.1839 -0.0469
   73loPI   PO4 1156   0.861  15.440   9.630 -0.3455 -0.0710 -0.0518
   73loPI   GL1 1157   0.740  15.694   9.211  0.2687 -0.4480 -0.0587
   73loPI   GL2 1158   0.981  15.878   9.305  0.0101 -0.2276  0.0494
   73loPI   C1A 1159   0.731  15.256   8.961  0.3233 -0.1275 -0.0608
   73loPI   C2A 1160   0.695  14.932   8.574  0.0784  0.0783  0.2165
   73loPI   C3A 1161   0.834  14.605   8.370 -0.0406  0.2207 -0.0641
   73loPI   C4A 1162   1.013  14.574   7.943  0.1771 -0.0486  0.0564
   73loPI   C5A 1163   1.247  14.728   7.515 -0.0935  0.2300 -0.1158
   73loPI   C6A 1164   1.452  14.986   7.104  0.1528  0.2053 -0.1362
   73loPI   C1B 1165   0.952  16.125   9.029 -0.0454 -0.0556  0.0841
   73loPI   C2B 1166   0.776  16.305   8.713 -0.2709 -0.1036  0.2594
   73loPI   C3B 1167   0.834  16.306   8.316 -0.0876  0.2036 -0.1963
   73loPI   C4B 1168   0.576  16.292   7.993  0.0381 -0.1655  0.4585
   74loPI    C1 1169   5.090   7.168  10.235 -0.1093 -0.2117  0.0690
   74loPI    C2 1170   4.799   7.414  10.357  0.1105  0.1703 -0.1548
   74loPI    C3 1171   5.059   7.264  10.622 -0.1810 -0.0354  0.0207
   74loPI   PO4 1172   5.092   7.012  10.029 -0.1767  0.1465 -0.0281
   74loPI   GL1 1173   5.224   6.924   9.687  0.0140 -0.0159  0.2862
   74loPI   GL2 1174   4.836   6.828   9.621 -0.1343  0.0126  0.1950
   74loPI   C1A 1175   5.141   7.208   9.291 -0.0830  0.1129 -0.2492
   74loPI   C2A 1176   5.113   7.114   8.905 -0.0931  0.0004  0.1949
   74loPI   C3A 1177   4.983   7.056   8.520 -0.2554 -0.2307  0.0357
   74loPI   C4A 1178   5.168   7.099   8.160 -0.1993 -0.1927 -0.0129
   74loPI   C5A 1179   5.071   7.312   7.731 -0.0260 -0.0020  0.0479
   74loPI   C6A 1180   4.925   7.632   7.420  0.2578 -0.0931 -0.1254
   74loPI   C1B 1181   5.011   6.585   9.313  0.0428  0.1859 -0.0999
   74loPI   C2B 1182   5.141   6.414   9.003  0.1663 -0.3228 -0.0755
   74loPI   C3B 1183   5.278   6.185   8.731 -0.2571 -0.4062  0.1944
   74loPI   C4B 1184   5.434   5.958   8.316  0.0648  0.2448  0.0712
   75loPI    C1 1185   8.116  16.371   9.849 -0.2248 -0.0278 -0.1548
   75loPI    C2 1186   7.818  16.593   9.996 -0.1707  0.0323 -0.1352
   75loPI    C3 1187   7.975  16.297  10.215  0.0346  0.2408  0.0038
   75loPI   PO4 1188   8.059  16.346   9.509  0.3226 -0.0672 -0.3357
   75loPI   GL1 1189   7.944  16.545   9.124 -0.0406 -0.0525 -0.0605
   75loPI   GL2 1190   8.248  16.416   9.011  0.3907 -0.1218  0.0967
   75loPI   C1A 1191   8.061  16.649   8.622  0.1526  0.0813  0.1294
   75loPI   C2A 1192   7.994  16.703   8.213 -0.2109  0.1783  0.0192
   75loPI   C3A 1193   7.876  16.573   7.806  0.0708 -0.0076  0.1126
   75loPI   C4A 1194   7.692  16.323   7.554 -0.2148 -0.0286 -0.1656
   75loPI   C5A 1195   7.341  16.133   7.335  0.1821 -0.0280 -0.1009
   75loPI   C6A 1196   7.012  15.863   7.144  0.2810 -0.0549  0.3048
   75loPI   C1B 1197   8.163  16.183   8.568  0.1632 -0.1266 -0.2425
   75loPI   C2B 1198   8.138  16.115   8.074  0.0056 -0.1012 -0.2448
   75loPI   C3B 1199   8.172  16.003   7.582 -0.2064 -0.1775  0.2533
   75loPI   C4B 1200   8.470  15.773   7.315 -0.4686  0.0603  0.2706
   76loPI    C1 1201  16.125  11.886  10.010 -0.1642  0.1589 -0.0995
   76loPI    C2 1202  15.904  11.990  10.326 -0.0694 -0.0856  0.0498
   76loPI    C3 1203  16.269  12.147  10.277 -0.0786 -0.0581  0.0689
   76loPI   PO4 1204  15.922  11.761   9.818 -0.0202  0.1406  0.1489
   76loPI   GL1 1205  15.641  11.717   9.502 -0.2365 -0.0516  0.0166
   76loPI   GL2 1206  15.927  11.548   9.248  0.3207  0.0231 -0.0078
   76loPI   C1A 1207  15.472  12.073   9.264 -0.1332 -0.0926  0.0790
   76loPI   C2A 1208  15.510  12.161   8.810 -0.2018  0.1460 -0.1590
   76loPI   C3A 1209  15.611  12.215   8.305  0.1103  0.1869  0.0639
   76loPI   C4A 1210  15.673  12.281   7.916  0.4793  0.1542 -0.3443
   76loPI   C5A 1211  15.653  12.340   7.468 -0.1032  0.2215 -0.0591
   76loPI   C6A 1212  15.647  12.377   7.038  0.0647 -0.2570 -0.0843
   76loPI   C1B 1213  15.975  11.496   8.791 -0.1026  0.2558  0.1993
   76loPI   C2B 1214  16.294  11.510   8.513  0.0713  0.0284  0.3294
   76loPI   C3B 1215  16.395  11.631   8.063 -0.1113  0.0366 -0.2112
   76loPI   C4B 1216  16.571  11.621   7.655  0.2426  0.0398  0.0118
   77loPI    C1 1217   4.779   8.254  10.396  0.0328 -0.0694 -0.0922
   77loPI    C2 1218   4.930   8.593  10.546  0.2066 -0.2151  0.0668
   77loPI    C3 1219   4.599   8.433  10.705  0.1322 -0.1286  0.0004
   77loPI   PO4 1220   4.745   8.301  10.177 -0.2413 -0.1498  0.0631
   77loPI   GL1 1221   4.489   8.487   9.791 -0.1652 -0.1727 -0.0413
   77loPI   GL2 1222   4.520   8.284   9.638 -0.0411  0.2440 -0.1125
   77loPI   C1A 1223   4.744   8.802   9.444 -0.1321  0.2022  0.3040
   77loPI   C2A 1224   4.976   8.743   9.067 -0.1404 -0.1644 -0.1458
   77loPI   C3A 1225   4.992   8.768   8.620 -0.4351 -0.0621  0.2267
   77loPI   C4A 1226   4.733   8.664   8.134 -0.0574  0.0218 -0.0041
   77loPI   C5A 1227   4.535   8.726   7.618 -0.1250 -0.3666  0.0356
   77loPI   C6A 1228   4.589   8.742   7.227 -0.0264  0.0305  0.1801
   77loPI   C1B 1229   4.587   8.338   9.220  0.2118  0.0742 -0.2062
   77loPI   C2B 1230   4.931   8.134   8.886 -0.1176 -0.1199 -0.2492
   77loPI   C3B 1231   5.137   7.995   8.576 -0.1804 -0.0740  0.3086
   77loPI   C4B 1232   5.056   7.986   8.104 -0.1407 -0.3415  0.0657
   78loPI    C1 1233  16.141   8.266   9.579  0.1756 -0.2021  0.1187
   78loPI    C2 1234  16.361   8.589   9.666  0.0197 -0.0413 -0.0753
   78loPI    C3 1235  16.139   8.415   9.950  0.3320 -0.1578  0.1026
   78loPI   PO4 1236  16.098   8.337   9.325  0.1977 -0.0245  0.1297
   78loPI   GL1 1237  16.207   8.305   8.911  0.1183 -0.1585 -0.0515
   78loPI   GL2 1238  16.508   8.370   8.835  0.0436  0.0157 -0.0685
   78loPI   C1A 1239  15.830   8.298   8.628 -0.0900 -0.1610  0.1347
   78loPI   C2A 1240  15.703   8.359   8.279 -0.2379  0.0136 -0.0064
   78loPI   C3A 1241  15.803   8.545   7.918 -0.0133 -0.0490  0.0552
   78loPI   C4A 1242  16.013   8.300   7.528  0.2845  0.1052  0.0774
   78loPI   C5A 1243  16.423   8.297   7.312  0.0763  0.0362  0.2079
   78loPI   C6A 1244  16.788   8.306   7.569  0.3191 -0.1303 -0.0086
   78loPI   C1B 1245  16.677   8.404   8.509  0.1013  0.0234 -0.1159
   78loPI   C2B 1246  16.776   8.139   8.148  0.0493  0.0989  0.0621
   78loPI   C3B 1247  16.889   7.850   7.770  0.1793  0.4068  0.0214
   78loPI   C4B 1248  16.858   7.422   7.564 -0.0671 -0.3229  0.0122
   79loPI    C1 1249  14.258   4.171   9.272  0.0218 -0.0546 -0.1009
   79loPI    C2 1250  13.881   4.039   9.259 -0.0383  0.0922  0.1101
   79loPI    C3 1251  14.152   3.851   9.485 -0.0636  0.1783  0.2130
   79loPI   PO4 1252  14.294   4.221   9.056 -0.1017 -0.0431 -0.0690
   79loPI   GL1 1253  14.665   4.063   8.857 -0.1347 -0.0617  0.3084
   79loPI   GL2 1254  14.784   3.743   8.865 -0.0815 -0.4388 -0.2090
   79loPI   C1A 1255  14.381   4.055   8.477 -0.0882  0.1887  0.0729
   79loPI   C2A 1256  14.214   4.097   8.024 -0.1939  0.0336  0.4023
   79loPI   C3A 1257  14.242   4.249   7.553 -0.0146  0.0293 -0.4806
   79loPI   C4A 1258  14.294   4.471   7.153  0.1474  0.0250 -0.2905
   79loPI   C5A 1259  14.199   4.804   6.843 -0.3282 -0.1204 -0.4191
   79loPI   C6A 1260  13.975   4.914   6.464  0.0163  0.0088  0.1981
   79loPI   C1B 1261  14.565   3.612   8.532  0.0361  0.2044 -0.0566
   79loPI   C2B 1262  14.365   3.371   8.375  0.0451  0.1258  0.0306
   79loPI   C3B 1263  14.408   3.186   7.879  0.2790 -0.1622  0.2099
   79loPI   C4B 1264  14.237   3.133   7.450  0.2948 -0.2205 -0.0612
   80loPI    C1 1265   0.391  10.401   9.637  0.2771  0.0126 -0.0070
   80loPI    C2 1266   0.447  10.690   9.365 -0.0474  0.1285  0.0445
   80loPI    C3 1267   0.519  10.762   9.752  0.1605  0.0451  0.0227
   80loPI   PO4 1268   0.132  10.335   9.549  0.0709 -0.2076  0.0443
   80loPI   GL1 1269  -0.099  10.211   9.259 -0.0914  0.1336  0.1205
   80loPI   GL2 1270  -0.403  10.320   9.071 -0.0008 -0.0887  0.2117
   80loPI   C1A 1271   0.159  10.490   8.914  0.1156 -0.3164  0.1127
   80loPI   C2A 1272   0.198  10.647   8.489  0.1485  0.1189 -0.4013
   80loPI   C3A 1273   0.499  10.756   8.142  0.1509 -0.1205  0.1063
   80loPI   C4A 1274   0.627  10.864   7.695  0.0228 -0.0307  0.3351
   80loPI   C5A 1275   0.852  10.644   7.397 -0.1651 -0.2675 -0.0477
   80loPI   C6A 1276   1.107  10.374   7.235 -0.3375 -0.2738 -0.0379
   80loPI   C1B 1277  -0.343  10.536   8.666 -0.3876  0.4065  0.2682
   80loPI   C2B 1278  -0.211  10.476   8.299 -0.0123  0.1203 -0.0969
   80loPI   C3B 1279  -0.350  10.507   7.903 -0.3003  0.2727  0.0034
   80loPI   C4B 1280  -0.298  10.550   7.473  0.0775  0.1421  0.0789
   81loPI    C1 1281   3.245  10.493   9.992 -0.1489  0.2295  0.0751
   81loPI    C2 1282   3.239  10.189  10.252 -0.0614  0.1474 -0.0178
   81loPI    C3 1283   3.149  10.559  10.375 -0.1950  0.0800  0.0899
   81loPI   PO4 1284   3.057  10.398   9.779 -0.0657 -0.1170 -0.2363
   81loPI   GL1 1285   3.228  10.576   9.422 -0.2109 -0.0806  0.1091
   81loPI   GL2 1286   3.546  10.332   9.314 -0.1563  0.0809 -0.1148
   81loPI   C1A 1287   3.099  10.760   9.050 -0.0015  0.4224  0.0298
   81loPI   C2A 1288   2.938  10.764   8.593  0.4039  0.2705  0.2586
   81loPI   C3A 1289   2.754  10.600   8.229 -0.3823 -0.2023 -0.0520
   81loPI   C4A 1290   2.678  10.389   7.909 -0.0605  0.1039  0.3958
   81loPI   C5A 1291   2.214  10.379   7.624 -0.0730 -0.1674 -0.1911
   81loPI   C6A 1292   1.798  10.374   7.390  0.1572 -0.1822  0.2431
   81loPI   C1B 1293   3.379  10.353   9.002  0.2537  0.0583 -0.0018
   81loPI   C2B 1294   3.294  10.467   8.605 -0.3350  0.1804  0.1512
   81loPI   C3B 1295   3.142  10.247   8.269 -0.1274 -0.2559 -0.2520
   81loPI   C4B 1296   3.026   9.861   8.248 -0.1015 -0.0175  0.0440
   82loPI    C1 1297   5.982   8.571  10.353 -0.0627 -0.0059  0.0139
   82loPI    C2 1298   6.276   8.356  10.518  0.1763  0.3168  0.0186
   82loPI    C3 1299   5.903   8.214  10.513  0.3121 -0.0536  0.1030
   82loPI   PO4 1300   6.064   8.640  10.075 -0.0621  0.1299 -0.0770
   82loPI   GL1 1301   5.821   8.657   9.737 -0.2293  0.0045  0.0785
   82loPI   GL2 1302   5.562   8.547   9.699 -0.1641  0.1426 -0.2641
   82loPI   C1A 1303   5.919   8.761   9.280  0.0098 -0.1263  0.2137
   82loPI   C2A 1304   5.984   8.858   8.869  0.0605 -0.0894 -0.0855
   82loPI   C3A 1305   6.054   8.720   8.436  0.1310 -0.0057  0.3498
   82loPI   C4A 1306   6.178   8.493   8.149  0.2021 -0.0536  0.2229
   82loPI   C5A 1307   6.301   8.411   7.765 -0.1728 -0.1006 -0.3322
   82loPI   C6A 1308   6.321   8.577   7.319  0.1645  0.3647 -0.3284
   82loPI   C1B 1309   5.346   8.803   9.347 -0.3749 -0.0027  0.0567
   82loPI   C2B 1310   5.426   8.880   8.942  0.2468 -0.0197  0.1152
   82loPI   C3B 1311   5.581   8.841   8.505  0.2634  0.0108  0.0785
   82loPI   C4B 1312   5.635   8.674   8.026 -0.1437 -0.2125  0.0959
   83loPI    C1 1313  16.391   0.945   9.509 -0.0215  0.1200 -0.1926
   83loPI    C2 1314  16.331   1.339   9.539  0.2005  0.1312  0.1553
   83loPI    C3 1315  16.225   1.098   9.839  0.3225 -0.0417  0.0613
   83loPI   PO4 1316  16.419   0.959   9.284 -0.1690  0.1166  0.1040
   83loPI   GL1 1317  16.393   0.750   8.946  0.2505 -0.2651  0.1001
   83loPI   GL2 1318  16.418   1.063   8.742  0.2332  0.2010  0.1771
   83loPI   C1A 1319  16.474   0.663   8.412 -0.2624  0.1992 -0.0003
   83loPI   C2A 1320  16.578   0.621   7.946  0.0012 -0.1255  0.2035
   83loPI   C3A 1321  16.755   0.601   7.637  0.0469 -0.2198 -0.0577
   83loPI   C4A 1322  16.818   0.696   7.253 -0.1126  0.2227  0.1978
   83loPI   C5A 1323  16.836   0.854   6.998  0.0077 -0.1827 -0.2577
   83loPI   C6A 1324  16.570   1.191   6.838  0.2885 -0.0817 -0.0375
   83loPI   C1B 1325  16.403   1.251   8.389 -0.1925 -0.2507 -0.2109
   83loPI   C2B 1326  16.371   1.661   8.249 -0.1118  0.3821 -0.0702
   83loPI   C3B 1327  16.092   2.012   7.919 -0.3144  0.3370 -0.1144
   83loPI   C4B 1328  15.663   2.034   7.815 -0.1680 -0.0615  0.1700
   84loPI    C1 1329   3.870   9.761  10.008  0.1290  0.1525  0.1017
   84loPI    C2 1330   3.947  10.012   9.705 -0.1191 -0.0651 -0.1471
   84loPI    C3 1331   4.158  10.036  10.044  0.2259  0.1217 -0.3701
   84loPI   PO4 1332   3.784   9.531   9.786  0.0180 -0.0505 -0.2289
   84loPI   GL1 1333   3.943   9.594   9.401 -0.2758  0.3595 -0.1613
   84loPI   GL2 1334   4.124   9.499   9.319 -0.3658  0.1497  0.0713
   84loPI   C1A 1335   3.661   9.460   9.116  0.2393  0.2701  0.1787
   84loPI   C2A 1336   3.566   9.587   8.600 -0.3003  0.0763  0.1286
   84loPI   C3A 1337   3.404   9.501   8.225 -0.2466  0.1959  0.1218
   84loPI   C4A 1338   3.574   9.572   7.821  0.1036 -0.1149  0.0688
   84loPI   C5A 1339   3.695   9.556   7.448 -0.0810  0.3097  0.2026
   84loPI   C6A 1340   3.589   9.656   7.045 -0.2273  0.2070 -0.1652
   84loPI   C1B 1341   4.116   9.549   8.936 -0.1581  0.1337 -0.0155
   84loPI   C2B 1342   4.262   9.150   8.605  0.0347  0.2598  0.0749
   84loPI   C3B 1343   4.389   8.984   8.152  0.1049 -0.4391 -0.1798
   84loPI   C4B 1344   4.530   9.152   7.945 -0.0451  0.0792  0.2155
   85loPI    C1 1345  17.223  11.841   9.619  0.1373  0.0135  0.1057
   85loPI    C2 1346  17.130  11.617   9.937  0.1835 -0.1063  0.0356
   85loPI    C3 1347  17.159  12.014   9.973 -0.2965 -0.0685  0.0726
   85loPI   PO4 1348  17.419  11.792   9.512 -0.0918 -0.1986 -0.1505
   85loPI   GL1 1349  17.513  11.592   9.147 -0.3108 -0.2903 -0.2605
   85loPI   GL2 1350  17.926  11.616   9.049 -0.1246 -0.1096 -0.0034
   85loPI   C1A 1351  17.488  11.402   8.704  0.0774 -0.1388  0.1937
   85loPI   C2A 1352  17.295  11.497   8.234 -0.3713  0.3547 -0.3776
   85loPI   C3A 1353  17.269  11.520   7.704  0.1453  0.0929 -0.0792
   85loPI   C4A 1354  16.980  11.468   7.291 -0.1394  0.0609 -0.0171
   85loPI   C5A 1355  17.097  11.106   7.043  0.2414  0.1754  0.3642
   85loPI   C6A 1356  17.170  10.714   7.240 -0.2144  0.1483 -0.1131
   85loPI   C1B 1357  17.948  11.339   8.814  0.0795 -0.0491  0.0290
   85loPI   C2B 1358  17.902  11.417   8.376 -0.1233 -0.0183  0.0671
   85loPI   C3B 1359  18.058  11.375   7.941  0.0677 -0.1841 -0.3330
   85loPI   C4B 1360  17.935  11.382   7.491  0.0653 -0.1014 -0.0082
   86loPI    C1 1361  15.333   7.506   9.824  0.1203 -0.4785 -0.0798
   86loPI    C2 1362  15.728   7.571   9.825 -0.0006  0.3813  0.0179
   86loPI    C3 1363  15.543   7.453  10.160  0.1358  0.2195  0.0373
   86loPI   PO4 1364  15.281   7.491   9.502 -0.3097  0.3571  0.0307
   86loPI   GL1 1365  15.062   7.408   9.105 -0.4220 -0.0035 -0.1454
   86loPI   GL2 1366  15.307   7.713   9.049 -0.2718 -0.2391 -0.1314
   86loPI   C1A 1367  15.051   7.190   8.795  0.2666 -0.0576  0.0488
   86loPI   C2A 1368  15.040   7.301   8.400 -0.1663  0.0964 -0.2607
   86loPI   C3A 1369  15.059   7.377   7.947 -0.3132 -0.0857 -0.2303
   86loPI   C4A 1370  15.128   7.410   7.521  0.1717  0.0791  0.0111
   86loPI   C5A 1371  15.590   7.421   7.130  0.3255 -0.0583  0.0292
   86loPI   C6A 1372  15.596   7.352   6.726  0.0368  0.2491 -0.0790
   86loPI   C1B 1373  15.321   7.703   8.668 -0.0531  0.0103  0.1157
   86loPI   C2B 1374  15.473   7.609   8.271 -0.1031 -0.1340 -0.1301
   86loPI   C3B 1375  15.463   7.681   7.892  0.1568 -0.0871  0.0453
   86loPI   C4B 1376  15.586   7.795   7.456 -0.0510 -0.0663  0.2487
   87loPI    C1 1377  14.528   5.224   9.648  0.1703  0.0391  0.1062
   87loPI    C2 1378  14.195   5.172   9.863  0.0408 -0.2220 -0.1510
   87loPI    C3 1379  14.356   5.537   9.829 -0.2845 -0.0721 -0.1203
   87loPI   PO4 1380  14.492   5.134   9.365 -0.0685 -0.1537 -0.1162
   87loPI   GL1 1381  14.358   5.166   8.928  0.0775  0.1254 -0.5787
   87loPI   GL2 1382  14.402   5.549   9.126 -0.1641  0.0268 -0.2148
   87loPI   C1A 1383  14.370   5.006   8.565  0.0055  0.0123 -0.0782
   87loPI   C2A 1384  14.359   5.089   8.169 -0.0976  0.2892 -0.0583
   87loPI   C3A 1385  14.386   5.427   7.950 -0.2393 -0.2842  0.0039
   87loPI   C4A 1386  14.408   5.431   7.506  0.0244  0.1497  0.0392
   87loPI   C5A 1387  14.100   5.369   7.085  0.0253 -0.1538 -0.0478
   87loPI   C6A 1388  13.797   5.239   6.805 -0.2577 -0.0524 -0.1607
   87loPI   C1B 1389  14.273   5.583   8.740  0.0087  0.2486 -0.2993
   87loPI   C2B 1390  14.239   5.734   8.314 -0.2194  0.0227  0.1981
   87loPI   C3B 1391  13.965   5.759   7.960  0.1091  0.0982  0.0082
   87loPI   C4B 1392  13.571   5.696   7.866  0.1690  0.2615  0.1912
   88loPI    C1 1393   8.772   6.951  10.160 -0.1133  0.1571  0.0935
   88loPI    C2 1394   9.168   6.900  10.142 -0.1381 -0.0058 -0.0161
   88loPI    C3 1395   9.009   7.134  10.425 -0.0002 -0.3426  0.3512
   88loPI   PO4 1396   8.746   6.949   9.879  0.0063  0.1850 -0.4892
   88loPI   GL1 1397   8.744   6.890   9.405  0.1745  0.1271  0.1118
   88loPI   GL2 1398   8.974   7.048   9.202 -0.1242 -0.1811  0.2255
   88loPI   C1A 1399   8.673   6.679   9.067 -0.1994  0.0718  0.0245
   88loPI   C2A 1400   8.704   6.629   8.603  0.2398  0.1639 -0.1319
   88loPI   C3A 1401   8.799   6.839   8.188  0.1913 -0.1838 -0.1587
   88loPI   C4A 1402   8.580   6.741   7.867 -0.0731  0.4065 -0.2836
   88loPI   C5A 1403   8.343   6.700   7.502 -0.0437 -0.1159  0.0620
   88loPI   C6A 1404   7.973   6.639   7.421  0.1267  0.1093  0.1019
   88loPI   C1B 1405   8.880   7.050   8.780 -0.1842 -0.0024 -0.1239
   88loPI   C2B 1406   8.468   7.158   8.706 -0.1242  0.1917 -0.0303
   88loPI   C3B 1407   8.276   7.285   8.365 -0.2599 -0.2990 -0.0314
   88loPI   C4B 1408   8.391   7.717   8.056  0.2445 -0.0333 -0.2768
   89loPI    C1 1409  13.390  18.111   9.572  0.3487  0.3180  0.2994
   89loPI    C2 1410  13.346  17.796   9.815  0.3616  0.1019  0.0262
   89loPI    C3 1411  13.149  18.136   9.891  0.0759 -0.0839  0.1335
   89loPI   PO4 1412  13.396  18.046   9.323  0.1829  0.1694 -0.2023
   89loPI   GL1 1413  13.183  17.771   9.064  0.2183 -0.3155  0.0346
   89loPI   GL2 1414  13.084  17.540   9.075 -0.1940  0.1112 -0.1871
   89loPI   C1A 1415  13.205  17.856   8.594  0.1834 -0.1327 -0.1696
   89loPI   C2A 1416  13.176  18.056   8.148 -0.2138 -0.0904  0.3159
   89loPI   C3A 1417  13.273  17.993   7.747 -0.0995  0.3784  0.0581
   89loPI   C4A 1418  13.216  18.181   7.356  0.2742  0.0407  0.1554
   89loPI   C5A 1419  13.059  18.070   6.988  0.2659 -0.3242 -0.1285
   89loPI   C6A 1420  12.700  17.917   6.816 -0.2818 -0.3370  0.2069
   89loPI   C1B 1421  12.899  17.472   8.643  0.1772 -0.2176 -0.0475
   89loPI   C2B 1422  12.963  17.604   8.260  0.0803  0.2796  0.2109
   89loPI   C3B 1423  12.926  17.669   7.861  0.0069 -0.0631  0.1442
   89loPI   C4B 1424  12.841  17.744   7.389  0.0391  0.1576 -0.1005
   90loPI    C1 1425  14.945   1.279   9.693 -0.0460  0.3051  0.1106
   90loPI    C2 1426  14.583   1.308   9.860 -0.0837 -0.1952  0.1313
   90loPI    C3 1427  14.841   1.031   9.988  0.0863 -0.2351 -0.2816
   90loPI   PO4 1428  14.920   1.252   9.414  0.3391  0.3290 -0.0074
   90loPI   GL1 1429  15.028   1.101   8.978  0.1531  0.1312  0.2355
   90loPI   GL2 1430  14.965   0.990   8.834 -0.1598  0.2065  0.0142
   90loPI   C1A 1431  15.136   1.159   8.444 -0.3413 -0.1162 -0.1989
   90loPI   C2A 1432  15.106   1.387   7.998  0.0702 -0.2024  0.0117
   90loPI   C3A 1433  14.835   1.597   7.638 -0.0717 -0.0166  0.0507
   90loPI   C4A 1434  14.753   1.782   7.271 -0.1124  0.1714 -0.0722
   90loPI   C5A 1435  15.105   1.917   7.056  0.3316 -0.0546 -0.0807
   90loPI   C6A 1436  15.441   1.744   7.068  0.2358  0.0431 -0.1057
   90loPI   C1B 1437  14.590   0.722   8.583 -0.0533 -0.1004  0.1432
   90loPI   C2B 1438  14.160   0.941   8.371  0.1907  0.1285  0.2230
   90loPI   C3B 1439  14.100   1.282   8.042 -0.1752 -0.2420 -0.5373
   90loPI   C4B 1440  14.421   1.373   7.798 -0.2885 -0.3394 -0.0832
   91loPI    C1 1441   6.434   0.421   9.772  0.0656 -0.0673 -0.3624
   91loPI    C2 1442   6.052   0.311   9.815  0.0650 -0.0300 -0.2712
   91loPI    C3 1443   6.320   0.218  10.097  0.0864  0.1046 -0.2469
   91loPI   PO4 1444   6.557   0.306   9.526 -0.2159  0.0366 -0.2565
   91loPI   GL1 1445   6.537   0.399   9.134 -0.1417  0.0568  0.3116
   91loPI   GL2 1446   6.466   0.019   9.122 -0.0003  0.0945  0.1055
   91loPI   C1A 1447   6.552   0.532   8.711 -0.0576 -0.0535 -0.0696
   91loPI   C2A 1448   6.545   0.432   8.293 -0.1850  0.0294  0.1535
   91loPI   C3A 1449   6.589   0.408   7.799  0.0711 -0.0086 -0.0715
   91loPI   C4A 1450   6.612   0.396   7.413  0.1558 -0.0653 -0.0314
   91loPI   C5A 1451   6.402   0.734   7.180 -0.0190 -0.0290  0.1391
   91loPI   C6A 1452   6.189   0.673   6.758  0.0720  0.1110  0.0869
   91loPI   C1B 1453   6.545   0.045   8.678 -0.0392 -0.3448  0.1842
   91loPI   C2B 1454   6.655  -0.186   8.316 -0.0544  0.0534 -0.0976
   91loPI   C3B 1455   6.694  -0.308   7.968  0.2158 -0.1045 -0.3598
   91loPI   C4B 1456   6.604  -0.508   7.507 -0.1343  0.2146  0.1106
   92loPI    C1 1457  14.758  10.253   9.573 -0.2115 -0.2251  0.2349
   92loPI    C2 1458  15.009  10.204   9.880 -0.1460  0.1494  0.2452
   92loPI    C3 1459  14.617  10.250   9.947 -0.1724 -0.0777  0.2516
   92loPI   PO4 1460  14.894  10.424   9.412  0.0405 -0.0832  0.0666
   92loPI   GL1 1461  14.930  10.482   8.930 -0.1518  0.0458  0.0307
   92loPI   GL2 1462  14.717  10.739   9.006 -0.1418  0.0236 -0.0895
   92loPI   C1A 1463  14.964  10.475   8.470 -0.1462 -0.0956 -0.2509
   92loPI   C2A 1464  15.090  10.373   7.998  0.0708 -0.2474 -0.0645
   92loPI   C3A 1465  15.058  10.345   7.508  0.1131  0.0258  0.1558
   92loPI   C4A 1466  15.264  10.497   7.136 -0.0520  0.0915  0.1226
   92loPI   C5A 1467  15.639  10.535   6.878  0.1380  0.1080  0.1590
   92loPI   C6A 1468  16.015  10.563   7.143  0.0559 -0.0365  0.0888
   92loPI   C1B 1469  14.502  10.717   8.553 -0.4206  0.1374 -0.0526
   92loPI   C2B 1470  14.289  10.818   8.115 -0.1272 -0.0640 -0.0418
   92loPI   C3B 1471  13.957  10.885   7.806 -0.0837  0.2006  0.3756
   92loPI   C4B 1472  13.928  10.929   7.318 -0.3076  0.3402 -0.0824
   93loPI    C1 1473   4.948  12.598   9.917 -0.0906  0.0481  0.2259
   93loPI    C2 1474   5.012  12.337  10.214  0.1770  0.1358  0.2480
   93loPI    C3 1475   4.770  12.650  10.272 -0.1542 -0.1100  0.2178
   93loPI   PO4 1476   5.044  12.467   9.683 -0.1422 -0.0196 -0.0628
   93loPI   GL1 1477   5.182  12.668   9.225  0.0383  0.1540 -0.0531
   93loPI   GL2 1478   4.933  12.714   8.911  0.0949 -0.3712  0.2801
   93loPI   C1A 1479   5.355  12.496   8.784 -0.1157 -0.0116 -0.2479
   93loPI   C2A 1480   5.259  12.475   8.334 -0.1373 -0.1531 -0.3529
   93loPI   C3A 1481   5.101  12.384   7.887  0.2740 -0.4055  0.0295
   93loPI   C4A 1482   5.159  12.555   7.499 -0.2660  0.2164 -0.0204
   93loPI   C5A 1483   5.216  12.904   7.125 -0.3395  0.0453 -0.0510
   93loPI   C6A 1484   5.218  12.975   6.756  0.0284  0.2166 -0.2093
   93loPI   C1B 1485   4.939  12.850   8.485  0.0227  0.2561 -0.3180
   93loPI   C2B 1486   4.849  12.805   8.021 -0.2244 -0.0968 -0.0415
   93loPI   C3B 1487   4.802  12.930   7.517  0.0619  0.0136 -0.0280
   93loPI   C4B 1488   4.746  12.918   7.063 -0.1048  0.1663 -0.0525
   94loPI    C1 1489  17.811   8.792   9.527 -0.1745 -0.1054 -0.2721
   94loPI    C2 1490  17.684   8.471   9.728 -0.1127  0.0265 -0.0191
   94loPI    C3 1491  17.688   8.829   9.906  0.1491  0.1079 -0.1845
   94loPI   PO4 1492  17.714   8.855   9.388 -0.1099 -0.2164 -0.0504
   94loPI   GL1 1493  17.704   8.605   9.074 -0.2811  0.1572  0.2424
   94loPI   GL2 1494  17.938   8.658   8.876 -0.0837 -0.4858  0.2387
   94loPI   C1A 1495  17.664   8.295   8.775  0.1638 -0.2027 -0.1730
   94loPI   C2A 1496  17.732   8.071   8.529  0.1411 -0.0399  0.3605
   94loPI   C3A 1497  18.049   8.002   8.234  0.3485  0.0433  0.1910
   94loPI   C4A 1498  18.231   7.860   7.807 -0.0003 -0.1746  0.0259
   94loPI   C5A 1499  18.244   7.904   7.318  0.1759  0.1535 -0.1405
   94loPI   C6A 1500  17.900   7.778   7.171 -0.0631  0.1074 -0.0442
   94loPI   C1B 1501  18.228   8.907   8.547 -0.0779  0.0719 -0.1624
   94loPI   C2B 1502  18.313   8.832   8.197 -0.2628  0.0521 -0.0055
   94loPI   C3B 1503  18.586   8.828   7.831  0.0139 -0.0717 -0.3011
   94loPI   C4B 1504  18.711   8.856   7.510 -0.0758  0.1926 -0.0016
   95loPI    C1 1505   7.141   2.103   9.520 -0.1478 -0.0240 -0.1998
   95loPI    C2 1506   7.284   1.773   9.694 -0.2034  0.0339 -0.0429
   95loPI    C3 1507   6.900   1.874   9.744 -0.1616  0.1764 -0.0068
   95loPI   PO4 1508   7.182   2.064   9.238 -0.1996  0.0940 -0.0657
   95loPI   GL1 1509   7.160   1.895   8.871  0.0061  0.5007  0.3182
   95loPI   GL2 1510   7.371   1.710   8.913  0.2175  0.1122  0.0121
   95loPI   C1A 1511   6.891   2.022   8.552 -0.1997 -0.2425 -0.0551
   95loPI   C2A 1512   6.835   2.407   8.290 -0.2170  0.4001  0.0856
   95loPI   C3A 1513   6.445   2.539   8.104  0.1487 -0.0496  0.2105
   95loPI   C4A 1514   6.447   2.664   7.679 -0.0195  0.2665  0.4130
   95loPI   C5A 1515   6.634   2.846   7.336  0.3235  0.2723  0.0298
   95loPI   C6A 1516   6.737   3.175   7.055  0.1384  0.1653 -0.5447
   95loPI   C1B 1517   7.356   1.695   8.417 -0.2105  0.1249  0.0962
   95loPI   C2B 1518   7.300   1.549   7.947 -0.1199 -0.0320  0.1410
   95loPI   C3B 1519   7.456   1.568   7.489 -0.0606  0.1439 -0.0765
   95loPI   C4B 1520   7.501   1.769   7.090 -0.2709  0.1223 -0.2719
   96loPI    C1 1521  11.193  14.498  10.110  0.1226 -0.0753 -0.0482
   96loPI    C2 1522  10.891  14.683  10.297  0.2221  0.0448 -0.0044
   96loPI    C3 1523  11.040  14.344  10.446  0.0062 -0.0998 -0.1118
   96loPI   PO4 1524  11.271  14.751   9.976 -0.3619 -0.4031  0.0089
   96loPI   GL1 1525  11.115  15.030   9.620 -0.0072 -0.4186 -0.0193
   96loPI   GL2 1526  11.367  15.055   9.543  0.0881  0.0393  0.1149
   96loPI   C1A 1527  11.006  14.971   9.182  0.0011  0.0836 -0.0339
   96loPI   C2A 1528  10.964  15.149   8.856 -0.2010 -0.0693 -0.1117
   96loPI   C3A 1529  11.163  15.287   8.478 -0.1232 -0.1076 -0.2657
   96loPI   C4A 1530  11.282  15.242   8.063  0.3489  0.1040 -0.2845
   96loPI   C5A 1531  11.400  15.557   7.738  0.0699  0.0878  0.1838
   96loPI   C6A 1532  11.553  15.777   7.279 -0.2203 -0.0079  0.1253
   96loPI   C1B 1533  11.479  14.874   9.199  0.2117 -0.0372  0.1032
   96loPI   C2B 1534  11.529  14.934   8.693  0.3587  0.2045  0.0622
   96loPI   C3B 1535  11.775  14.932   8.314  0.0087  0.0580 -0.2194
   96loPI   C4B 1536  11.604  14.610   8.027  0.0013 -0.1166  0.1221
   97loPI    C1 1537   4.592  10.980   9.903 -0.1945  0.0844  0.0445
   97loPI    C2 1538   4.683  11.366   9.961 -0.1217  0.0472  0.1820
   97loPI    C3 1539   4.458  11.170  10.228 -0.0198 -0.0501  0.1973
   97loPI   PO4 1540   4.542  10.902   9.650  0.0955 -0.1488  0.2547
   97loPI   GL1 1541   4.607  11.075   9.241 -0.0704  0.0553 -0.0462
   97loPI   GL2 1542   4.943  11.125   9.108  0.0833 -0.4187  0.1454
   97loPI   C1A 1543   4.586  11.243   8.768 -0.1504  0.2629  0.2323
   97loPI   C2A 1544   4.505  10.989   8.373 -0.0910  0.0971 -0.0783
   97loPI   C3A 1545   4.332  10.927   7.932  0.0614 -0.4113 -0.0068
   97loPI   C4A 1546   4.206  10.535   7.752 -0.3324 -0.2060  0.1690
   97loPI   C5A 1547   3.893  10.346   7.562 -0.2229 -0.0401  0.1478
   97loPI   C6A 1548   3.500  10.590   7.422  0.0867 -0.1616  0.3362
   97loPI   C1B 1549   4.821  10.788   8.895 -0.0212 -0.2398 -0.3451
   97loPI   C2B 1550   4.779  10.581   8.401  0.0881  0.1293  0.0311
   97loPI   C3B 1551   4.606  10.448   7.993  0.2337 -0.2035  0.2179
   97loPI   C4B 1552   4.506  10.137   7.763 -0.3287 -0.1653 -0.1002
   98loPI    C1 1553  11.177   9.521   9.705  0.2873  0.1218  0.0990
   98loPI    C2 1554  11.298   9.572  10.083 -0.1169  0.4500  0.1914
   98loPI    C3 1555  10.975   9.766   9.948 -0.2505 -0.0175 -0.1907
   98loPI   PO4 1556  11.236   9.279   9.674  0.1633  0.2984  0.1255
   98loPI   GL1 1557  11.403   9.248   9.344 -0.0587 -0.1043  0.3930
   98loPI   GL2 1558  11.259   8.923   9.363  0.0516 -0.1428  0.1214
   98loPI   C1A 1559  11.517   9.332   8.937  0.1419 -0.0560 -0.0252
   98loPI   C2A 1560  11.462   9.387   8.520 -0.1341  0.0533  0.4796
   98loPI   C3A 1561  11.659   9.618   8.213 -0.1584  0.1350  0.0077
   98loPI   C4A 1562  11.778   9.905   7.906  0.1722 -0.1710  0.0379
   98loPI   C5A 1563  11.796  10.268   7.670  0.0528 -0.1264  0.0608
   98loPI   C6A 1564  11.528  10.205   7.275  0.0839  0.0070 -0.0867
   98loPI   C1B 1565  11.175   8.996   9.006  0.1386  0.1210  0.0499
   98loPI   C2B 1566  10.945   8.916   8.682 -0.2593 -0.2309  0.3531
   98loPI   C3B 1567  10.912   8.991   8.255 -0.1283  0.0749 -0.1410
   98loPI   C4B 1568  10.857   9.082   7.828  0.3264  0.0962 -0.0424
   99loPI    C1 1569  19.842   2.782   9.798  0.1113 -0.2078  0.0449
   99loPI    C2 1570  19.505   2.813   9.584  0.2489 -0.0295 -0.1488
   99loPI    C3 1571  19.524   2.972   9.951  0.0845 -0.1428 -0.0903
   99loPI   PO4 1572  20.022   2.760   9.616 -0.3714  0.2112 -0.1540
   99loPI   GL1 1573  19.923   2.738   9.172  0.2176 -0.1605 -0.2186
   99loPI   GL2 1574  20.198   2.735   9.099  0.2493  0.0191 -0.1079
   99loPI   C1A 1575  19.537   2.901   9.093  0.0338  0.0179  0.0957
   99loPI   C2A 1576  19.127   3.103   8.959  0.1598  0.1443 -0.0797
   99loPI   C3A 1577  18.738   3.289   8.935  0.1935 -0.0505  0.2519
   99loPI   C4A 1578  18.485   3.379   8.617 -0.1411 -0.3791 -0.0763
   99loPI   C5A 1579  18.203   3.196   8.390 -0.1849  0.1058 -0.0172
   99loPI   C6A 1580  17.726   3.147   8.346  0.0224  0.1959  0.0102
   99loPI   C1B 1581  20.255   2.731   8.694 -0.1507 -0.1621  0.0271
   99loPI   C2B 1582  20.559   2.720   8.348 -0.1435 -0.3176  0.1995
   99loPI   C3B 1583  20.686   2.426   8.009 -0.1461 -0.2237 -0.1893
   99loPI   C4B 1584  20.799   1.982   7.840  0.2113  0.1974  0.1036
  100loPI    C1 1585  18.850   0.562   9.552 -0.1069  0.1984 -0.0891
  100loPI    C2 1586  18.829   0.209   9.363  0.0858  0.1270  0.0208
  100loPI    C3 1587  18.598   0.279   9.682 -0.1477  0.2008 -0.1621
  100loPI   PO4 1588  18.825   0.766   9.363  0.2382  0.1085  0.1406
  100loPI   GL1 1589  18.827   0.579   8.931  0.3330 -0.1266  0.0888
  100loPI   GL2 1590  19.173   0.459   9.033 -0.1928  0.1746  0.1880
  100loPI   C1A 1591  18.856   0.894   8.597 -0.0778  0.2181 -0.0344
  100loPI   C2A 1592  18.648   1.033   8.099 -0.1120 -0.3634  0.0851
  100loPI   C3A 1593  18.561   1.100   7.649 -0.2522  0.1331  0.1219
  100loPI   C4A 1594  18.334   1.010   7.283  0.0531  0.0187  0.1758
  100loPI   C5A 1595  18.127   1.208   6.986 -0.1167 -0.0190 -0.1494
  100loPI   C6A 1596  17.873   1.093   6.578  0.1375 -0.2106 -0.1093
  100loPI   C1B 1597  19.308   0.264   8.640 -0.2615 -0.2921  0.1184
  100loPI   C2B 1598  19.396   0.113   8.273  0.0060  0.0091  0.0417
  100loPI   C3B 1599  19.708   0.100   7.894  0.0362 -0.3032 -0.3061
  100loPI   C4B 1600  19.742   0.204   7.489 -0.1335 -0.2357  0.0574
  101loPI    C1 1601   8.164   2.068   9.337  0.1226 -0.0560 -0.0737
  101loPI    C2 1602   8.406   1.802   9.512  0.0043 -0.1545 -0.0586
  101loPI    C3 1603   8.107   1.967   9.720  0.0858  0.0017 -0.0638
  101loPI   PO4 1604   8.150   1.994   9.109  0.0150 -0.1947 -0.2282
  101loPI   GL1 1605   7.922   1.717   8.886 -0.2489  0.0034  0.0119
  101loPI   GL2 1606   7.768   1.516   8.688 -0.0197 -0.0835 -0.1571
  101loPI   C1A 1607   7.658   2.046   8.658  0.3025 -0.0221 -0.0785
  101loPI   C2A 1608   7.355   2.302   8.416 -0.1394 -0.1164 -0.1140
  101loPI   C3A 1609   7.264   2.291   7.981 -0.1000 -0.0916 -0.1443
  101loPI   C4A 1610   7.094   1.970   7.627 -0.4751 -0.1571  0.0503
  101loPI   C5A 1611   7.032   1.652   7.223  0.2921 -0.2623 -0.2928
  101loPI   C6A 1612   7.115   1.524   6.815  0.1265  0.2507  0.3247
  101loPI   C1B 1613   7.767   1.481   8.223  0.0468 -0.0839 -0.1380
  101loPI   C2B 1614   7.907   1.636   7.822 -0.0762 -0.3016 -0.1806
  101loPI   C3B 1615   7.968   1.558   7.377 -0.2448 -0.0678 -0.1422
  101loPI   C4B 1616   7.861   1.240   7.174  0.0179  0.0277 -0.1645
  102loPI    C1 1617  12.106  15.078   9.707 -0.1820 -0.0632  0.1932
  102loPI    C2 1618  11.839  14.814   9.569  0.1110 -0.1451 -0.2342
  102loPI    C3 1619  12.121  14.697   9.827 -0.1344 -0.1041  0.0585
  102loPI   PO4 1620  12.205  15.224   9.543 -0.0062 -0.0435 -0.2610
  102loPI   GL1 1621  11.981  15.144   9.159  0.1829  0.0541  0.1215
  102loPI   GL2 1622  11.954  14.805   9.019  0.3863  0.5245  0.0440
  102loPI   C1A 1623  12.155  15.229   8.770 -0.4012 -0.1368 -0.2064
  102loPI   C2A 1624  12.151  15.369   8.360  0.2124 -0.4153 -0.0494
  102loPI   C3A 1625  12.211  15.232   7.914  0.1520 -0.1483 -0.3854
  102loPI   C4A 1626  12.192  15.201   7.550  0.1812  0.1544 -0.0339
  102loPI   C5A 1627  11.965  14.768   7.380  0.1439  0.0934 -0.1154
  102loPI   C6A 1628  12.116  14.369   7.418  0.0564 -0.1176 -0.1210
  102loPI   C1B 1629  12.162  14.745   8.676 -0.3614 -0.3131 -0.4239
  102loPI   C2B 1630  12.083  14.483   8.322  0.1107  0.0406 -0.2339
  102loPI   C3B 1631  11.908  14.188   8.005 -0.0591  0.2681  0.5899
  102loPI   C4B 1632  11.696  14.304   7.619  0.0485 -0.1233 -0.1103
  103loPI    C1 1633   8.758  10.439  10.110 -0.0543 -0.1189  0.0427
  103loPI    C2 1634   8.868  10.171  10.386 -0.0240  0.0183  0.1649
  103loPI    C3 1635   8.753  10.538  10.498  0.1033  0.1142 -0.0123
  103loPI   PO4 1636   8.623  10.154   9.927  0.0260  0.0312 -0.1883
  103loPI   GL1 1637   8.573   9.751   9.783 -0.2527  0.1521  0.2135
  103loPI   GL2 1638   8.412   9.424   9.603  0.0704 -0.2940  0.0291
  103loPI   C1A 1639   8.514   9.835   9.281  0.2751 -0.2809  0.0239
  103loPI   C2A 1640   8.581   9.868   8.886  0.1244  0.1231  0.1012
  103loPI   C3A 1641   8.548   9.978   8.459  0.2998  0.0718 -0.0212
  103loPI   C4A 1642   8.606  10.117   8.030 -0.1138  0.1919 -0.1342
  103loPI   C5A 1643   8.588  10.221   7.677  0.1064  0.0869 -0.1255
  103loPI   C6A 1644   8.210  10.358   7.428  0.2465 -0.0903  0.0504
  103loPI   C1B 1645   8.643   9.348   9.295 -0.0268  0.0826  0.0587
  103loPI   C2B 1646   8.559   9.363   8.843 -0.1203 -0.2426 -0.1076
  103loPI   C3B 1647   8.615   9.511   8.401 -0.1969  0.1130 -0.0014
  103loPI   C4B 1648   8.435   9.627   8.044 -0.0293  0.0683 -0.1889
  104loPI    C1 1649   0.602   6.811  10.095 -0.2382  0.0785 -0.0207
  104loPI    C2 1650   0.484   6.472  10.272 -0.1698  0.0295 -0.0681
  104loPI    C3 1651   0.780   6.688  10.432 -0.1678  0.0316 -0.0747
  104loPI   PO4 1652   0.576   6.773   9.856 -0.1243 -0.1654 -0.1412
  104loPI   GL1 1653   0.306   6.874   9.521  0.1171  0.0240 -0.1109
  104loPI   GL2 1654   0.582   7.118   9.468  0.1637 -0.0653  0.2052
  104loPI   C1A 1655   0.259   6.607   9.098  0.0836  0.1787 -0.3815
  104loPI   C2A 1656   0.219   6.335   8.656  0.0475 -0.0981  0.1041
  104loPI   C3A 1657   0.223   6.359   8.171  0.1241 -0.0143 -0.0968
  104loPI   C4A 1658   0.425   6.447   7.765  0.1095 -0.2196  0.1337
  104loPI   C5A 1659   0.777   6.697   7.485  0.2432  0.0024  0.1821
  104loPI   C6A 1660   0.972   6.699   7.000 -0.1431 -0.1231  0.1938
  104loPI   C1B 1661   0.519   7.474   9.071 -0.1045 -0.0652  0.0161
  104loPI   C2B 1662   0.616   7.582   8.634  0.1629  0.0711 -0.2424
  104loPI   C3B 1663   0.634   7.384   8.120  0.1882 -0.2550 -0.2897
  104loPI   C4B 1664   0.461   6.948   7.878  0.0806  0.0685  0.3068
  105loPI    C1 1665  17.973   2.301   9.820  0.1034  0.0858 -0.0384
  105loPI    C2 1666  18.353   2.249   9.932  0.0766  0.3006  0.1598
  105loPI    C3 1667  18.069   2.306  10.208 -0.1133  0.0653  0.0172
  105loPI   PO4 1668  17.981   2.442   9.593 -0.5149 -0.1438  0.1226
  105loPI   GL1 1669  17.945   2.388   9.244 -0.0942  0.5187  0.3244
  105loPI   GL2 1670  17.783   2.632   9.197  0.2778 -0.3555 -0.1885
  105loPI   C1A 1671  18.073   2.419   8.871  0.0393  0.2991 -0.0416
  105loPI   C2A 1672  18.311   2.517   8.518  0.1484  0.2046 -0.0217
  105loPI   C3A 1673  18.445   2.793   8.190 -0.0766 -0.0633 -0.0951
  105loPI   C4A 1674  18.346   2.987   7.838  0.2489  0.1424  0.1222
  105loPI   C5A 1675  18.149   3.016   7.482 -0.1182  0.2784  0.1586
  105loPI   C6A 1676  17.801   3.027   7.227  0.2925  0.0084 -0.1500
  105loPI   C1B 1677  17.583   2.570   8.815 -0.1041 -0.2028  0.1732
  105loPI   C2B 1678  17.405   2.291   8.536 -0.1101  0.0310  0.2028
  105loPI   C3B 1679  17.145   2.235   8.188  0.1039 -0.2635  0.0367
  105loPI   C4B 1680  17.037   2.264   7.782  0.0523 -0.0509 -0.0126
  106loPI    C1 1681   1.238  17.714   9.629 -0.1613 -0.2285  0.0534
  106loPI    C2 1682   1.540  17.868   9.842 -0.0827  0.1003 -0.2865
  106loPI    C3 1683   1.210  17.738  10.028  0.1430  0.0153  0.0637
  106loPI   PO4 1684   1.295  17.519   9.518  0.0991  0.0626 -0.0254
  106loPI   GL1 1685   1.481  17.445   9.091 -0.0922 -0.2490  0.0174
  106loPI   GL2 1686   1.464  17.769   9.047  0.0821 -0.0874 -0.1818
  106loPI   C1A 1687   1.300  17.083   8.906 -0.2132  0.0535 -0.0863
  106loPI   C2A 1688   1.145  16.900   8.448  0.2269  0.1164 -0.1317
  106loPI   C3A 1689   1.228  16.778   8.043 -0.2277  0.1143  0.2904
  106loPI   C4A 1690   1.052  16.397   7.847 -0.2035 -0.2160  0.2587
  106loPI   C5A 1691   0.932  16.166   7.417 -0.0332  0.0769 -0.1135
  106loPI   C6A 1692   1.149  15.999   7.114  0.0811  0.3247  0.0015
  106loPI   C1B 1693   1.452  17.649   8.647  0.2673  0.2157  0.4245
  106loPI   C2B 1694   1.224  17.460   8.288 -0.0099  0.1563  0.1321
  106loPI   C3B 1695   0.965  17.225   7.959 -0.1707 -0.0349  0.3649
  106loPI   C4B 1696   1.140  17.086   7.496  0.1291 -0.0645 -0.2643
  107loPI    C1 1697   3.677  11.467  10.189  0.1916 -0.3168  0.0142
  107loPI    C2 1698   3.650  11.245  10.521  0.2618 -0.0653  0.1906
  107loPI    C3 1699   3.777  11.624  10.543  0.2383 -0.0368 -0.1208
  107loPI   PO4 1700   3.810  11.287   9.974  0.1301 -0.3131  0.2044
  107loPI   GL1 1701   3.776  11.403   9.491  0.2417 -0.0581 -0.2502
  107loPI   GL2 1702   3.424  11.272   9.336  0.1653  0.0483 -0.0927
  107loPI   C1A 1703   4.019  11.163   9.180  0.1616 -0.1562 -0.3367
  107loPI   C2A 1704   4.154  10.929   8.776  0.1916 -0.2544 -0.1440
  107loPI   C3A 1705   3.909  10.946   8.297  0.1778  0.1243  0.2343
  107loPI   C4A 1706   3.745  10.967   7.984  0.1003  0.3941  0.1383
  107loPI   C5A 1707   3.609  11.039   7.544  0.1303 -0.0428  0.0865
  107loPI   C6A 1708   3.785  10.912   7.001  0.0735  0.0524 -0.4341
  107loPI   C1B 1709   3.132  11.448   9.111 -0.1060  0.2246  0.0608
  107loPI   C2B 1710   2.793  11.527   8.710 -0.1417  0.1225 -0.3473
  107loPI   C3B 1711   2.645  11.745   8.250  0.1292  0.3937  0.2888
  107loPI   C4B 1712   2.691  11.903   7.923  0.3117 -0.2184  0.3991
  108loPI    C1 1713  16.287   9.715   9.632  0.1367  0.1428  0.3306
  108loPI    C2 1714  16.202   9.514   9.968 -0.0446  0.2639  0.3585
  108loPI    C3 1715  15.933   9.765   9.811 -0.2403 -0.2985 -0.2517
  108loPI   PO4 1716  16.356   9.570   9.477  0.2037  0.3311  0.0039
  108loPI   GL1 1717  16.397   9.612   9.048  0.0695 -0.1234 -0.1040
  108loPI   GL2 1718  16.662   9.800   8.879  0.1888 -0.2316 -0.0071
  108loPI   C1A 1719  16.098   9.802   8.724 -0.2078  0.1945  0.1967
  108loPI   C2A 1720  16.278   9.927   8.342 -0.2375  0.1631  0.0654
  108loPI   C3A 1721  16.362   9.832   7.838  0.1085 -0.1339 -0.1318
  108loPI   C4A 1722  16.022   9.909   7.557 -0.2180  0.1457  0.0615
  108loPI   C5A 1723  15.637   9.637   7.269  0.0191  0.1900  0.1953
  108loPI   C6A 1724  15.370   9.290   7.468 -0.0292  0.2239 -0.3152
  108loPI   C1B 1725  16.556  10.019   8.690 -0.1568  0.3707 -0.1246
  108loPI   C2B 1726  16.748  10.155   8.369 -0.1750 -0.0690  0.1607
  108loPI   C3B 1727  16.688  10.199   7.945  0.3543 -0.1656  0.2766
  108loPI   C4B 1728  16.765  10.047   7.609 -0.4304  0.1509 -0.3565
  109loPI    C1 1729  13.838   8.102   9.200  0.0401  0.0325  0.0458
  109loPI    C2 1730  13.660   8.326   9.480 -0.0456 -0.0659  0.0708
  109loPI    C3 1731  13.755   7.946   9.559 -0.3557 -0.1898 -0.1357
  109loPI   PO4 1732  14.015   8.236   9.129 -0.0180  0.2523  0.1872
  109loPI   GL1 1733  14.039   8.280   8.692 -0.3477 -0.0206  0.0602
  109loPI   GL2 1734  13.916   8.588   8.755  0.1640 -0.2139 -0.2192
  109loPI   C1A 1735  14.223   8.541   8.411 -0.0277  0.3049 -0.2161
  109loPI   C2A 1736  14.453   8.611   8.036 -0.1332  0.3369  0.0253
  109loPI   C3A 1737  14.511   8.722   7.626 -0.1112 -0.0992  0.1746
  109loPI   C4A 1738  14.370   8.753   7.146 -0.0467  0.0860 -0.0833
  109loPI   C5A 1739  13.988   8.828   7.029  0.1635 -0.0519  0.0987
  109loPI   C6A 1740  13.623   8.957   6.677  0.2717  0.2456  0.0492
  109loPI   C1B 1741  13.725   8.632   8.295  0.0213 -0.0143  0.0457
  109loPI   C2B 1742  13.373   8.613   7.993 -0.0175  0.1911  0.1856
  109loPI   C3B 1743  13.277   8.595   7.492  0.3517  0.4157 -0.0866
  109loPI   C4B 1744  13.488   8.751   7.133  0.2189  0.1038 -0.5274
  110loPI    C1 1745   0.852  19.604   9.611 -0.1769 -0.1421  0.0237
  110loPI    C2 1746   1.192  19.584   9.403 -0.0597  0.1175  0.1856
  110loPI    C3 1747   1.166  19.825   9.721 -0.4062  0.1246  0.1557
  110loPI   PO4 1748   0.673  19.497   9.432  0.2028 -0.0834  0.1247
  110loPI   GL1 1749   0.587  19.524   9.019  0.0090  0.3141 -0.1592
  110loPI   GL2 1750   0.478  19.759   8.805  0.0443 -0.1799 -0.0689
  110loPI   C1A 1751   0.870  19.254   8.850  0.0238 -0.1138 -0.2227
  110loPI   C2A 1752   1.148  19.313   8.493  0.3804 -0.3725 -0.3080
  110loPI   C3A 1753   1.347  19.600   8.100 -0.2321 -0.3557 -0.1192
  110loPI   C4A 1754   1.594  19.581   7.762 -0.0746 -0.0391  0.4051
  110loPI   C5A 1755   1.670  19.455   7.299  0.0283  0.0950 -0.2827
  110loPI   C6A 1756   1.807  19.705   6.929  0.1691  0.2260 -0.0397
  110loPI   C1B 1757   0.423  19.844   8.312 -0.1431  0.0827 -0.2014
  110loPI   C2B 1758   0.404  19.692   7.931  0.2965  0.0338  0.0702
  110loPI   C3B 1759   0.525  19.836   7.541 -0.2881 -0.0770 -0.0395
  110loPI   C4B 1760   0.455  19.813   7.081 -0.0948  0.0438  0.0351
  111loPI    C1 1761  18.549  18.573   9.960 -0.0985 -0.0836 -0.0380
  111loPI    C2 1762  18.470  18.844  10.244 -0.1431 -0.0434 -0.0886
  111loPI    C3 1763  18.204  18.556  10.161 -0.0003 -0.2388  0.1199
  111loPI   PO4 1764  18.578  18.669   9.714  0.1166 -0.0437 -0.0822
  111loPI   GL1 1765  18.500  18.627   9.276 -0.1869  0.0886 -0.0140
  111loPI   GL2 1766  18.745  18.462   9.184  0.0927 -0.1340  0.1130
  111loPI   C1A 1767  18.273  18.488   8.893 -0.0657 -0.1210  0.1938
  111loPI   C2A 1768  18.632  18.307   8.670 -0.2005 -0.2337 -0.1725
  111loPI   C3A 1769  18.732  18.233   8.314  0.0204  0.0673  0.0900
  111loPI   C4A 1770  18.875  18.271   7.899  0.1203 -0.0161 -0.3770
  111loPI   C5A 1771  19.068  18.593   7.522  0.1427  0.0240  0.2686
  111loPI   C6A 1772  19.609  18.717   7.367 -0.1983  0.2291  0.4331
  111loPI   C1B 1773  18.695  18.789   8.865  0.2522 -0.0062 -0.1162
  111loPI   C2B 1774  18.578  18.797   8.331 -0.0553 -0.3753  0.0316
  111loPI   C3B 1775  18.378  18.547   7.955  0.0371  0.2208  0.0383
  111loPI   C4B 1776  18.561  18.392   7.580  0.2744 -0.2352 -0.0246
  112loPI    C1 1777   3.514   4.362   9.873  0.0828 -0.1139  0.0422
  112loPI    C2 1778   3.325   4.116  10.126 -0.0363 -0.0268  0.0385
  112loPI    C3 1779   3.557   4.409  10.268 -0.0657 -0.0073  0.0466
  112loPI   PO4 1780   3.370   4.472   9.724 -0.0145 -0.1817 -0.2402
  112loPI   GL1 1781   3.122   4.636   9.543  0.1540 -0.0414  0.4378
  112loPI   GL2 1782   3.085   4.855   9.684 -0.2369 -0.0798 -0.0322
  112loPI   C1A 1783   3.290   4.622   9.064 -0.3352  0.2022 -0.0778
  112loPI   C2A 1784   3.483   4.624   8.770 -0.0347 -0.0820 -0.1319
  112loPI   C3A 1785   3.349   4.796   8.369  0.0555 -0.1435  0.1632
  112loPI   C4A 1786   3.029   4.720   8.036 -0.2017  0.1928 -0.2210
  112loPI   C5A 1787   2.640   4.642   8.061 -0.2103 -0.1884 -0.0570
  112loPI   C6A 1788   2.639   4.617   8.456  0.2792 -0.0798 -0.0154
  112loPI   C1B 1789   2.804   4.678   9.157  0.2882  0.1310  0.2662
  112loPI   C2B 1790   2.583   4.834   8.921  0.0860 -0.0340  0.4445
  112loPI   C3B 1791   2.309   5.043   8.656 -0.2045 -0.2198 -0.2439
  112loPI   C4B 1792   2.373   5.132   8.267  0.2088 -0.3769 -0.1602
  113loPI    C1 1793   2.873  11.977   9.795 -0.1265  0.1298 -0.3793
  113loPI    C2 1794   2.813  11.755  10.122 -0.0539  0.1708 -0.3379
  113loPI    C3 1795   2.637  12.112  10.088  0.0825  0.2460 -0.2626
  113loPI   PO4 1796   3.126  11.946   9.731  0.0929 -0.0682  0.0663
  113loPI   GL1 1797   3.313  11.978   9.295  0.2733 -0.1852 -0.3160
  113loPI   GL2 1798   3.583  11.895   9.359  0.2014 -0.0632 -0.0476
  113loPI   C1A 1799   3.316  11.985   8.931 -0.0105  0.1253 -0.0927
  113loPI   C2A 1800   3.305  11.727   8.514  0.5245  0.2072 -0.0589
  113loPI   C3A 1801   3.199  11.722   8.075  0.2602 -0.2369 -0.1077
  113loPI   C4A 1802   3.262  11.751   7.702  0.2432  0.0303  0.3355
  113loPI   C5A 1803   3.494  11.527   7.442 -0.5817  0.0377 -0.0445
  113loPI   C6A 1804   3.446  11.355   6.997  0.3918 -0.2010  0.3482
  113loPI   C1B 1805   3.654  11.572   9.014 -0.0741  0.0728 -0.0736
  113loPI   C2B 1806   3.774  11.326   8.678 -0.1834 -0.0259 -0.2823
  113loPI   C3B 1807   3.564  11.255   8.349 -0.1939 -0.1710 -0.1004
  113loPI   C4B 1808   3.258  10.932   8.240  0.1082 -0.0115  0.1078
  114loPI    C1 1809   5.640  14.719  10.019 -0.1046 -0.1289  0.0742
  114loPI    C2 1810   5.914  14.830  10.288 -0.1438 -0.0348  0.0759
  114loPI    C3 1811   5.603  14.606  10.401 -0.0355 -0.1941  0.0618
  114loPI   PO4 1812   5.739  14.843   9.789  0.1061 -0.0201  0.3274
  114loPI   GL1 1813   5.672  14.863   9.386  0.0543  0.0852 -0.2198
  114loPI   GL2 1814   5.371  14.822   9.357 -0.1161 -0.1858 -0.1510
  114loPI   C1A 1815   5.777  14.639   9.110  0.2178 -0.0184 -0.2861
  114loPI   C2A 1816   5.765  14.312   8.810 -0.2824 -0.0326  0.0597
  114loPI   C3A 1817   5.696  14.172   8.341  0.0579  0.1424  0.2135
  114loPI   C4A 1818   5.376  14.126   7.993  0.0052  0.2420  0.0295
  114loPI   C5A 1819   5.527  14.228   7.602  0.3705 -0.0342 -0.1039
  114loPI   C6A 1820   5.599  14.144   7.198  0.0717 -0.0605  0.2041
  114loPI   C1B 1821   5.480  15.045   8.982  0.0029  0.0441 -0.0807
  114loPI   C2B 1822   5.253  15.233   8.691  0.0920  0.3014 -0.0443
  114loPI   C3B 1823   5.008  15.418   8.386  0.1152 -0.1850 -0.1610
  114loPI   C4B 1824   4.935  15.542   7.993  0.1671  0.0680  0.2685
  115loPI    C1 1825  13.085  12.169   9.950 -0.0344  0.2473  0.1692
  115loPI    C2 1826  12.772  11.974  10.105 -0.0656 -0.0644 -0.2700
  115loPI    C3 1827  13.122  11.976  10.298 -0.1547 -0.2825 -0.1022
  115loPI   PO4 1828  12.958  12.306   9.784  0.0637  0.0174 -0.2007
  115loPI   GL1 1829  12.932  12.395   9.258 -0.2854  0.0261 -0.1851
  115loPI   GL2 1830  12.656  12.504   9.025 -0.1588 -0.1464  0.1843
  115loPI   C1A 1831  13.112  12.198   8.932  0.2542  0.1781 -0.0502
  115loPI   C2A 1832  13.240  12.116   8.523  0.1090  0.1159  0.1099
  115loPI   C3A 1833  13.371  12.049   8.094 -0.1360  0.0447 -0.4014
  115loPI   C4A 1834  13.676  12.082   7.840  0.1030  0.2041 -0.2827
  115loPI   C5A 1835  14.050  12.272   7.688  0.1295 -0.0432 -0.0178
  115loPI   C6A 1836  14.256  12.343   7.347 -0.0565 -0.1887  0.3333
  115loPI   C1B 1837  12.253  12.392   8.661  0.0209  0.2247  0.0300
  115loPI   C2B 1838  12.040  12.563   8.428  0.0353 -0.1871  0.0881
  115loPI   C3B 1839  12.147  12.755   8.043 -0.0129 -0.4417  0.1459
  115loPI   C4B 1840  12.341  12.819   7.738 -0.1604  0.1904 -0.1437
  116loPI    C1 1841  12.952   1.391   9.215  0.1137 -0.1444  0.1434
  116loPI    C2 1842  12.840   1.765   9.131  0.0317 -0.2058 -0.0243
  116loPI    C3 1843  13.022   1.685   9.478 -0.2247 -0.0633  0.1469
  116loPI   PO4 1844  13.159   1.254   8.993  0.0144  0.0978  0.2766
  116loPI   GL1 1845  13.255   1.214   8.562  0.0284  0.0020 -0.1580
  116loPI   GL2 1846  13.111   1.056   8.530  0.1559 -0.0853 -0.0077
  116loPI   C1A 1847  13.560   1.191   8.225  0.2437 -0.2674 -0.1093
  116loPI   C2A 1848  13.537   1.148   7.887 -0.1460  0.1141  0.0240
  116loPI   C3A 1849  13.438   1.209   7.418  0.0669 -0.0247 -0.1625
  116loPI   C4A 1850  13.202   1.436   7.153 -0.3529 -0.0648  0.0516
  116loPI   C5A 1851  12.924   1.703   6.979 -0.0584 -0.0912  0.1746
  116loPI   C6A 1852  12.782   1.643   6.575 -0.0800 -0.2811 -0.2188
  116loPI   C1B 1853  12.941   1.040   8.054  0.1998  0.1998  0.0803
  116loPI   C2B 1854  13.123   0.882   7.627  0.0033 -0.0236 -0.3481
  116loPI   C3B 1855  13.126   0.708   7.144  0.1421  0.2061 -0.0139
  116loPI   C4B 1856  13.135   0.392   6.814 -0.0748  0.0364 -0.2033
  117loPI    C1 1857   3.277   0.212   9.235  0.1419  0.0699 -0.0810
  117loPI    C2 1858   3.329   0.477   8.940  0.1714 -0.0659 -0.1991
  117loPI    C3 1859   2.961   0.349   9.031  0.1450  0.1025 -0.0638
  117loPI   PO4 1860   3.486  -0.005   9.084  0.2229  0.0586  0.2164
  117loPI   GL1 1861   3.785   0.173   8.821 -0.3997  0.1874  0.0807
  117loPI   GL2 1862   3.867   0.474   8.713 -0.0606  0.0878  0.1337
  117loPI   C1A 1863   3.439   0.177   8.408  0.1226 -0.0750 -0.0067
  117loPI   C2A 1864   3.510   0.304   8.043  0.5099 -0.4558 -0.0560
  117loPI   C3A 1865   3.223   0.425   7.738  0.1087 -0.1473  0.3194
  117loPI   C4A 1866   2.855   0.636   7.709  0.2418  0.0247 -0.1868
  117loPI   C5A 1867   2.696   0.956   7.410 -0.0667 -0.1000  0.0881
  117loPI   C6A 1868   2.227   1.053   7.464  0.0065 -0.0909  0.1156
  117loPI   C1B 1869   4.203   0.594   8.330 -0.0126 -0.0203 -0.0011
  117loPI   C2B 1870   4.260   0.527   7.987  0.2268  0.2723  0.0873
  117loPI   C3B 1871   4.188   0.517   7.588 -0.0319  0.1451  0.3405
  117loPI   C4B 1872   4.147   0.691   7.133  0.0310 -0.0419  0.0211
  118loPI    C1 1873  18.479   5.508   9.822  0.0807 -0.0928  0.0633
  118loPI    C2 1874  18.848   5.607   9.940  0.1049 -0.2214  0.0975
  118loPI    C3 1875  18.795   5.308   9.680  0.0428 -0.0256 -0.1182
  118loPI   PO4 1876  18.255   5.763   9.587  0.0995 -0.3426 -0.1764
  118loPI   GL1 1877  17.927   5.807   9.268 -0.0039 -0.2163 -0.0160
  118loPI   GL2 1878  17.597   5.909   9.227 -0.1009  0.1307 -0.1751
  118loPI   C1A 1879  17.996   5.811   8.857  0.0353  0.1791 -0.0888
  118loPI   C2A 1880  18.135   5.781   8.388  0.1610  0.0249  0.0507
  118loPI   C3A 1881  18.274   5.647   8.005  0.0091 -0.0629  0.0614
  118loPI   C4A 1882  18.549   5.388   7.742 -0.2450 -0.0942  0.2469
  118loPI   C5A 1883  18.862   5.538   7.492  0.1941 -0.2753 -0.3871
  118loPI   C6A 1884  18.972   5.922   7.343  0.1584 -0.0757 -0.1382
  118loPI   C1B 1885  17.502   5.744   8.819  0.0447  0.1005  0.0177
  118loPI   C2B 1886  17.739   5.414   8.635  0.2052  0.2883 -0.3818
  118loPI   C3B 1887  17.640   5.274   8.263 -0.0315  0.1963  0.0986
  118loPI   C4B 1888  17.390   5.310   7.874 -0.1807  0.0293 -0.1207
  119loPI    C1 1889   0.710   1.170   9.526  0.0015  0.2512  0.1002
  119loPI    C2 1890   0.808   0.819   9.689 -0.0494  0.0763 -0.2356
  119loPI    C3 1891   0.578   1.076   9.891 -0.1494 -0.1531 -0.0521
  119loPI   PO4 1892   0.546   1.179   9.307 -0.3248  0.0379 -0.2279
  119loPI   GL1 1893   0.625   1.071   8.990 -0.2104 -0.0539  0.6258
  119loPI   GL2 1894   0.423   0.855   8.838 -0.1906 -0.0632  0.0932
  119loPI   C1A 1895   0.581   1.295   8.607  0.2279 -0.1262 -0.1280
  119loPI   C2A 1896   0.621   1.297   8.239 -0.1281 -0.3424 -0.1896
  119loPI   C3A 1897   0.669   1.326   7.807  0.2124 -0.0725  0.1742
  119loPI   C4A 1898   0.631   1.368   7.428 -0.0243  0.1842 -0.1349
  119loPI   C5A 1899   0.436   1.490   7.048  0.2331  0.3047 -0.2067
  119loPI   C6A 1900   0.258   1.340   6.739 -0.1222  0.1939  0.0036
  119loPI   C1B 1901   0.450   0.797   8.418  0.1822 -0.3562 -0.3673
  119loPI   C2B 1902   0.613   0.881   7.983  0.0423 -0.2164 -0.0602
  119loPI   C3B 1903   0.306   0.906   7.599 -0.5049  0.3928  0.0384
  119loPI   C4B 1904   0.337   1.010   7.121  0.0504  0.0299 -0.1084
  120loPI    C1 1905   4.307   6.493   9.794 -0.0931 -0.4212 -0.1147
  120loPI    C2 1906   4.395   6.534  10.182 -0.1085  0.3576 -0.1774
  120loPI    C3 1907   4.461   6.185   9.997 -0.0117  0.0038  0.4935
  120loPI   PO4 1908   4.377   6.704   9.668  0.1131  0.3677  0.1111
  120loPI   GL1 1909   4.449   6.895   9.208 -0.0258 -0.0218 -0.0745
  120loPI   GL2 1910   4.617   7.173   9.336 -0.1248 -0.3867 -0.1315
  120loPI   C1A 1911   4.755   6.817   8.854 -0.1731  0.0818  0.0238
  120loPI   C2A 1912   4.860   6.482   8.583 -0.1053  0.1470 -0.0791
  120loPI   C3A 1913   5.039   6.220   8.328 -0.2273 -0.0102  0.0374
  120loPI   C4A 1914   5.323   6.283   7.918  0.3822  0.1800  0.1431
  120loPI   C5A 1915   5.288   6.414   7.448  0.2697 -0.5112  0.2810
  120loPI   C6A 1916   5.351   6.803   7.311  0.3620 -0.1539 -0.3247
  120loPI   C1B 1917   4.566   7.270   8.934  0.1058  0.4824  0.1270
  120loPI   C2B 1918   4.515   7.294   8.541  0.1111 -0.0545  0.0516
  120loPI   C3B 1919   4.531   7.157   8.055  0.2253 -0.1452  0.0703
  120loPI   C4B 1920   4.749   6.961   7.760 -0.2488  0.0124 -0.2563
  121loPI    C1 1921   7.244  15.948   9.551 -0.1666 -0.0713 -0.0539
  121loPI    C2 1922   7.331  15.569   9.646  0.1794  0.0341  0.0614
  121loPI    C3 1923   7.301  15.846   9.933  0.0182  0.1136 -0.0308
  121loPI   PO4 1924   7.072  15.950   9.375 -0.3190  0.1850  0.0616
  121loPI   GL1 1925   7.136  15.795   8.996 -0.2168  0.0106  0.0138
  121loPI   GL2 1926   7.126  15.520   9.114  0.1504  0.1215  0.1084
  121loPI   C1A 1927   7.373  15.833   8.676 -0.0159  0.1161 -0.0809
  121loPI   C2A 1928   7.700  15.901   8.288 -0.1586  0.4704  0.3840
  121loPI   C3A 1929   7.741  15.922   7.810  0.3958  0.0107  0.0306
  121loPI   C4A 1930   7.834  15.890   7.292  0.4301 -0.1285 -0.2525
  121loPI   C5A 1931   8.176  16.011   7.019 -0.0501  0.0136  0.1251
  121loPI   C6A 1932   8.550  16.068   6.755 -0.0703 -0.1369 -0.0916
  121loPI   C1B 1933   7.444  15.350   8.827 -0.0693 -0.4792 -0.1322
  121loPI   C2B 1934   7.350  15.381   8.456 -0.0645 -0.0109 -0.0470
  121loPI   C3B 1935   7.494  15.471   8.000  0.2287 -0.1720  0.1601
  121loPI   C4B 1936   7.516  15.473   7.570  0.0805  0.0728  0.3102
  122loPI    C1 1937   6.040  10.330  10.140  0.1752 -0.0340  0.0051
  122loPI    C2 1938   6.351  10.108  10.259 -0.0617 -0.2737  0.1894
  122loPI    C3 1939   6.001  10.081  10.451 -0.2778 -0.2125 -0.1861
  122loPI   PO4 1940   6.172  10.508   9.949  0.5453 -0.1781  0.0317
  122loPI   GL1 1941   6.301  10.520   9.433  0.2742  0.0201  0.1012
  122loPI   GL2 1942   6.070  10.358   9.517 -0.0319 -0.1407  0.2947
  122loPI   C1A 1943   5.985  10.682   9.130  0.0442  0.0946 -0.4216
  122loPI   C2A 1944   5.742  10.476   8.752 -0.1460  0.0939  0.3483
  122loPI   C3A 1945   5.705  10.544   8.370 -0.0215  0.0767 -0.2941
  122loPI   C4A 1946   5.868  10.571   7.948  0.0257  0.1503 -0.0036
  122loPI   C5A 1947   5.988  10.742   7.647 -0.3353 -0.4660 -0.0102
  122loPI   C6A 1948   5.905  11.083   7.447 -0.0804 -0.2092 -0.3179
  122loPI   C1B 1949   6.189  10.220   9.100  0.1122  0.2916 -0.2553
  122loPI   C2B 1950   6.252  10.346   8.689  0.2219 -0.1306 -0.3434
  122loPI   C3B 1951   6.027  10.141   8.309 -0.2313  0.0250 -0.2017
  122loPI   C4B 1952   5.919   9.777   8.207  0.1374 -0.1137  0.0993
  123loPI    C1 1953   7.451  12.601  10.078 -0.1312 -0.0663 -0.1843
  123loPI    C2 1954   7.065  12.551  10.170 -0.0771 -0.2979 -0.0767
  123loPI    C3 1955   7.349  12.428  10.424  0.0682 -0.0233 -0.1020
  123loPI   PO4 1956   7.446  12.592   9.829  0.0179 -0.2547  0.1306
  123loPI   GL1 1957   7.533  12.300   9.555 -0.3585 -0.0968  0.0801
  123loPI   GL2 1958   7.502  12.039   9.373 -0.2571 -0.0707  0.1234
  123loPI   C1A 1959   7.332  12.584   9.149  0.1927 -0.2361 -0.0857
  123loPI   C2A 1960   7.146  12.447   8.780  0.1626 -0.1589  0.1164
  123loPI   C3A 1961   7.037  12.568   8.331  0.0105  0.0932 -0.1876
  123loPI   C4A 1962   7.211  12.680   7.918  0.1913  0.1096  0.1038
  123loPI   C5A 1963   7.147  12.533   7.471 -0.1844 -0.2382 -0.2775
  123loPI   C6A 1964   7.282  12.402   7.024  0.1196  0.1478  0.1197
  123loPI   C1B 1965   7.308  11.992   8.977  0.2543  0.0325 -0.0323
  123loPI   C2B 1966   7.333  11.752   8.596  0.1195 -0.1899 -0.0148
  123loPI   C3B 1967   7.400  11.799   8.221  0.1139  0.1735 -0.4017
  123loPI   C4B 1968   7.665  11.809   7.830  0.1820 -0.0988 -0.0840
  124loPI    C1 1969  11.598  16.881   9.925  0.0474 -0.0254 -0.0512
  124loPI    C2 1970  11.538  16.589  10.192 -0.0984  0.2749  0.2513
  124loPI    C3 1971  11.900  16.755  10.155  0.0282 -0.0550 -0.0421
  124loPI   PO4 1972  11.464  16.821   9.645  0.1492  0.3518 -0.2563
  124loPI   GL1 1973  11.253  16.755   9.284  0.3055 -0.1022  0.0104
  124loPI   GL2 1974  11.251  16.366   9.280 -0.2607 -0.1323 -0.1503
  124loPI   C1A 1975  11.435  16.765   8.923  0.1422 -0.0021 -0.2055
  124loPI   C2A 1976  11.422  17.016   8.555 -0.3175  0.3237 -0.0504
  124loPI   C3A 1977  11.543  17.145   8.099  0.0619 -0.0398 -0.2365
  124loPI   C4A 1978  11.340  17.198   7.678 -0.1362 -0.0210  0.2223
  124loPI   C5A 1979  11.261  17.204   7.252  0.3947 -0.1878 -0.1157
  124loPI   C6A 1980  11.198  17.468   6.910  0.0664 -0.1380  0.2560
  124loPI   C1B 1981  11.277  16.214   8.835 -0.1772 -0.2442 -0.0327
  124loPI   C2B 1982  11.408  16.439   8.405 -0.2140 -0.0101 -0.1215
  124loPI   C3B 1983  11.201  16.690   8.108 -0.0125 -0.1533 -0.5607
  124loPI   C4B 1984  10.937  16.861   7.765 -0.0667 -0.2710 -0.1061
  125loPI    C1 1985  14.950  11.275   9.978  0.1263 -0.1344  0.0632
  125loPI    C2 1986  14.782  11.055  10.267 -0.0891 -0.1545 -0.0755
  125loPI    C3 1987  15.127  11.245  10.336 -0.2978  0.1024  0.3007
  125loPI   PO4 1988  14.668  11.264   9.828 -0.3134 -0.0346 -0.1452
  125loPI   GL1 1989  14.479  11.412   9.414  0.0597  0.0884 -0.0681
  125loPI   GL2 1990  14.735  11.490   9.359  0.0921  0.2263  0.0550
  125loPI   C1A 1991  14.272  11.540   8.980  0.2261 -0.1931 -0.1532
  125loPI   C2A 1992  14.188  11.581   8.567 -0.0597  0.1494 -0.0152
  125loPI   C3A 1993  14.086  11.411   8.243  0.0233  0.1613  0.1067
  125loPI   C4A 1994  13.942  11.359   7.767 -0.0461  0.0998 -0.0820
  125loPI   C5A 1995  13.735  11.434   7.290 -0.0737 -0.2287 -0.0118
  125loPI   C6A 1996  13.477  11.502   6.925  0.3117  0.0063 -0.1574
  125loPI   C1B 1997  14.791  11.564   8.876 -0.1322  0.0606 -0.4478
  125loPI   C2B 1998  14.955  11.583   8.520  0.2961  0.1884 -0.3327
  125loPI   C3B 1999  15.096  11.257   8.255  0.1366 -0.0668 -0.2457
  125loPI   C4B 2000  15.428  11.193   7.982 -0.0265 -0.1569  0.1985
  126loPI    C1 2001  18.383  19.574   9.674  0.1298 -0.0592  0.3236
  126loPI    C2 2002  18.263  19.828   9.959 -0.1558 -0.1237  0.2638
  126loPI    C3 2003  18.546  19.556  10.039 -0.1584 -0.0719  0.4540
  126loPI   PO4 2004  18.357  19.729   9.392  0.3441 -0.2349  0.0349
  126loPI   GL1 2005  18.388  19.649   9.043 -0.0568  0.1404 -0.3091
  126loPI   GL2 2006  18.515  19.412   8.860  0.5028  0.2124 -0.0655
  126loPI   C1A 2007  18.489  20.026   8.697 -0.3393  0.1046 -0.1023
  126loPI   C2A 2008  18.859  20.127   8.495 -0.0111  0.0835 -0.1433
  126loPI   C3A 2009  19.157  20.404   8.270  0.1351  0.0721 -0.1415
  126loPI   C4A 2010  19.522  20.406   8.064  0.1373 -0.1328 -0.0706
  126loPI   C5A 2011  19.477  20.420   7.595 -0.0882  0.1938 -0.0676
  126loPI   C6A 2012  19.665  20.354   7.171  0.1235 -0.0628  0.1205
  126loPI   C1B 2013  18.506  19.442   8.432  0.0039  0.0259 -0.0140
  126loPI   C2B 2014  18.479  19.853   8.190 -0.0745 -0.0351  0.3776
  126loPI   C3B 2015  18.712  20.143   7.946 -0.4340 -0.1143  0.0164
  126loPI   C4B 2016  18.946  20.556   7.771 -0.1775 -0.1471 -0.0796
  127loPI    C1 2017  10.878  12.530  10.009  0.0959 -0.2466 -0.1401
  127loPI    C2 2018  10.558  12.315   9.903  0.0617 -0.2624 -0.0069
  127loPI    C3 2019  10.647  12.362  10.290 -0.0343  0.1123 -0.0263
  127loPI   PO4 2020  11.030  12.502   9.811  0.1230  0.0042  0.0000
  127loPI   GL1 2021  11.031  12.288   9.370  0.1449 -0.3383 -0.2625
  127loPI   GL2 2022  11.224  12.570   9.317 -0.0929  0.1557  0.2461
  127loPI   C1A 2023  10.813  12.341   8.947  0.1656  0.1013 -0.1576
  127loPI   C2A 2024  10.804  12.173   8.602  0.1025 -0.2362 -0.0480
  127loPI   C3A 2025  10.979  12.387   8.296  0.0852 -0.0604  0.0650
  127loPI   C4A 2026  11.126  12.552   7.928  0.0733 -0.3287  0.0317
  127loPI   C5A 2027  11.297  12.899   7.717  0.1082  0.0695  0.0880
  127loPI   C6A 2028  11.419  13.382   7.664 -0.0662  0.1497  0.3083
  127loPI   C1B 2029  11.192  12.866   8.990 -0.1815  0.0464 -0.1070
  127loPI   C2B 2030  10.978  13.150   8.751 -0.2870 -0.0051 -0.1457
  127loPI   C3B 2031  10.854  13.447   8.390 -0.0475  0.1983 -0.0605
  127loPI   C4B 2032  10.645  13.631   8.096  0.3908  0.0599  0.0112
  128loPI    C1 2033   5.059  19.188   9.275 -0.1782  0.0664 -0.2341
  128loPI    C2 2034   5.149  18.929   8.984  0.0631 -0.0162 -0.0886
  128loPI    C3 2035   5.435  19.160   9.142 -0.0719  0.0486  0.0633
  128loPI   PO4 2036   4.816  19.270   9.255 -0.3768 -0.1550 -0.1274
  128loPI   GL1 2037   4.607  19.279   8.923  0.3392  0.3491  0.2614
  128loPI   GL2 2038   4.781  19.575   8.808 -0.1907  0.2433  0.0837
  128loPI   C1A 2039   4.802  19.149   8.556 -0.2666 -0.0081  0.0383
  128loPI   C2A 2040   4.906  19.139   8.144  0.3771  0.1092 -0.0875
  128loPI   C3A 2041   5.074  19.092   7.728 -0.1194  0.0405 -0.0851
  128loPI   C4A 2042   4.935  18.971   7.357  0.0277  0.6534 -0.0938
  128loPI   C5A 2043   4.846  18.892   6.917 -0.1292  0.1289  0.2451
  128loPI   C6A 2044   5.190  18.705   6.566  0.0995  0.2452  0.1028
  128loPI   C1B 2045   4.758  19.792   8.476  0.1966 -0.0708 -0.3408
  128loPI   C2B 2046   4.568  19.984   8.210 -0.1547  0.0878 -0.0123
  128loPI   C3B 2047   4.552  19.895   7.763  0.0594 -0.2956 -0.1303
  128loPI   C4B 2048   4.492  19.984   7.334 -0.0871  0.1353 -0.1021
  129loPI    C1 2049  15.867  19.125   9.544 -0.1559 -0.1209 -0.1458
  129loPI    C2 2050  16.181  19.127   9.791 -0.1799  0.3629 -0.1100
  129loPI    C3 2051  15.870  18.886   9.865  0.2606 -0.2777 -0.2599
  129loPI   PO4 2052  15.807  19.385   9.469 -0.0581  0.0261 -0.0592
  129loPI   GL1 2053  15.933  19.348   9.033  0.0736 -0.2481 -0.2595
  129loPI   GL2 2054  15.890  19.633   8.895 -0.0175  0.0610 -0.0972
  129loPI   C1A 2055  16.160  19.276   8.632 -0.0328 -0.2471 -0.0934
  129loPI   C2A 2056  16.108  19.541   8.314 -0.0918 -0.1411  0.1734
  129loPI   C3A 2057  16.301  19.562   8.031 -0.4849 -0.1130 -0.1952
  129loPI   C4A 2058  16.196  19.405   7.691  0.0779 -0.0271  0.1135
  129loPI   C5A 2059  16.216  19.105   7.355 -0.1433 -0.0368  0.1127
  129loPI   C6A 2060  16.290  19.164   6.941 -0.1960  0.0315 -0.1107
  129loPI   C1B 2061  15.631  19.711   8.574  0.0137  0.0727  0.0572
  129loPI   C2B 2062  15.294  19.477   8.339  0.1077  0.2425 -0.1480
  129loPI   C3B 2063  15.189  19.403   7.940  0.3037  0.1238  0.0686
  129loPI   C4B 2064  15.102  19.313   7.549  0.2309 -0.1798 -0.0341
  130loPI    C1 2065  13.533   4.287   9.537 -0.0507  0.0978  0.1674
  130loPI    C2 2066  13.230   4.437   9.750 -0.1563  0.0902  0.0245
  130loPI    C3 2067  13.543   4.273   9.936 -0.2545  0.0685  0.1726
  130loPI   PO4 2068  13.367   4.138   9.249 -0.2002 -0.1695 -0.2133
  130loPI   GL1 2069  13.478   4.384   8.958 -0.2113  0.1257  0.1574
  130loPI   GL2 2070  13.854   4.253   8.816 -0.0684 -0.0007  0.1350
  130loPI   C1A 2071  13.456   4.515   8.532 -0.1863 -0.1028  0.0895
  130loPI   C2A 2072  13.625   4.361   8.116  0.0968  0.1485 -0.1283
  130loPI   C3A 2073  13.707   4.081   7.741 -0.0355  0.0786  0.0205
  130loPI   C4A 2074  13.643   4.021   7.372 -0.3579  0.2773  0.2443
  130loPI   C5A 2075  13.667   4.056   6.910 -0.3592  0.1481  0.4194
  130loPI   C6A 2076  13.627   4.176   6.486  0.0424  0.1213 -0.1171
  130loPI   C1B 2077  14.042   4.448   8.442 -0.0780 -0.0001  0.2457
  130loPI   C2B 2078  14.139   4.622   8.063  0.1432 -0.1143  0.1714
  130loPI   C3B 2079  14.318   4.891   7.698 -0.0163  0.1921 -0.2680
  130loPI   C4B 2080  14.084   4.960   7.352 -0.2549  0.2417 -0.0059
  131loPI    C1 2081   7.011   5.183   9.957  0.1063 -0.5102 -0.3960
  131loPI    C2 2082   7.350   5.176  10.171  0.0200  0.0031 -0.2279
  131loPI    C3 2083   7.019   5.003  10.314  0.0056  0.2020 -0.0155
  131loPI   PO4 2084   7.126   5.112   9.688  0.0384 -0.2218  0.1428
  131loPI   GL1 2085   7.428   5.250   9.338  0.1267  0.0823  0.0103
  131loPI   GL2 2086   7.610   5.230   9.509 -0.1930  0.1428  0.0444
  131loPI   C1A 2087   7.619   5.044   8.989 -0.0790 -0.1208 -0.2010
  131loPI   C2A 2088   7.633   4.896   8.541 -0.1418 -0.0104 -0.0129
  131loPI   C3A 2089   7.589   4.838   8.121 -0.0014 -0.1560  0.0024
  131loPI   C4A 2090   7.826   4.923   7.725  0.0432  0.4706  0.2666
  131loPI   C5A 2091   7.938   4.791   7.276  0.1565 -0.0732 -0.0904
  131loPI   C6A 2092   8.066   4.996   6.911  0.1605  0.1806  0.0763
  131loPI   C1B 2093   7.855   5.453   9.242  0.3254 -0.0216 -0.5347
  131loPI   C2B 2094   8.111   5.554   8.909 -0.1709 -0.2323  0.2438
  131loPI   C3B 2095   8.480   5.662   8.823 -0.0255  0.0010 -0.0625
  131loPI   C4B 2096   8.709   5.594   8.583  0.0950 -0.0382 -0.0726
  132loPI    C1 2097   6.379   9.681   9.834  0.1429  0.0396  0.2051
  132loPI    C2 2098   6.232   9.880   9.520  0.4398  0.0110  0.0443
  132loPI    C3 2099   6.056   9.913   9.878  0.1793  0.1508 -0.0938
  132loPI   PO4 2100   6.396   9.443   9.670 -0.0323  0.1648  0.0818
  132loPI   GL1 2101   6.686   9.321   9.276  0.2231  0.0626 -0.0366
  132loPI   GL2 2102   6.557   9.649   9.194  0.0429  0.0683 -0.3415
  132loPI   C1A 2103   6.363   9.240   8.952  0.1212  0.0468 -0.0416
  132loPI   C2A 2104   6.278   9.134   8.566  0.1331 -0.1716  0.0979
  132loPI   C3A 2105   6.458   9.050   8.069 -0.3561 -0.0055 -0.0554
  132loPI   C4A 2106   6.059   8.954   7.755 -0.1423  0.0415  0.0093
  132loPI   C5A 2107   5.895   9.189   7.423 -0.2724  0.0556  0.0181
  132loPI   C6A 2108   5.925   9.464   6.968  0.0380  0.0413 -0.1471
  132loPI   C1B 2109   6.237   9.719   8.852 -0.0538 -0.2593  0.1891
  132loPI   C2B 2110   5.815   9.868   8.855  0.2128  0.0908  0.4653
  132loPI   C3B 2111   5.552  10.001   8.572 -0.0876 -0.1722 -0.0711
  132loPI   C4B 2112   5.556  10.124   8.156 -0.0582 -0.2884  0.1930
  133loPI    C1 2113   3.585  16.331   9.916 -0.1503 -0.0674  0.0999
  133loPI    C2 2114   3.839  16.531  10.151 -0.1715 -0.0326  0.0934
  133loPI    C3 2115   3.563  16.291  10.313 -0.0532 -0.1683  0.0954
  133loPI   PO4 2116   3.733  16.192   9.748  0.1351 -0.1183 -0.0978
  133loPI   GL1 2117   3.784  16.183   9.379  0.1556  0.2722 -0.1686
  133loPI   GL2 2118   3.923  16.347   9.101 -0.0395  0.1018 -0.0470
  133loPI   C1A 2119   3.651  15.928   9.086  0.0951 -0.0757 -0.1614
  133loPI   C2A 2120   3.774  15.542   8.833 -0.2202 -0.0932  0.2146
  133loPI   C3A 2121   3.642  15.273   8.436 -0.0527  0.0522 -0.3116
  133loPI   C4A 2122   3.578  14.930   7.987  0.4223  0.0068 -0.0471
  133loPI   C5A 2123   3.425  14.939   7.505  0.0967  0.0976 -0.1486
  133loPI   C6A 2124   3.480  14.770   7.061 -0.0313 -0.1119 -0.0007
  133loPI   C1B 2125   4.208  15.937   9.015 -0.1594  0.0768 -0.1413
  133loPI   C2B 2126   4.334  15.571   8.665 -0.1241  0.0404 -0.1958
  133loPI   C3B 2127   4.163  15.175   8.503  0.1964  0.1726 -0.0311
  133loPI   C4B 2128   4.118  14.882   8.217  0.1199 -0.1193 -0.1214
  134loPI    C1 2129  13.486   8.924   9.619  0.0362 -0.3501  0.1856
  134loPI    C2 2130  13.290   9.141   9.891 -0.0179  0.0662 -0.1741
  134loPI    C3 2131  13.687   9.100   9.917 -0.0118  0.1781 -0.0830
  134loPI   PO4 2132  13.348   8.952   9.334 -0.3231  0.3311 -0.1673
  134loPI   GL1 2133  13.550   9.114   8.979 -0.0031 -0.2068 -0.0440
  134loPI   GL2 2134  13.499   9.422   9.024  0.2212  0.1519  0.0407
  134loPI   C1A 2135  13.588   8.980   8.581  0.1682 -0.1805  0.1557
  134loPI   C2A 2136  13.389   9.076   8.191 -0.2558  0.1553 -0.0521
  134loPI   C3A 2137  13.006   9.124   7.970  0.1142 -0.0828 -0.0373
  134loPI   C4A 2138  12.833   8.806   7.679 -0.0382 -0.0968  0.0661
  134loPI   C5A 2139  12.695   8.619   7.383 -0.1024  0.3275  0.0630
  134loPI   C6A 2140  12.471   8.312   7.258 -0.1348 -0.0537  0.1719
  134loPI   C1B 2141  13.267   9.403   8.668  0.2435 -0.0101 -0.0350
  134loPI   C2B 2142  13.200   9.581   8.263 -0.0332 -0.0118 -0.1253
  134loPI   C3B 2143  13.383   9.471   7.858  0.0808 -0.1906  0.1167
  134loPI   C4B 2144  13.462   9.055   7.749 -0.0575 -0.1895 -0.0842
  135loPI    C1 2145  15.675   9.149   9.902 -0.1466  0.0282 -0.0819
  135loPI    C2 2146  15.984   8.909   9.985 -0.2964 -0.1128  0.0768
  135loPI    C3 2147  15.780   9.083  10.282 -0.0909  0.3439 -0.0402
  135loPI   PO4 2148  15.742   9.288   9.602 -0.3260 -0.3369  0.1377
  135loPI   GL1 2149  15.884   9.443   9.251  0.0377  0.3099  0.2936
  135loPI   GL2 2150  15.982   9.179   9.061 -0.1001  0.1062 -0.2558
  135loPI   C1A 2151  15.810   9.438   8.723 -0.4619 -0.1446  0.1932
  135loPI   C2A 2152  15.765   9.742   8.346 -0.0950  0.0489 -0.0556
  135loPI   C3A 2153  15.766   9.927   7.964  0.2679  0.1369 -0.3198
  135loPI   C4A 2154  16.113  10.255   7.863  0.1543  0.0825 -0.1994
  135loPI   C5A 2155  16.263  10.312   7.456  0.1540 -0.1168  0.3518
  135loPI   C6A 2156  16.689  10.385   7.232  0.1777 -0.0191  0.1655
  135loPI   C1B 2157  16.323   9.239   8.736  0.2540  0.0159  0.2778
  135loPI   C2B 2158  16.692   9.363   8.558  0.0223 -0.1658  0.1092
  135loPI   C3B 2159  16.846   9.638   8.399 -0.0404 -0.1234  0.1352
  135loPI   C4B 2160  16.861   9.758   8.069  0.4183 -0.2675 -0.4734
  136loPI    C1 2161  17.366   3.506   9.712  0.0108 -0.3093  0.0448
  136loPI    C2 2162  17.441   3.166   9.515  0.4735 -0.1036 -0.1510
  136loPI    C3 2163  17.671   3.273   9.824  0.2888  0.0012 -0.0474
  136loPI   PO4 2164  17.258   3.637   9.417 -0.2182 -0.1510  0.5166
  136loPI   GL1 2165  17.219   3.497   9.072  0.1449 -0.0901 -0.2048
  136loPI   GL2 2166  16.911   3.697   9.011  0.0252 -0.0570  0.2212
  136loPI   C1A 2167  17.424   3.453   8.706  0.0631  0.1757 -0.3788
  136loPI   C2A 2168  17.321   3.470   8.340 -0.3952 -0.0237 -0.0309
  136loPI   C3A 2169  17.292   3.324   7.941 -0.2111 -0.1684  0.3015
  136loPI   C4A 2170  17.267   3.124   7.412  0.0765 -0.2090 -0.1379
  136loPI   C5A 2171  17.338   3.026   7.017  0.0854 -0.0086  0.1353
  136loPI   C6A 2172  17.344   2.873   6.537 -0.0256  0.2226  0.0713
  136loPI   C1B 2173  16.943   3.729   8.629  0.1366 -0.4280  0.1172
  136loPI   C2B 2174  16.858   3.717   8.247 -0.1977 -0.1611 -0.1707
  136loPI   C3B 2175  16.837   3.502   7.861 -0.0127 -0.1862 -0.0408
  136loPI   C4B 2176  16.731   3.602   7.554  0.0389  0.2489 -0.3491
  137loPI    C1 2177  18.823   3.197   9.891  0.1603 -0.3220 -0.3050
  137loPI    C2 2178  19.037   2.914  10.074  0.1247 -0.2067 -0.0823
  137loPI    C3 2179  18.978   3.267  10.253 -0.2634 -0.2424 -0.1333
  137loPI   PO4 2180  18.607   3.012   9.794 -0.0322 -0.3714  0.1381
  137loPI   GL1 2181  18.547   3.007   9.291 -0.3761  0.3641  0.1261
  137loPI   GL2 2182  18.261   2.755   9.204 -0.0988  0.1389 -0.2036
  137loPI   C1A 2183  18.863   2.733   9.076  0.0161  0.2101  0.2181
  137loPI   C2A 2184  19.226   2.642   8.832  0.0487  0.0509  0.1349
  137loPI   C3A 2185  19.348   2.633   8.409  0.0561  0.0648  0.0544
  137loPI   C4A 2186  19.524   2.645   8.028  0.0034  0.1871 -0.2216
  137loPI   C5A 2187  19.682   2.575   7.751 -0.1324  0.5013  0.0728
  137loPI   C6A 2188  19.790   2.818   7.420 -0.2381 -0.0790  0.1313
  137loPI   C1B 2189  18.442   2.828   8.866  0.0500 -0.1099 -0.0367
  137loPI   C2B 2190  18.865   2.953   8.576  0.1426 -0.0869 -0.1037
  137loPI   C3B 2191  19.077   2.894   8.141 -0.1973  0.1588 -0.0086
  137loPI   C4B 2192  18.825   2.903   7.793  0.0206 -0.3146  0.0895
  138loPI    C1 2193   3.577  13.635  10.014  0.0658 -0.0290 -0.0403
  138loPI    C2 2194   3.495  13.268  10.150  0.1979 -0.0553 -0.0296
  138loPI    C3 2195   3.494  13.579  10.401  0.3475 -0.0892  0.0139
  138loPI   PO4 2196   3.429  13.700   9.751  0.1472 -0.1494  0.0375
  138loPI   GL1 2197   3.570  13.704   9.321 -0.1659  0.2187 -0.1364
  138loPI   GL2 2198   3.190  13.714   9.257 -0.1015 -0.0740  0.3092
  138loPI   C1A 2199   3.874  13.625   8.986 -0.0642  0.1225  0.1665
  138loPI   C2A 2200   3.919  13.484   8.591 -0.2312  0.0925  0.1054
  138loPI   C3A 2201   4.024  13.327   8.109  0.4232 -0.2643  0.0633
  138loPI   C4A 2202   3.882  13.425   7.782  0.1254  0.1220  0.3456
  138loPI   C5A 2203   3.898  13.199   7.416 -0.1001 -0.0663 -0.3247
  138loPI   C6A 2204   4.229  12.844   7.355 -0.0566 -0.0326  0.0908
  138loPI   C1B 2205   3.363  13.688   8.789 -0.0344 -0.0466  0.0695
  138loPI   C2B 2206   3.423  13.309   8.576  0.2503 -0.0436 -0.2836
  138loPI   C3B 2207   3.086  13.074   8.282 -0.2591 -0.0874  0.1026
  138loPI   C4B 2208   2.750  13.113   7.974 -0.1623  0.0524  0.4609
  139loPI    C1 2209  14.220   1.671   9.232 -0.1322 -0.1575 -0.1037
  139loPI    C2 2210  14.426   1.366   9.390 -0.0048 -0.0496 -0.0595
  139loPI    C3 2211  14.262   1.642   9.629 -0.2265 -0.1504 -0.0931
  139loPI   PO4 2212  14.122   1.490   9.000 -0.1326  0.2263  0.3966
  139loPI   GL1 2213  13.978   1.309   8.603 -0.2553  0.1040 -0.0406
  139loPI   GL2 2214  13.904   1.598   8.507 -0.2767  0.2650  0.0742
  139loPI   C1A 2215  14.423   1.333   8.473 -0.3984  0.1698  0.2048
  139loPI   C2A 2216  14.658   1.177   8.239 -0.2150  0.1141  0.1557
  139loPI   C3A 2217  14.411   0.895   7.966  0.2133 -0.1070 -0.0661
  139loPI   C4A 2218  14.390   0.816   7.498 -0.2035  0.5205  0.3191
  139loPI   C5A 2219  14.412   0.953   7.028 -0.0263  0.1980 -0.0536
  139loPI   C6A 2220  14.249   0.941   6.485 -0.2391 -0.0544  0.0139
  139loPI   C1B 2221  14.174   1.790   8.200  0.3469  0.1747  0.0841
  139loPI   C2B 2222  14.296   1.815   7.822  0.1205 -0.1287 -0.0060
  139loPI   C3B 2223  14.317   1.669   7.421  0.1709 -0.0471 -0.0329
  139loPI   C4B 2224  13.946   1.590   7.162  0.2009 -0.2982 -0.2243
  140loPI    C1 2225   0.863   9.375  10.126 -0.0761 -0.0622 -0.0929
  140loPI    C2 2226   0.981   9.121  10.412  0.0389  0.0402 -0.0486
  140loPI    C3 2227   0.919   9.506  10.500 -0.1272  0.0302 -0.1173
  140loPI   PO4 2228   0.617   9.166  10.008 -0.0900  0.1242 -0.3320
  140loPI   GL1 2229   0.578   8.849   9.743  0.1949 -0.1430  0.0821
  140loPI   GL2 2230   0.293   8.897   9.606 -0.0963  0.0721 -0.0519
  140loPI   C1A 2231   0.716   9.122   9.368 -0.4345 -0.3600 -0.0007
  140loPI   C2A 2232   0.910   9.359   9.101  0.0968  0.1630 -0.0310
  140loPI   C3A 2233   1.125   9.276   8.682  0.2708  0.1279 -0.2749
  140loPI   C4A 2234   1.296   9.358   8.358 -0.1596  0.1688  0.1967
  140loPI   C5A 2235   1.159   9.565   7.956 -0.2421 -0.0257 -0.0727
  140loPI   C6A 2236   1.311   9.556   7.566 -0.3005  0.3258 -0.1185
  140loPI   C1B 2237   0.297   8.772   9.141  0.0591 -0.4450 -0.0514
  140loPI   C2B 2238   0.477   8.963   8.876 -0.2097  0.3154  0.2468
  140loPI   C3B 2239   0.340   9.236   8.512  0.0362  0.1272 -0.0039
  140loPI   C4B 2240   0.389   9.278   8.032 -0.1757 -0.2030 -0.0222
  141loPI    C1 2241   1.087   6.708   9.901 -0.2978 -0.0604 -0.1574
  141loPI    C2 2242   1.227   6.490  10.205  0.0281  0.0747 -0.2069
  141loPI    C3 2243   0.888   6.382  10.023 -0.0446 -0.1415  0.0483
  141loPI   PO4 2244   1.291   6.771   9.648  0.1615 -0.2442  0.1003
  141loPI   GL1 2245   1.105   7.086   9.284  0.4318  0.2644 -0.0271
  141loPI   GL2 2246   1.486   7.062   9.199  0.2090 -0.3229 -0.3162
  141loPI   C1A 2247   1.060   7.408   9.005  0.0071 -0.1981 -0.0069
  141loPI   C2A 2248   1.078   7.548   8.566  0.0880  0.1011 -0.1972
  141loPI   C3A 2249   1.161   7.321   8.103 -0.1349  0.3013 -0.2268
  141loPI   C4A 2250   1.249   7.143   7.771 -0.2415 -0.1349  0.0100
  141loPI   C5A 2251   1.207   7.051   7.403  0.2788 -0.0286 -0.3393
  141loPI   C6A 2252   1.312   7.099   7.050  0.0242  0.1920 -0.0689
  141loPI   C1B 2253   1.383   7.130   8.724 -0.1916  0.1200 -0.0439
  141loPI   C2B 2254   1.008   7.001   8.404 -0.5231 -0.1758  0.0111
  141loPI   C3B 2255   1.046   6.725   8.007  0.0799  0.0439  0.2973
  141loPI   C4B 2256   1.250   6.529   7.698 -0.0489 -0.1359 -0.2403
  142loPI    C1 2257  14.996   9.199   9.921 -0.0612  0.1292  0.0690
  142loPI    C2 2258  15.310   9.435   9.841  0.1007 -0.0766  0.0900
  142loPI    C3 2259  15.292   9.235  10.188  0.0706 -0.2629 -0.0174
  142loPI   PO4 2260  14.905   9.193   9.704  0.0169  0.1383  0.4270
  142loPI   GL1 2261  14.987   9.360   9.447  0.0435  0.0662  0.1925
  142loPI   GL2 2262  15.307   9.403   9.294 -0.1376  0.1441  0.0797
  142loPI   C1A 2263  14.827   9.304   8.919  0.0275  0.0621  0.4233
  142loPI   C2A 2264  14.855   9.515   8.484  0.1932  0.3162  0.1174
  142loPI   C3A 2265  14.795   9.591   8.134  0.0693  0.2718 -0.0090
  142loPI   C4A 2266  14.918   9.427   7.745  0.1451  0.1170 -0.2303
  142loPI   C5A 2267  15.058   9.565   7.254  0.0469 -0.0255  0.0196
  142loPI   C6A 2268  14.936   9.864   6.836 -0.0165 -0.0739 -0.1713
  142loPI   C1B 2269  15.237   9.526   8.918 -0.1448 -0.2060  0.0544
  142loPI   C2B 2270  15.383   9.517   8.524  0.1295  0.0361 -0.1132
  142loPI   C3B 2271  15.481   9.439   8.055  0.3509 -0.3452  0.2772
  142loPI   C4B 2272  15.820   9.455   7.741 -0.0260 -0.0557  0.0165
  143loPI    C1 2273  15.092  17.601   9.754  0.6314 -0.1656  0.2765
  143loPI    C2 2274  15.117  17.901  10.018  0.0397  0.2585 -0.1237
  143loPI    C3 2275  14.923  17.565  10.115  0.2283  0.2220  0.1358
  143loPI   PO4 2276  15.296  17.613   9.598  0.0273  0.2666  0.0664
  143loPI   GL1 2277  15.178  17.420   9.227  0.2873  0.0220 -0.1554
  143loPI   GL2 2278  15.068  17.030   9.136 -0.3574  0.3933  0.0168
  143loPI   C1A 2279  15.307  17.378   8.850  0.0172 -0.1656 -0.1356
  143loPI   C2A 2280  15.453  17.615   8.492 -0.0182  0.0138  0.1440
  143loPI   C3A 2281  15.614  17.623   8.109 -0.2021  0.0011  0.1974
  143loPI   C4A 2282  15.842  17.531   7.702  0.0284  0.1043 -0.1284
  143loPI   C5A 2283  15.992  17.840   7.324  0.1256 -0.2013  0.0502
  143loPI   C6A 2284  15.957  17.753   6.862  0.0186 -0.0584 -0.1216
  143loPI   C1B 2285  14.988  16.928   8.655 -0.1740 -0.2068  0.2903
  143loPI   C2B 2286  14.856  16.969   8.178 -0.2300  0.0471  0.0979
  143loPI   C3B 2287  14.977  17.086   7.774  0.0342  0.0505  0.2252
  143loPI   C4B 2288  15.229  17.116   7.257  0.0945 -0.2016 -0.0381
  144loPI    C1 2289   9.866  17.873   9.980  0.0070  0.1399 -0.0510
  144loPI    C2 2290   9.470  17.927   9.957 -0.0353 -0.0420  0.2078
  144loPI    C3 2291   9.707  18.225  10.081 -0.1098  0.0110  0.2232
  144loPI   PO4 2292   9.896  17.747   9.699  0.4133  0.0758 -0.0206
  144loPI   GL1 2293  10.191  17.902   9.295 -0.0539 -0.0899 -0.0232
  144loPI   GL2 2294   9.896  17.893   9.123 -0.4153  0.0170 -0.1664
  144loPI   C1A 2295  10.367  17.798   8.907 -0.0525  0.1312  0.0041
  144loPI   C2A 2296  10.565  17.635   8.458  0.1373 -0.0813 -0.0448
  144loPI   C3A 2297  10.428  17.547   8.085 -0.1537 -0.0477 -0.3113
  144loPI   C4A 2298  10.042  17.413   7.732  0.0609 -0.0520 -0.1388
  144loPI   C5A 2299   9.805  17.447   7.259  0.1851 -0.0994  0.3023
  144loPI   C6A 2300   9.638  17.509   6.780 -0.2814 -0.0916  0.3285
  144loPI   C1B 2301   9.856  17.830   8.667  0.3047  0.0046  0.2176
  144loPI   C2B 2302   9.946  17.566   8.249  0.0834  0.2041 -0.0463
  144loPI   C3B 2303   9.683  17.172   7.991  0.2997 -0.2541  0.1425
  144loPI   C4B 2304   9.326  16.829   7.885  0.1220  0.0743  0.3163
  145loPI    C1 2305   4.425  17.380   9.369  0.0122  0.3039 -0.0880
  145loPI    C2 2306   4.220  17.067   9.510  0.0526  0.2301 -0.1919
  145loPI    C3 2307   4.169  17.429   9.672 -0.1407  0.2077 -0.2005
  145loPI   PO4 2308   4.382  17.292   9.116 -0.1217 -0.3212  0.0418
  145loPI   GL1 2309   4.588  17.264   8.783  0.0567 -0.0033  0.1177
  145loPI   GL2 2310   4.902  17.223   8.734 -0.1013 -0.2232  0.0760
  145loPI   C1A 2311   4.292  17.240   8.358 -0.1391 -0.3053 -0.0713
  145loPI   C2A 2312   4.052  17.017   8.060  0.0995 -0.0489  0.3377
  145loPI   C3A 2313   4.188  16.826   7.803 -0.0802 -0.1907 -0.0786
  145loPI   C4A 2314   4.420  16.667   7.443 -0.3018 -0.0268  0.3665
  145loPI   C5A 2315   4.566  16.394   7.188  0.2164 -0.0950  0.3651
  145loPI   C6A 2316   4.646  16.301   6.797 -0.1287  0.0186 -0.1176
  145loPI   C1B 2317   4.738  17.067   8.310 -0.2027 -0.1482 -0.0130
  145loPI   C2B 2318   4.650  17.056   7.849  0.1017  0.0624  0.0518
  145loPI   C3B 2319   4.689  17.237   7.491  0.2168 -0.2135 -0.1671
  145loPI   C4B 2320   4.646  17.584   7.244 -0.0749 -0.2915 -0.0046
  146loPI    C1 2321  15.906  15.016   9.786  0.0939  0.0474 -0.0037
  146loPI    C2 2322  15.875  14.645   9.932 -0.2691  0.0897  0.0361
  146loPI    C3 2323  16.086  14.921  10.131  0.0910 -0.1189 -0.0472
  146loPI   PO4 2324  16.000  14.958   9.484 -0.0159  0.2078  0.4099
  146loPI   GL1 2325  16.173  15.122   9.128  0.2152  0.0984 -0.0672
  146loPI   GL2 2326  15.908  14.917   9.021  0.1567 -0.0329 -0.0349
  146loPI   C1A 2327  16.253  15.109   8.653 -0.2228 -0.0145  0.0279
  146loPI   C2A 2328  16.234  15.175   8.247  0.0047  0.0558  0.2458
  146loPI   C3A 2329  16.350  14.925   7.885 -0.2511  0.0230 -0.1180
  146loPI   C4A 2330  16.430  14.702   7.549 -0.2813 -0.1577  0.1616
  146loPI   C5A 2331  16.396  14.532   7.160 -0.1642  0.1900  0.0646
  146loPI   C6A 2332  16.367  14.363   6.783 -0.0829 -0.0004  0.1516
  146loPI   C1B 2333  16.027  14.678   8.683 -0.4134 -0.0971 -0.2142
  146loPI   C2B 2334  16.185  14.667   8.334 -0.0053  0.1601  0.0324
  146loPI   C3B 2335  16.086  14.522   7.958 -0.3330 -0.0717  0.1407
  146loPI   C4B 2336  15.929  14.579   7.486 -0.0152 -0.0789 -0.1512
  147loPI    C1 2337   9.255  10.925  10.114 -0.1374 -0.1335 -0.0028
  147loPI    C2 2338   9.210  10.553  10.254 -0.0398 -0.0868  0.1554
  147loPI    C3 2339   9.510  10.637  10.002  0.0023 -0.0924  0.2036
  147loPI   PO4 2340   8.951  10.918   9.995  0.0306 -0.0260  0.2954
  147loPI   GL1 2341   8.926  11.121   9.601  0.0237 -0.0863  0.1955
  147loPI   GL2 2342   8.867  11.298   9.271 -0.0897 -0.0658 -0.0083
  147loPI   C1A 2343   8.891  10.803   9.230  0.0428 -0.1808  0.0955
  147loPI   C2A 2344   8.884  10.649   8.753  0.1175 -0.3122 -0.0169
  147loPI   C3A 2345   8.963  10.936   8.310  0.0300 -0.2022 -0.1951
  147loPI   C4A 2346   9.247  11.230   8.120  0.1571  0.5277  0.1934
  147loPI   C5A 2347   9.712  11.371   7.983 -0.0328  0.1254  0.0718
  147loPI   C6A 2348   9.903  11.755   7.776 -0.1032 -0.0828 -0.0065
  147loPI   C1B 2349   8.777  11.602   9.090  0.1909 -0.0075 -0.3047
  147loPI   C2B 2350   8.599  11.785   8.823 -0.0748 -0.0661  0.0866
  147loPI   C3B 2351   8.261  11.677   8.517  0.1516 -0.2414 -0.2965
  147loPI   C4B 2352   8.132  11.627   8.090 -0.3330 -0.1130  0.0243
  148loPI    C1 2353   2.372  15.870   9.639 -0.2269 -0.0946 -0.1911
  148loPI    C2 2354   2.224  15.774   9.998  0.1873  0.0099  0.0138
  148loPI    C3 2355   2.154  16.137   9.843 -0.1072 -0.0827 -0.0781
  148loPI   PO4 2356   2.450  15.700   9.535  0.1233 -0.0560  0.2419
  148loPI   GL1 2357   2.233  15.373   9.207 -0.1520  0.2156 -0.1065
  148loPI   GL2 2358   2.273  15.060   9.302  0.0275  0.0043  0.1622
  148loPI   C1A 2359   2.368  15.461   8.874 -0.0076  0.1111 -0.1089
  148loPI   C2A 2360   2.409  15.663   8.550  0.1549  0.1023  0.2807
  148loPI   C3A 2361   2.369  16.004   8.292 -0.3939 -0.1608 -0.0706
  148loPI   C4A 2362   2.552  15.799   7.974  0.1022 -0.2075  0.0781
  148loPI   C5A 2363   2.420  15.626   7.624  0.5805 -0.0502 -0.1882
  148loPI   C6A 2364   2.260  15.625   7.245 -0.0084  0.3287 -0.0340
  148loPI   C1B 2365   2.256  14.927   8.925  0.0389  0.1455 -0.3538
  148loPI   C2B 2366   2.228  15.130   8.543 -0.0049 -0.1541 -0.0795
  148loPI   C3B 2367   2.278  14.968   8.098 -0.1440  0.0306 -0.0132
  148loPI   C4B 2368   2.286  14.806   7.688 -0.0348  0.2853  0.3779
  149loPI    C1 2369  16.947   1.058   9.794 -0.0125  0.1277  0.1375
  149loPI    C2 2370  16.655   1.309   9.905 -0.3100 -0.2091  0.1322
  149loPI    C3 2371  16.735   0.985  10.125 -0.3885 -0.4730 -0.2175
  149loPI   PO4 2372  16.927   1.011   9.549 -0.1907  0.3120 -0.1293
  149loPI   GL1 2373  17.151   1.134   9.299 -0.1104  0.0738  0.3168
  149loPI   GL2 2374  16.865   1.241   9.091  0.0068  0.2646  0.0649
  149loPI   C1A 2375  17.320   1.022   8.870 -0.1637 -0.1733 -0.0501
  149loPI   C2A 2376  17.557   1.257   8.630 -0.2804  0.1800  0.0585
  149loPI   C3A 2377  17.773   1.323   8.346 -0.1113  0.1729  0.0549
  149loPI   C4A 2378  17.812   1.506   7.867 -0.0163 -0.3431  0.0638
  149loPI   C5A 2379  17.560   1.713   7.532 -0.2077  0.1463  0.1210
  149loPI   C6A 2380  17.309   2.053   7.324  0.1127  0.4869 -0.3020
  149loPI   C1B 2381  16.949   1.235   8.620 -0.0341  0.0122 -0.0236
  149loPI   C2B 2382  16.850   1.014   8.295  0.1588  0.3528 -0.0301
  149loPI   C3B 2383  17.066   0.900   7.926 -0.4158  0.2663  0.1490
  149loPI   C4B 2384  17.193   1.315   7.691 -0.2423  0.0649 -0.4376
  150loPI    C1 2385  12.136  19.212   9.751  0.0433 -0.1377  0.2783
  150loPI    C2 2386  11.737  19.248   9.749  0.0578  0.1256 -0.3327
  150loPI    C3 2387  11.950  19.388  10.058 -0.3163 -0.0091 -0.0056
  150loPI   PO4 2388  12.156  19.129   9.543  0.2319 -0.0200  0.0034
  150loPI   GL1 2389  12.297  18.964   9.194  0.0348 -0.1318  0.0347
  150loPI   GL2 2390  12.191  19.206   9.071  0.3512 -0.2093  0.0813
  150loPI   C1A 2391  12.116  18.637   8.833  0.0215  0.1702  0.1316
  150loPI   C2A 2392  11.991  18.671   8.458  0.0683  0.1846  0.5350
  150loPI   C3A 2393  12.003  18.695   8.079  0.0096 -0.2158 -0.0025
  150loPI   C4A 2394  11.831  18.582   7.762  0.2170 -0.1432  0.0215
  150loPI   C5A 2395  11.577  18.750   7.411 -0.2508  0.1309 -0.0320
  150loPI   C6A 2396  11.583  18.823   6.981  0.2707  0.1973  0.1629
  150loPI   C1B 2397  12.219  19.086   8.667  0.1397 -0.1280 -0.3325
  150loPI   C2B 2398  12.277  19.035   8.225  0.1139  0.1377  0.1173
  150loPI   C3B 2399  12.307  18.932   7.705 -0.0115 -0.0245 -0.2844
  150loPI   C4B 2400  12.138  18.785   7.246 -0.0572  0.0883  0.1479
  151loPI    C1 2401  13.265  16.037   9.779 -0.2750  0.0698  0.2498
  151loPI    C2 2402  13.253  15.850  10.132  0.2099 -0.1712  0.1470
  151loPI    C3 2403  13.433  16.206  10.100  0.1992 -0.1669  0.1349
  151loPI   PO4 2404  13.226  15.837   9.590  0.2253  0.1717 -0.0449
  151loPI   GL1 2405  13.180  15.852   9.188  0.2184 -0.0929 -0.0671
  151loPI   GL2 2406  13.227  15.603   9.074 -0.1104 -0.0678  0.1289
  151loPI   C1A 2407  13.302  16.082   8.866  0.3942 -0.2345  0.0878
  151loPI   C2A 2408  13.205  16.054   8.454 -0.3171 -0.1852 -0.2092
  151loPI   C3A 2409  13.320  16.071   7.990 -0.2099 -0.1927 -0.2025
  151loPI   C4A 2410  13.206  16.108   7.499 -0.0880 -0.0281 -0.0765
  151loPI   C5A 2411  13.395  16.008   7.116  0.2510  0.2735 -0.0115
  151loPI   C6A 2412  13.803  15.823   7.089  0.2285 -0.0232  0.0859
  151loPI   C1B 2413  13.229  15.542   8.605  0.2014  0.3124  0.1617
  151loPI   C2B 2414  13.045  15.671   8.197  0.0517  0.2023  0.1064
  151loPI   C3B 2415  12.844  15.767   7.806  0.0288 -0.2153  0.0766
  151loPI   C4B 2416  13.005  15.656   7.440 -0.3691 -0.1772  0.1856
  152loPI    C1 2417   7.341  16.661   9.950  0.1121  0.0156  0.1946
  152loPI    C2 2418   7.137  16.326   9.875  0.1262  0.0931 -0.2186
  152loPI    C3 2419   7.406  16.335  10.171 -0.0024 -0.2035 -0.0888
  152loPI   PO4 2420   7.292  16.772   9.738 -0.2600  0.1849 -0.1922
  152loPI   GL1 2421   7.180  16.461   9.392  0.0944 -0.1047  0.0558
  152loPI   GL2 2422   7.488  16.674   9.199 -0.0166  0.1541  0.1065
  152loPI   C1A 2423   7.095  16.417   8.995 -0.3126 -0.2057 -0.1407
  152loPI   C2A 2424   7.187  16.297   8.637 -0.0125  0.2299 -0.0530
  152loPI   C3A 2425   7.023  16.355   8.333 -0.0077  0.0371 -0.0108
  152loPI   C4A 2426   7.075  16.676   8.062 -0.1838  0.0633 -0.3428
  152loPI   C5A 2427   6.958  16.893   7.746 -0.0575  0.0011  0.0074
  152loPI   C6A 2428   7.069  17.007   7.359 -0.1542 -0.1010  0.0413
  152loPI   C1B 2429   7.486  16.729   8.745 -0.1170  0.1573  0.0926
  152loPI   C2B 2430   7.528  16.771   8.391  0.3222 -0.3841  0.2610
  152loPI   C3B 2431   7.530  16.857   7.969  0.2461  0.1142 -0.4126
  152loPI   C4B 2432   7.645  16.970   7.465 -0.2787  0.1266  0.0337
  153loPI    C1 2433  18.928  14.186   9.529 -0.0241 -0.0645 -0.1926
  153loPI    C2 2434  18.602  14.151   9.758  0.1652 -0.0725  0.0816
  153loPI    C3 2435  18.916  13.911   9.819  0.2026 -0.1052 -0.2198
  153loPI   PO4 2436  18.856  14.130   9.245 -0.1353 -0.0546  0.1396
  153loPI   GL1 2437  18.696  13.830   9.055  0.4434  0.0559 -0.0711
  153loPI   GL2 2438  18.735  13.477   9.160 -0.3130 -0.1418 -0.0082
  153loPI   C1A 2439  18.550  13.615   8.695  0.1043  0.3075 -0.0153
  153loPI   C2A 2440  18.300  13.603   8.350  0.2091 -0.1913 -0.1512
  153loPI   C3A 2441  18.223  13.904   8.066  0.2536  0.0878 -0.1906
  153loPI   C4A 2442  18.350  13.976   7.641 -0.1186  0.0187  0.1287
  153loPI   C5A 2443  18.464  14.065   7.126  0.1144  0.1557  0.1272
  153loPI   C6A 2444  18.360  13.878   6.686  0.2834  0.0522 -0.0319
  153loPI   C1B 2445  18.997  13.477   8.786 -0.0057  0.2848 -0.0001
  153loPI   C2B 2446  18.810  13.499   8.297  0.1013 -0.0554 -0.3511
  153loPI   C3B 2447  18.586  13.498   7.969 -0.0128 -0.1515  0.0902
  153loPI   C4B 2448  18.498  13.217   7.625  0.0175  0.3326 -0.1585
  154loPI    C1 2449  18.688  17.175   9.648 -0.0642 -0.3771  0.0852
  154loPI    C2 2450  18.369  17.393   9.753  0.0994 -0.1013  0.0223
  154loPI    C3 2451  18.624  17.263  10.033  0.0017 -0.2140  0.0601
  154loPI   PO4 2452  18.722  17.249   9.393  0.1501 -0.0585 -0.2185
  154loPI   GL1 2453  18.774  17.443   9.073  0.1095 -0.1122  0.2679
  154loPI   GL2 2454  19.059  17.520   8.944  0.0085  0.2148  0.2189
  154loPI   C1A 2455  18.585  17.710   8.727 -0.1676  0.1184  0.2922
  154loPI   C2A 2456  18.461  17.739   8.354  0.0714 -0.0684  0.3267
  154loPI   C3A 2457  18.314  17.953   8.082  0.1638  0.3271 -0.1673
  154loPI   C4A 2458  18.130  18.144   7.684 -0.0267 -0.1255  0.1178
  154loPI   C5A 2459  17.897  18.223   7.405  0.2193 -0.0183  0.1149
  154loPI   C6A 2460  17.794  18.289   6.970  0.0654  0.0400  0.3314
  154loPI   C1B 2461  19.011  17.774   8.446  0.1493 -0.2407 -0.1340
  154loPI   C2B 2462  18.801  17.754   7.992  0.0528 -0.1496 -0.2520
  154loPI   C3B 2463  18.552  17.761   7.587 -0.0778 -0.4953 -0.0012
  154loPI   C4B 2464  18.475  17.760   7.121  0.0049  0.0082  0.0357
  155loPI    C1 2465  10.732  17.370   9.938 -0.0871 -0.0806 -0.1325
  155loPI    C2 2466  10.425  17.312  10.187 -0.2121 -0.1866 -0.3087
  155loPI    C3 2467  10.783  17.154  10.271 -0.0523  0.3983  0.1814
  155loPI   PO4 2468  10.650  17.342   9.726  0.2425  0.0081  0.0685
  155loPI   GL1 2469  10.848  17.519   9.344 -0.1196 -0.0421 -0.1877
  155loPI   GL2 2470  10.894  17.280   9.249 -0.0673 -0.2821  0.0160
  155loPI   C1A 2471  10.877  17.604   8.847  0.1297  0.0599  0.0248
  155loPI   C2A 2472  11.038  17.866   8.459  0.2297  0.2252  0.0657
  155loPI   C3A 2473  10.987  17.764   8.051  0.1961 -0.2531 -0.1066
  155loPI   C4A 2474  10.975  18.011   7.634  0.0115 -0.0130 -0.0676
  155loPI   C5A 2475  10.766  18.112   7.255  0.4271  0.0878  0.0141
  155loPI   C6A 2476  10.509  18.180   6.881  0.0038 -0.2535 -0.0239
  155loPI   C1B 2477  11.030  17.100   8.862  0.2411 -0.1405 -0.0286
  155loPI   C2B 2478  10.900  17.097   8.380  0.1523  0.0538  0.1076
  155loPI   C3B 2479  11.054  17.286   8.106 -0.3040  0.2446  0.0859
  155loPI   C4B 2480  10.930  17.461   7.662  0.2340  0.0283  0.0150
  156loPI    C1 2481   0.826   5.313   9.810  0.0321 -0.1258 -0.2301
  156loPI    C2 2482   1.158   5.093   9.777  0.1880  0.0982 -0.1778
  156loPI    C3 2483   1.177   5.462   9.930 -0.0955  0.0906 -0.1191
  156loPI   PO4 2484   0.758   5.350   9.559  0.0117 -0.1639 -0.2438
  156loPI   GL1 2485   1.024   5.167   9.321 -0.0989  0.1116  0.4248
  156loPI   GL2 2486   0.787   4.984   9.138 -0.2294  0.0063  0.0170
  156loPI   C1A 2487   1.117   5.406   9.000  0.1429 -0.0018 -0.0457
  156loPI   C2A 2488   0.918   5.590   8.715 -0.0656 -0.0735 -0.1001
  156loPI   C3A 2489   0.640   5.530   8.428 -0.1842  0.0735  0.1139
  156loPI   C4A 2490   0.178   5.392   8.498 -0.1957 -0.2802  0.0484
  156loPI   C5A 2491  -0.134   5.449   8.729 -0.2266 -0.1743  0.2677
  156loPI   C6A 2492  -0.431   5.831   8.702 -0.3878  0.1280 -0.1455
  156loPI   C1B 2493   0.930   4.970   8.763 -0.1007  0.2831  0.0510
  156loPI   C2B 2494   0.934   4.885   8.365  0.3053 -0.0733 -0.3810
  156loPI   C3B 2495   1.246   4.967   8.035  0.0837  0.1018 -0.1467
  156loPI   C4B 2496   1.125   5.262   7.687  0.2143  0.2595  0.1771
  157loPI    C1 2497   0.603   0.331   9.688 -0.4820  0.1370 -0.0902
  157loPI    C2 2498   0.413  -0.017   9.742 -0.2546  0.0233 -0.0073
  157loPI    C3 2499   0.510   0.210  10.057  0.1003 -0.1129 -0.0144
  157loPI   PO4 2500   0.792   0.346   9.508  0.0620  0.1027  0.1283
  157loPI   GL1 2501   0.891   0.162   9.122  0.0890 -0.0479  0.3041
  157loPI   GL2 2502   0.732   0.391   9.006 -0.1737 -0.0462 -0.1228
  157loPI   C1A 2503   1.022  -0.018   8.706  0.0570 -0.0942  0.1609
  157loPI   C2A 2504   0.892  -0.122   8.226  0.1201  0.0524  0.0257
  157loPI   C3A 2505   0.868  -0.206   7.785  0.2556 -0.1491  0.0769
  157loPI   C4A 2506   0.921  -0.186   7.436 -0.0623 -0.3109 -0.3189
  157loPI   C5A 2507   0.799  -0.357   7.104  0.0635 -0.0316  0.1146
  157loPI   C6A 2508   0.972  -0.689   6.985 -0.1940  0.3019  0.3178
  157loPI   C1B 2509   0.670   0.394   8.561 -0.1598 -0.1978 -0.1910
  157loPI   C2B 2510   0.706   0.355   8.062 -0.1968 -0.1128 -0.0179
  157loPI   C3B 2511   0.796   0.464   7.661 -0.1307  0.0481 -0.0783
  157loPI   C4B 2512   0.941   0.313   7.318 -0.6072 -0.0445 -0.1722
  158loPI    C1 2513  14.551  14.901   9.347  0.1466 -0.1843 -0.2372
  158loPI    C2 2514  14.924  14.916   9.491 -0.0234 -0.0057  0.2006
  158loPI    C3 2515  14.613  14.914   9.742 -0.3255  0.0625 -0.1649
  158loPI   PO4 2516  14.447  14.775   9.197 -0.1263  0.1954  0.0003
  158loPI   GL1 2517  14.454  14.529   8.898  0.3065  0.0152 -0.4058
  158loPI   GL2 2518  14.252  14.319   8.830  0.0631  0.0548 -0.0469
  158loPI   C1A 2519  14.413  14.777   8.528 -0.1319  0.0804 -0.1047
  158loPI   C2A 2520  14.361  14.977   8.145  0.1770 -0.0278  0.0994
  158loPI   C3A 2521  14.279  15.174   7.730  0.0871 -0.1346  0.0227
  158loPI   C4A 2522  14.308  15.165   7.321  0.2310 -0.0900  0.0701
  158loPI   C5A 2523  14.372  14.990   6.921  0.0490 -0.1588 -0.0793
  158loPI   C6A 2524  14.437  15.253   6.534 -0.2646  0.1721  0.1307
  158loPI   C1B 2525  14.009  14.495   8.592 -0.0096  0.0137 -0.2269
  158loPI   C2B 2526  13.959  14.865   8.355 -0.0289  0.0870 -0.2750
  158loPI   C3B 2527  13.708  14.997   8.087 -0.2255  0.2215 -0.3406
  158loPI   C4B 2528  13.497  14.685   7.729 -0.0356  0.1771  0.1473
  159loPI    C1 2529   9.508  14.479   9.928 -0.0858 -0.2598  0.0957
  159loPI    C2 2530   9.898  14.543   9.993 -0.0590 -0.0599 -0.2371
  159loPI    C3 2531   9.669  14.387  10.282  0.1940  0.1447  0.0804
  159loPI   PO4 2532   9.498  14.456   9.700 -0.0562  0.0535  0.1636
  159loPI   GL1 2533   9.641  14.419   9.342  0.0220  0.2845  0.0840
  159loPI   GL2 2534   9.320  14.228   9.265  0.2274 -0.1107 -0.3411
  159loPI   C1A 2535   9.741  14.468   8.952 -0.1234  0.1204 -0.1858
  159loPI   C2A 2536   9.696  14.672   8.579  0.1436 -0.0782 -0.1232
  159loPI   C3A 2537   9.830  14.699   8.235 -0.0827  0.1004  0.0081
  159loPI   C4A 2538   9.950  14.561   7.762 -0.0334  0.0518  0.0996
  159loPI   C5A 2539  10.366  14.646   7.682 -0.1494  0.1920 -0.2303
  159loPI   C6A 2540  10.809  14.664   7.560 -0.1005  0.0563  0.0030
  159loPI   C1B 2541   9.233  14.253   8.911 -0.4229 -0.0557  0.0979
  159loPI   C2B 2542   9.459  14.237   8.489 -0.2931  0.1099  0.1849
  159loPI   C3B 2543   9.545  13.869   8.327 -0.0177  0.4793  0.1063
  159loPI   C4B 2544   9.481  13.924   7.886 -0.1295  0.4048  0.0432
  160loPI    C1 2545   8.200   9.402  10.053  0.1564  0.2363 -0.1856
  160loPI    C2 2546   8.363   9.662  10.309  0.3484 -0.0755  0.0151
  160loPI    C3 2547   8.183   9.332  10.446 -0.1795  0.1037 -0.2203
  160loPI   PO4 2548   8.016   9.548   9.912 -0.1223 -0.2137 -0.2562
  160loPI   GL1 2549   7.919   9.588   9.459  0.0053  0.4146 -0.1142
  160loPI   GL2 2550   7.670   9.413   9.453  0.1591  0.2835 -0.3118
  160loPI   C1A 2551   8.172   9.480   9.196  0.0100  0.0667 -0.0150
  160loPI   C2A 2552   8.139   9.602   8.771 -0.1690  0.1253  0.0591
  160loPI   C3A 2553   8.052   9.625   8.365  0.0288  0.3310 -0.1350
  160loPI   C4A 2554   7.846   9.583   7.981  0.1181 -0.2622 -0.1318
  160loPI   C5A 2555   7.447   9.592   7.900  0.2047  0.0624 -0.0027
  160loPI   C6A 2556   7.264   9.506   7.463 -0.0958 -0.0856  0.0320
  160loPI   C1B 2557   7.716   9.276   9.074 -0.1864 -0.1168 -0.4635
  160loPI   C2B 2558   7.630   9.377   8.606 -0.0645 -0.1126  0.1842
  160loPI   C3B 2559   7.790   9.160   8.215  0.2385 -0.0559  0.1697
  160loPI   C4B 2560   7.848   8.738   7.946  0.0113  0.0435  0.2036
  161loPI    C1 2561  12.429  17.420   9.835  0.4249 -0.1813  0.0253
  161loPI    C2 2562  12.537  17.048   9.734 -0.1278 -0.4207  0.2744
  161loPI    C3 2563  12.407  17.124  10.104 -0.1439 -0.0027  0.1875
  161loPI   PO4 2564  12.456  17.539   9.638 -0.1706  0.4232  0.2504
  161loPI   GL1 2565  12.599  17.581   9.209  0.3161 -0.1551  0.1603
  161loPI   GL2 2566  12.663  17.834   8.934  0.1125  0.1227  0.2721
  161loPI   C1A 2567  12.244  17.463   8.930  0.2354  0.0720  0.2359
  161loPI   C2A 2568  12.443  17.308   8.518  0.3624 -0.2099 -0.1022
  161loPI   C3A 2569  12.478  17.327   8.140 -0.0428 -0.1991 -0.1320
  161loPI   C4A 2570  12.306  17.360   7.806  0.0193  0.3261  0.2766
  161loPI   C5A 2571  12.193  17.378   7.374 -0.0522 -0.0807 -0.0989
  161loPI   C6A 2572  12.039  17.291   6.946 -0.0422 -0.1909 -0.1628
  161loPI   C1B 2573  12.493  17.800   8.483 -0.0357  0.0461  0.0575
  161loPI   C2B 2574  12.441  17.831   8.130 -0.2172  0.1520 -0.1212
  161loPI   C3B 2575  12.344  17.898   7.630  0.1207 -0.0409 -0.0959
  161loPI   C4B 2576  12.413  17.774   7.180  0.0186 -0.0601 -0.0782
  162loPI    C1 2577   4.512  16.635   9.692  0.0835  0.1351  0.0001
  162loPI    C2 2578   4.311  16.380   9.925 -0.0666 -0.0445 -0.3194
  162loPI    C3 2579   4.305  16.772  10.006  0.1652 -0.1355  0.1746
  162loPI   PO4 2580   4.487  16.560   9.433 -0.0258 -0.0332 -0.0098
  162loPI   GL1 2581   4.476  16.442   8.976 -0.5796 -0.3839 -0.1910
  162loPI   GL2 2582   4.536  16.739   8.733  0.0186 -0.0162  0.0352
  162loPI   C1A 2583   4.330  16.264   8.646  0.0911 -0.4495  0.1244
  162loPI   C2A 2584   4.230  16.126   8.236 -0.0727  0.0198 -0.0767
  162loPI   C3A 2585   4.050  15.892   7.840 -0.0850  0.0746 -0.2493
  162loPI   C4A 2586   3.916  15.676   7.585  0.1888 -0.2898 -0.0445
  162loPI   C5A 2587   3.647  15.769   7.197 -0.1698  0.2757 -0.1696
  162loPI   C6A 2588   3.198  15.848   7.265  0.1578 -0.0644  0.0060
  162loPI   C1B 2589   4.427  16.664   8.311 -0.0411 -0.1295 -0.0684
  162loPI   C2B 2590   4.482  16.427   7.926 -0.1702  0.0347  0.0192
  162loPI   C3B 2591   4.386  16.153   7.559  0.0610 -0.0157 -0.0376
  162loPI   C4B 2592   4.089  16.084   7.238  0.0835 -0.0455 -0.2942
  163loPI    C1 2593  12.335  14.306   9.643  0.0483  0.0833  0.0940
  163loPI    C2 2594  12.280  13.911   9.674 -0.0928  0.0911 -0.0433
  163loPI    C3 2595  12.483  14.108   9.957 -0.1031 -0.0643  0.0735
  163loPI   PO4 2596  12.086  14.334   9.493  0.3220 -0.1107  0.0577
  163loPI   GL1 2597  11.955  14.032   9.207 -0.2131 -0.2332  0.4324
  163loPI   GL2 2598  12.350  14.008   9.175  0.2472 -0.0612 -0.2925
  163loPI   C1A 2599  12.032  14.153   8.748 -0.0273  0.2465 -0.0621
  163loPI   C2A 2600  12.292  13.952   8.377 -0.0020  0.0518  0.2486
  163loPI   C3A 2601  12.340  13.854   7.908  0.0752 -0.1211  0.0781
  163loPI   C4A 2602  12.132  13.919   7.568  0.2671  0.0577  0.1894
  163loPI   C5A 2603  11.816  13.795   7.394 -0.2827 -0.5216  0.0597
  163loPI   C6A 2604  11.766  13.476   7.311  0.4693  0.0678 -0.1833
  163loPI   C1B 2605  12.524  13.884   8.872  0.1464  0.3213  0.1532
  163loPI   C2B 2606  12.882  13.996   8.557 -0.0275 -0.0532 -0.2684
  163loPI   C3B 2607  12.998  14.202   8.201  0.2104  0.1008  0.2064
  163loPI   C4B 2608  13.030  14.310   7.845  0.2555 -0.1693  0.4645
  164loPI    C1 2609   5.456  13.818  10.031 -0.2228  0.1322 -0.1205
  164loPI    C2 2610   5.236  13.874  10.360  0.1700  0.3054  0.1194
  164loPI    C3 2611   5.540  14.120  10.278  0.2445  0.1027 -0.2349
  164loPI   PO4 2612   5.264  13.738   9.819  0.0932 -0.0819 -0.1867
  164loPI   GL1 2613   5.256  13.647   9.458 -0.2524  0.0250  0.0153
  164loPI   GL2 2614   5.562  13.612   9.424  0.1487 -0.1147  0.3092
  164loPI   C1A 2615   5.250  13.477   9.022  0.0501 -0.2148  0.3722
  164loPI   C2A 2616   5.230  13.369   8.612 -0.1015 -0.3634 -0.1343
  164loPI   C3A 2617   5.220  13.298   8.191 -0.1603  0.1979 -0.3978
  164loPI   C4A 2618   5.238  13.147   7.729 -0.1180 -0.3158 -0.0612
  164loPI   C5A 2619   5.446  13.327   7.346  0.0179  0.1557 -0.0178
  164loPI   C6A 2620   5.629  13.487   6.948 -0.0270  0.0147 -0.0717
  164loPI   C1B 2621   5.732  13.495   9.054 -0.1330  0.0282  0.2092
  164loPI   C2B 2622   5.810  13.278   8.595  0.2334  0.0205  0.0544
  164loPI   C3B 2623   5.792  13.102   8.251 -0.1075 -0.0545 -0.1845
  164loPI   C4B 2624   5.703  13.220   7.864 -0.0508 -0.0185  0.0968
  165loPI    C1 2625   0.618   4.434   9.987 -0.1293  0.1381 -0.0030
  165loPI    C2 2626   0.784   4.323  10.333  0.2012  0.2110 -0.1340
  165loPI    C3 2627   0.685   4.706  10.272  0.0656  0.1835 -0.0904
  165loPI   PO4 2628   0.652   4.211   9.821 -0.2023 -0.2260 -0.2433
  165loPI   GL1 2629   0.662   4.231   9.398  0.2708  0.5237  0.0235
  165loPI   GL2 2630   0.866   4.259   9.292  0.1241 -0.0031  0.1529
  165loPI   C1A 2631   0.372   4.219   9.116  0.1125 -0.0914  0.0130
  165loPI   C2A 2632  -0.009   4.144   8.956  0.0272 -0.0896 -0.1530
  165loPI   C3A 2633  -0.171   3.950   8.611 -0.0429  0.0192 -0.0641
  165loPI   C4A 2634  -0.532   3.682   8.391  0.2386 -0.0743  0.0683
  165loPI   C5A 2635  -0.786   3.412   8.114  0.1538  0.0415 -0.4211
  165loPI   C6A 2636  -1.097   3.222   8.161 -0.1305  0.1195 -0.1850
  165loPI   C1B 2637   0.729   4.498   8.894  0.4414 -0.1011  0.3666
  165loPI   C2B 2638   0.657   4.495   8.477 -0.4056  0.2109 -0.0258
  165loPI   C3B 2639   0.445   4.492   8.101 -0.0698  0.0231  0.2360
  165loPI   C4B 2640   0.560   4.529   7.656 -0.1493 -0.0676  0.0977
  166loPI    C1 2641  11.645   5.141   9.828 -0.1913  0.0031  0.2892
  166loPI    C2 2642  11.698   5.533   9.882 -0.0242  0.0454 -0.1414
  166loPI    C3 2643  11.908   5.271  10.099  0.2173  0.1985 -0.1872
  166loPI   PO4 2644  11.610   5.177   9.519 -0.3713 -0.1358 -0.4231
  166loPI   GL1 2645  11.660   5.357   9.198 -0.0987 -0.0976 -0.2330
  166loPI   GL2 2646  11.958   5.549   9.102  0.2513 -0.0178 -0.2939
  166loPI   C1A 2647  11.529   5.357   8.803  0.1317 -0.0287 -0.0046
  166loPI   C2A 2648  11.449   5.412   8.278  0.1626  0.0555 -0.0189
  166loPI   C3A 2649  11.447   5.739   7.880 -0.0118  0.0103 -0.1136
  166loPI   C4A 2650  11.643   5.998   7.519  0.1974 -0.1778  0.0290
  166loPI   C5A 2651  11.636   6.026   7.040 -0.1854  0.1174  0.1842
  166loPI   C6A 2652  11.449   6.086   6.666  0.3363 -0.3733  0.5260
  166loPI   C1B 2653  11.918   5.726   8.658 -0.1714  0.1455 -0.0665
  166loPI   C2B 2654  11.790   5.892   8.390 -0.0623 -0.0313  0.2696
  166loPI   C3B 2655  11.843   6.070   8.038 -0.0468  0.1160 -0.1065
  166loPI   C4B 2656  12.190   6.297   7.825  0.1704 -0.0319 -0.0805
  167loPI    C1 2657   4.552   7.094  10.005  0.2780  0.2615  0.1483
  167loPI    C2 2658   4.279   7.015  10.287 -0.0240  0.0054 -0.2070
  167loPI    C3 2659   4.662   6.918  10.348 -0.0780 -0.0072  0.1312
  167loPI   PO4 2660   4.427   7.382   9.950 -0.0375 -0.2519  0.0338
  167loPI   GL1 2661   4.408   7.622   9.514 -0.0330  0.1036  0.0839
  167loPI   GL2 2662   4.235   7.503   9.231 -0.0450  0.1682 -0.0790
  167loPI   C1A 2663   4.568   7.784   9.108  0.0427  0.0297 -0.3653
  167loPI   C2A 2664   4.559   7.780   8.730 -0.1808 -0.1437  0.2553
  167loPI   C3A 2665   4.655   7.726   8.365 -0.0327 -0.3071 -0.1619
  167loPI   C4A 2666   4.731   7.686   7.921  0.2932 -0.2131  0.4354
  167loPI   C5A 2667   4.500   7.511   7.600 -0.3279 -0.3583 -0.5088
  167loPI   C6A 2668   4.224   7.639   7.387  0.1171  0.1557  0.1212
  167loPI   C1B 2669   4.131   7.598   8.800  0.0162 -0.0448 -0.1605
  167loPI   C2B 2670   4.194   7.596   8.311  0.4166  0.1745 -0.6377
  167loPI   C3B 2671   3.969   7.375   7.929 -0.2110  0.2826  0.0645
  167loPI   C4B 2672   3.748   6.997   7.754 -0.0096 -0.0419 -0.0362
  168loPI    C1 2673  14.556   0.456   9.388 -0.1362 -0.1244 -0.0363
  168loPI    C2 2674  14.693   0.116   9.547 -0.0051 -0.0759 -0.0450
  168loPI    C3 2675  14.367   0.290   9.699 -0.0039 -0.1430  0.0350
  168loPI   PO4 2676  14.495   0.432   9.145 -0.0066  0.1569  0.3414
  168loPI   GL1 2677  14.213   0.307   8.833  0.1325  0.1059  0.1343
  168loPI   GL2 2678  14.114   0.608   8.748 -0.0603  0.3771  0.2295
  168loPI   C1A 2679  14.591   0.142   8.403  0.1179  0.3615 -0.1970
  168loPI   C2A 2680  14.711   0.357   8.049  0.0026 -0.2084  0.1952
  168loPI   C3A 2681  14.780   0.586   7.728  0.1167  0.1576 -0.3149
  168loPI   C4A 2682  14.820   1.097   7.602  0.2140  0.0971  0.2497
  168loPI   C5A 2683  14.624   1.319   7.243 -0.0510  0.0682  0.0604
  168loPI   C6A 2684  14.573   1.489   6.853 -0.2094 -0.0138  0.2661
  168loPI   C1B 2685  14.183   0.449   8.341  0.0989 -0.3444 -0.0557
  168loPI   C2B 2686  14.222   0.301   7.842  0.0790 -0.2912 -0.1018
  168loPI   C3B 2687  14.537   0.315   7.444  0.0792 -0.0991 -0.1783
  168loPI   C4B 2688  14.737   0.462   7.155  0.0365  0.3134 -0.0088
  169loPI    C1 2689  14.591  17.302   9.704 -0.0773 -0.0330 -0.1634
  169loPI    C2 2690  14.521  16.911   9.653 -0.0297 -0.0574 -0.0453
  169loPI    C3 2691  14.236  17.147   9.805 -0.0777 -0.0352 -0.1684
  169loPI   PO4 2692  14.717  17.313   9.399  0.1999  0.2331 -0.1590
  169loPI   GL1 2693  14.582  17.281   8.906  0.1056 -0.0990 -0.1975
  169loPI   GL2 2694  14.831  17.412   8.874 -0.2226 -0.1899 -0.3578
  169loPI   C1A 2695  14.421  17.035   8.576  0.2028 -0.2205 -0.1181
  169loPI   C2A 2696  14.385  17.099   8.197 -0.0392  0.0490 -0.0002
  169loPI   C3A 2697  14.493  17.027   7.764 -0.2197  0.0063 -0.1388
  169loPI   C4A 2698  14.633  16.990   7.358 -0.1979 -0.1513 -0.0099
  169loPI   C5A 2699  14.515  17.033   6.980 -0.0807  0.2443  0.0975
  169loPI   C6A 2700  14.576  17.052   6.558 -0.2518 -0.1437 -0.2213
  169loPI   C1B 2701  14.740  17.408   8.421  0.0133  0.1459  0.1378
  169loPI   C2B 2702  14.700  17.503   7.966 -0.2226 -0.0522 -0.1758
  169loPI   C3B 2703  14.830  17.521   7.615  0.1682  0.2925 -0.1202
  169loPI   C4B 2704  15.021  17.577   7.198  0.0194  0.0384 -0.1487
  170loPI    C1 2705  15.249  12.999  10.041  0.0008 -0.2196 -0.1206
  170loPI    C2 2706  15.174  12.610  10.096 -0.0266 -0.1639  0.2649
  170loPI    C3 2707  15.191  12.857  10.410  0.0476  0.1381  0.0289
  170loPI   PO4 2708  15.155  13.013   9.773 -0.0172  0.1273 -0.0807
  170loPI   GL1 2709  15.264  12.856   9.396 -0.0737 -0.0175  0.0624
  170loPI   GL2 2710  14.917  12.938   9.274 -0.0708 -0.0094 -0.4189
  170loPI   C1A 2711  15.231  12.527   9.111  0.0191  0.1823 -0.0027
  170loPI   C2A 2712  15.267  12.510   8.633  0.2162  0.1098  0.1495
  170loPI   C3A 2713  15.416  12.647   8.248 -0.0141  0.0046 -0.0462
  170loPI   C4A 2714  15.380  12.669   7.748  0.1691 -0.4377 -0.0725
  170loPI   C5A 2715  15.362  12.743   7.313  0.4660 -0.1313  0.0306
  170loPI   C6A 2716  15.579  12.923   7.055  0.2455 -0.2775 -0.0123
  170loPI   C1B 2717  14.860  12.957   8.855 -0.3463 -0.0383 -0.2414
  170loPI   C2B 2718  14.608  12.964   8.464 -0.0038  0.1496 -0.2077
  170loPI   C3B 2719  14.555  12.796   8.102 -0.0319  0.0561  0.2595
  170loPI   C4B 2720  14.336  12.755   7.811 -0.1209 -0.3330  0.3150
  171loPI    C1 2721   7.576   8.597  10.388  0.0854  0.2326 -0.2098
  171loPI    C2 2722   7.747   8.905  10.577 -0.0416  0.1320  0.0749
  171loPI    C3 2723   7.835   8.530  10.685  0.2095  0.0604 -0.3547
  171loPI   PO4 2724   7.617   8.726  10.085 -0.1202 -0.1470 -0.1771
  171loPI   GL1 2725   7.554   8.593   9.685 -0.3642  0.1449  0.2015
  171loPI   GL2 2726   7.643   8.842   9.525 -0.5091 -0.1106  0.0772
  171loPI   C1A 2727   7.235   8.624   9.324  0.0009  0.0188  0.1154
  171loPI   C2A 2728   7.094   8.574   8.883  0.0545  0.1264 -0.0253
  171loPI   C3A 2729   7.067   8.473   8.458 -0.2378  0.0648  0.0478
  171loPI   C4A 2730   7.353   8.668   8.115  0.1745 -0.0525  0.0679
  171loPI   C5A 2731   7.400   8.597   7.785  0.3031 -0.3538 -0.2133
  171loPI   C6A 2732   7.557   8.760   7.361 -0.0728  0.0651 -0.0208
  171loPI   C1B 2733   7.997   8.909   9.185 -0.2402 -0.2577  0.1150
  171loPI   C2B 2734   8.037   9.072   8.738 -0.0265 -0.0587 -0.3729
  171loPI   C3B 2735   8.265   9.171   8.319  0.1744 -0.2762  0.0107
  171loPI   C4B 2736   8.204   9.177   7.895  0.2923 -0.4324 -0.0951
  172loPI    C1 2737   7.240   4.660  10.033  0.0110  0.2713  0.2730
  172loPI    C2 2738   7.253   4.300  10.207 -0.1273 -0.0705 -0.3886
  172loPI    C3 2739   7.589   4.466  10.066 -0.0360  0.1485  0.0663
  172loPI   PO4 2740   7.024   4.600   9.827 -0.2424 -0.1322  0.0658
  172loPI   GL1 2741   7.055   4.537   9.378 -0.1622 -0.1404  0.0767
  172loPI   GL2 2742   7.027   4.941   9.272 -0.1332 -0.0986 -0.0680
  172loPI   C1A 2743   6.733   4.610   9.035 -0.4156 -0.0683 -0.0270
  172loPI   C2A 2744   6.640   4.554   8.560  0.0637  0.0243 -0.0849
  172loPI   C3A 2745   6.566   4.589   8.183 -0.2226  0.0760 -0.3954
  172loPI   C4A 2746   6.382   4.876   7.875  0.0913  0.1431  0.0218
  172loPI   C5A 2747   6.253   5.203   7.649  0.3364 -0.0877 -0.1007
  172loPI   C6A 2748   6.352   5.308   7.243  0.2659 -0.0059 -0.1022
  172loPI   C1B 2749   7.083   5.082   8.913  0.1286  0.1618  0.1732
  172loPI   C2B 2750   7.126   5.321   8.526 -0.1447 -0.3555 -0.2447
  172loPI   C3B 2751   7.245   5.216   8.143  0.3251 -0.4823 -0.1930
  172loPI   C4B 2752   7.322   5.047   7.757  0.1938 -0.2140  0.1783
  173loPI    C1 2753   6.405  11.205   9.807 -0.0997 -0.1826 -0.0268
  173loPI    C2 2754   6.245  10.994  10.107  0.0037 -0.2141  0.0066
  173loPI    C3 2755   6.412  11.350  10.179  0.2258 -0.3200  0.0241
  173loPI   PO4 2756   6.413  11.037   9.676 -0.0192 -0.2438  0.0200
  173loPI   GL1 2757   6.582  10.875   9.287 -0.4096  0.0616 -0.0870
  173loPI   GL2 2758   6.386  10.899   9.112  0.0384 -0.0441  0.3054
  173loPI   C1A 2759   6.835  10.847   8.898  0.0822  0.2967 -0.0539
  173loPI   C2A 2760   6.761  10.925   8.468  0.0550 -0.0116  0.4515
  173loPI   C3A 2761   6.797  10.856   8.025 -0.1816 -0.0033 -0.1699
  173loPI   C4A 2762   6.889  10.662   7.669  0.0386 -0.0189  0.2712
  173loPI   C5A 2763   7.382  10.403   7.571  0.2108  0.1568  0.0235
  173loPI   C6A 2764   7.731  10.475   7.609 -0.0448 -0.2625 -0.0334
  173loPI   C1B 2765   6.085  10.822   8.651 -0.1496  0.1827 -0.1684
  173loPI   C2B 2766   6.293  10.723   8.328 -0.0235 -0.0458 -0.0844
  173loPI   C3B 2767   6.381  10.459   7.983 -0.1243  0.1742 -0.1449
  173loPI   C4B 2768   5.968  10.124   7.785  0.0398 -0.2790  0.0501
  174loPI    C1 2769  12.061   6.299   9.730  0.0074  0.1736  0.0279
  174loPI    C2 2770  12.221   6.650   9.837  0.0550  0.1270  0.1101
  174loPI    C3 2771  12.032   6.425  10.109  0.0166  0.0932  0.0555
  174loPI   PO4 2772  11.843   6.386   9.517  0.1732 -0.1789 -0.2064
  174loPI   GL1 2773  11.992   6.503   9.113 -0.0080 -0.2192  0.0450
  174loPI   GL2 2774  12.296   6.301   9.158  0.0070 -0.1269  0.2234
  174loPI   C1A 2775  12.031   6.577   8.630  0.1933  0.0307  0.1855
  174loPI   C2A 2776  11.746   6.550   8.237  0.0460  0.0722  0.0240
  174loPI   C3A 2777  11.589   6.479   7.758 -0.4005 -0.0593 -0.3085
  174loPI   C4A 2778  11.347   6.365   7.376 -0.0106 -0.2012 -0.1608
  174loPI   C5A 2779  11.175   6.466   6.928  0.1703  0.1945  0.2971
  174loPI   C6A 2780  10.831   6.788   6.891 -0.1463  0.2455  0.0841
  174loPI   C1B 2781  12.197   6.046   8.901 -0.5125 -0.0043 -0.1491
  174loPI   C2B 2782  12.215   6.079   8.461 -0.2448 -0.2402  0.0442
  174loPI   C3B 2783  12.282   5.842   8.184  0.0261  0.1159  0.1709
  174loPI   C4B 2784  12.556   5.685   7.800  0.0452 -0.4589  0.3200
  175loPI    C1 2785   9.960  18.606   9.931  0.1762 -0.1030 -0.2897
  175loPI    C2 2786  10.228  18.903   9.938  0.1313 -0.0631 -0.2642
  175loPI    C3 2787  10.304  18.561  10.130  0.0377  0.0569 -0.0082
  175loPI   PO4 2788   9.862  18.673   9.699  0.0273 -0.0697 -0.1578
  175loPI   GL1 2789   9.791  18.897   9.297 -0.2896  0.0327  0.2170
  175loPI   GL2 2790   9.873  18.609   9.179 -0.0052 -0.1043 -0.0182
  175loPI   C1A 2791   9.983  19.013   8.907  0.1299  0.3759 -0.1500
  175loPI   C2A 2792  10.052  18.949   8.475 -0.0779 -0.0709 -0.0789
  175loPI   C3A 2793  10.166  19.065   8.068  0.0146 -0.0125  0.3395
  175loPI   C4A 2794   9.941  19.198   7.659  0.4288 -0.0764  0.1668
  175loPI   C5A 2795   9.912  19.165   7.212  0.2633 -0.4391  0.2524
  175loPI   C6A 2796   9.411  19.014   6.978  0.2314  0.0578 -0.0149
  175loPI   C1B 2797   9.913  18.519   8.690 -0.2894  0.4310 -0.3656
  175loPI   C2B 2798   9.973  18.561   8.292  0.2693 -0.0284  0.0280
  175loPI   C3B 2799   9.705  18.832   7.948  0.1921 -0.2187  0.0814
  175loPI   C4B 2800   9.490  18.683   7.667  0.0379 -0.1569  0.1346
  176loPI    C1 2801  14.178   2.610   9.281  0.3007  0.3155 -0.1741
  176loPI    C2 2802  13.954   2.836   9.524  0.1023 -0.0672  0.0084
  176loPI    C3 2803  14.211   2.571   9.678  0.2894 -0.0112 -0.2025
  176loPI   PO4 2804  13.997   2.509   9.101  0.2361  0.0143 -0.2049
  176loPI   GL1 2805  13.877   2.677   8.766  0.2990 -0.0886  0.0014
  176loPI   GL2 2806  13.689   2.372   8.594  0.1395 -0.0872  0.1622
  176loPI   C1A 2807  13.673   2.909   8.386 -0.2665 -0.1129  0.0220
  176loPI   C2A 2808  13.817   3.166   7.932  0.1016 -0.0452  0.0202
  176loPI   C3A 2809  13.739   3.001   7.678 -0.0867 -0.3589  0.2170
  176loPI   C4A 2810  13.768   2.875   7.264 -0.0521 -0.2602 -0.2031
  176loPI   C5A 2811  13.981   3.088   6.991  0.2090  0.0996  0.2149
  176loPI   C6A 2812  14.357   3.288   6.839 -0.1057 -0.0853 -0.0306
  176loPI   C1B 2813  13.829   2.191   8.226 -0.3038 -0.3326  0.0945
  176loPI   C2B 2814  13.813   2.082   7.840  0.2087 -0.0263 -0.3119
  176loPI   C3B 2815  13.922   2.069   7.394 -0.0661  0.1028 -0.1492
  176loPI   C4B 2816  13.992   2.059   6.943 -0.0035  0.4003 -0.1951
  177loPI    C1 2817  10.589  14.161  10.227 -0.1093  0.0868 -0.0021
  177loPI    C2 2818  10.711  13.780  10.246  0.1683  0.1745  0.0203
  177loPI    C3 2819  10.605  13.972  10.580  0.0099  0.1123  0.0067
  177loPI   PO4 2820  10.749  14.261  10.054 -0.0474 -0.0709  0.1740
  177loPI   GL1 2821  10.718  14.178   9.524  0.0092 -0.1421  0.4128
  177loPI   GL2 2822  10.602  14.370   9.279  0.1500 -0.0894 -0.1076
  177loPI   C1A 2823  11.010  14.001   9.144 -0.2439  0.1395  0.0378
  177loPI   C2A 2824  10.876  13.737   8.830 -0.3022  0.2362 -0.2134
  177loPI   C3A 2825  10.513  13.907   8.484  0.2422 -0.2311 -0.4386
  177loPI   C4A 2826  10.379  14.276   8.408  0.3837  0.0797  0.0287
  177loPI   C5A 2827  10.340  14.627   8.220 -0.4730 -0.0866  0.0155
  177loPI   C6A 2828  10.345  15.077   8.007 -0.0161 -0.0000 -0.1151
  177loPI   C1B 2829  10.531  14.796   9.236 -0.1201  0.3383  0.0502
  177loPI   C2B 2830  10.255  15.105   9.206 -0.1695 -0.0638 -0.1483
  177loPI   C3B 2831  10.160  15.450   8.906  0.5596 -0.1631 -0.1277
  177loPI   C4B 2832   9.938  15.535   8.488  0.2370 -0.1049  0.0582
  178loPI    C1 2833   5.499   3.483   9.746 -0.0314  0.1532 -0.1461
  178loPI    C2 2834   5.538   3.826   9.949  0.1356 -0.0395  0.1548
  178loPI    C3 2835   5.194   3.623   9.963  0.0479  0.0964  0.0035
  178loPI   PO4 2836   5.830   3.472   9.705  0.0716 -0.1488 -0.1318
  178loPI   GL1 2837   6.023   3.461   9.388 -0.3413 -0.1399  0.1422
  178loPI   GL2 2838   6.107   3.676   9.218  0.1816  0.1516  0.0554
  178loPI   C1A 2839   5.948   3.283   8.929  0.0520  0.0040 -0.2692
  178loPI   C2A 2840   5.989   3.457   8.538 -0.2348  0.0871  0.0947
  178loPI   C3A 2841   6.095   3.559   8.078  0.1766 -0.1466 -0.2685
  178loPI   C4A 2842   6.206   3.479   7.648  0.2947 -0.1377  0.2266
  178loPI   C5A 2843   6.408   3.477   7.241 -0.3492  0.0176 -0.0044
  178loPI   C6A 2844   6.561   3.729   6.922  0.1636  0.0757  0.2264
  178loPI   C1B 2845   6.091   3.924   8.918 -0.1591 -0.0502  0.0225
  178loPI   C2B 2846   5.878   3.960   8.412  0.2882 -0.4501 -0.1887
  178loPI   C3B 2847   5.812   3.976   7.978  0.0967 -0.0960  0.0678
  178loPI   C4B 2848   5.734   3.693   7.634  0.0387 -0.0431 -0.1810
  179loPI    C1 2849   0.448  18.423   9.695 -0.0531  0.0800  0.1335
  179loPI    C2 2850   0.265  18.274  10.018  0.1913 -0.0487  0.2156
  179loPI    C3 2851   0.066  18.515   9.768 -0.1486 -0.3459  0.1921
  179loPI   PO4 2852   0.484  18.238   9.592  0.1813 -0.0232  0.0210
  179loPI   GL1 2853   0.476  18.055   9.309 -0.0318  0.0530  0.0819
  179loPI   GL2 2854   0.299  17.760   9.329 -0.1747  0.1536 -0.1989
  179loPI   C1A 2855   0.492  18.192   8.837 -0.0742 -0.1607 -0.0175
  179loPI   C2A 2856   0.458  17.985   8.356 -0.0415  0.0562 -0.2663
  179loPI   C3A 2857   0.313  17.944   7.997  0.3185 -0.0285 -0.0501
  179loPI   C4A 2858   0.104  17.971   7.563  0.2190 -0.1661  0.0414
  179loPI   C5A 2859   0.253  18.132   7.167 -0.1421  0.1806  0.0552
  179loPI   C6A 2860   0.509  18.588   7.129 -0.1692  0.0827 -0.0876
  179loPI   C1B 2861   0.101  18.041   9.037  0.1533 -0.2413  0.2466
  179loPI   C2B 2862   0.009  18.141   8.617  0.1857  0.1522  0.1719
  179loPI   C3B 2863  -0.060  18.181   8.200 -0.0762  0.0835  0.1773
  179loPI   C4B 2864   0.009  18.314   7.847 -0.1898  0.2831  0.2070
  180loPI    C1 2865  11.087   4.338   9.348 -0.0186 -0.2312 -0.0972
  180loPI    C2 2866  11.484   4.304   9.375  0.0221  0.1536 -0.1504
  180loPI    C3 2867  11.249   4.122   9.643  0.2323 -0.0619 -0.1082
  180loPI   PO4 2868  11.052   4.643   9.177 -0.2071 -0.0887  0.3416
  180loPI   GL1 2869  10.698   4.568   8.789  0.3204  0.1330 -0.2272
  180loPI   GL2 2870  10.703   4.283   8.550 -0.2025  0.1254  0.0365
  180loPI   C1A 2871  10.649   4.741   8.486 -0.0547 -0.0037 -0.4942
  180loPI   C2A 2872  10.672   4.682   8.056 -0.0758  0.4326  0.5201
  180loPI   C3A 2873  10.888   4.516   7.731 -0.2780  0.1374 -0.0631
  180loPI   C4A 2874  10.944   4.349   7.380 -0.3683 -0.0033 -0.0203
  180loPI   C5A 2875  10.997   4.373   6.884  0.0975 -0.2708 -0.0359
  180loPI   C6A 2876  11.149   4.409   6.480 -0.0346 -0.1794  0.1028
  180loPI   C1B 2877  10.620   4.173   8.065  0.2564  0.2692 -0.1109
  180loPI   C2B 2878  10.672   4.059   7.688  0.0336  0.1190  0.1449
  180loPI   C3B 2879  10.481   4.171   7.237 -0.2037  0.0054 -0.2816
  180loPI   C4B 2880  10.500   4.003   6.826  0.2227  0.2666  0.1618
  181loPI    C1 2881   3.152   9.599  10.086 -0.2927 -0.1522  0.1717
  181loPI    C2 2882   3.495   9.528  10.280 -0.1077 -0.1126 -0.1353
  181loPI    C3 2883   3.174   9.300  10.351 -0.0325 -0.1223  0.1866
  181loPI   PO4 2884   3.171   9.536   9.879 -0.1678 -0.4001  0.0618
  181loPI   GL1 2885   3.087   9.701   9.496 -0.0460  0.0373 -0.0771
  181loPI   GL2 2886   3.038  10.079   9.418 -0.0436  0.0186  0.1707
  181loPI   C1A 2887   2.876   9.382   9.266  0.2639  0.3457 -0.0254
  181loPI   C2A 2888   2.709   9.215   8.801  0.0228 -0.1701 -0.0522
  181loPI   C3A 2889   2.841   9.280   8.288  0.0655  0.2158 -0.1592
  181loPI   C4A 2890   3.095   9.188   7.991  0.1481 -0.0957 -0.0377
  181loPI   C5A 2891   3.134   8.787   7.838 -0.4433 -0.0033 -0.2644
  181loPI   C6A 2892   2.962   8.491   7.676 -0.0451  0.1286 -0.2308
  181loPI   C1B 2893   2.861  10.291   9.010  0.3308  0.0022 -0.0408
  181loPI   C2B 2894   2.780  10.189   8.647 -0.5456 -0.0937  0.0944
  181loPI   C3B 2895   2.377  10.315   8.476  0.3503  0.1980 -0.2865
  181loPI   C4B 2896   2.043  10.415   8.226  0.1182 -0.0851 -0.1736
  182loPI    C1 2897  11.713  17.346   9.766 -0.3042  0.0877 -0.0322
  182loPI    C2 2898  11.877  17.223  10.109 -0.3178 -0.1677 -0.1149
  182loPI    C3 2899  11.610  17.521  10.110  0.0261  0.1478  0.0398
  182loPI   PO4 2900  11.915  17.422   9.551 -0.2787 -0.0776 -0.1410
  182loPI   GL1 2901  11.752  17.456   9.168 -0.3950  0.1960 -0.0413
  182loPI   GL2 2902  11.733  17.819   8.983 -0.0517  0.0356 -0.1764
  182loPI   C1A 2903  11.806  17.292   8.837  0.0903 -0.1330  0.0102
  182loPI   C2A 2904  11.971  17.238   8.384  0.0763  0.2521  0.1349
  182loPI   C3A 2905  12.016  16.967   7.993  0.3126 -0.0636  0.3190
  182loPI   C4A 2906  11.756  16.927   7.713 -0.0595  0.2714 -0.0745
  182loPI   C5A 2907  11.617  16.846   7.272  0.2649 -0.1885  0.1375
  182loPI   C6A 2908  11.574  17.009   6.896  0.1342 -0.0129 -0.1686
  182loPI   C1B 2909  11.924  17.774   8.538  0.0361 -0.0515 -0.1510
  182loPI   C2B 2910  11.976  17.705   8.076  0.3196  0.0467 -0.0818
  182loPI   C3B 2911  11.800  17.433   7.764 -0.0448 -0.0096 -0.1308
  182loPI   C4B 2912  11.742  17.297   7.367 -0.2115 -0.0909  0.2301
  183loPI    C1 2913   7.870  15.935   9.887  0.3286 -0.1465  0.0874
  183loPI    C2 2914   8.024  15.712  10.181  0.1731  0.0626  0.3312
  183loPI    C3 2915   7.661  15.875  10.222  0.0394 -0.1174 -0.0842
  183loPI   PO4 2916   7.790  15.767   9.703  0.0905 -0.3813  0.3459
  183loPI   GL1 2917   7.795  15.962   9.305  0.1032 -0.1851  0.2360
  183loPI   GL2 2918   7.491  16.115   9.174  0.2730 -0.1812 -0.0387
  183loPI   C1A 2919   7.819  15.779   8.880 -0.3143  0.2655 -0.1793
  183loPI   C2A 2920   8.016  15.600   8.535 -0.0111  0.0222 -0.3615
  183loPI   C3A 2921   8.028  15.600   8.028 -0.0599  0.1877  0.0558
  183loPI   C4A 2922   8.026  15.465   7.586  0.1504 -0.0512 -0.1013
  183loPI   C5A 2923   7.985  15.329   7.199 -0.0783  0.2069 -0.0178
  183loPI   C6A 2924   8.048  15.558   6.953  0.3405 -0.0409 -0.5236
  183loPI   C1B 2925   7.618  16.264   8.864  0.0373  0.0594 -0.2092
  183loPI   C2B 2926   7.674  16.337   8.468 -0.3323  0.3713 -0.1263
  183loPI   C3B 2927   7.513  16.367   8.075 -0.2692 -0.1737 -0.2153
  183loPI   C4B 2928   7.204  15.981   8.083 -0.1779 -0.0223  0.0650
  184loPI    C1 2929   1.514   5.881   9.863 -0.0047 -0.1004  0.0948
  184loPI    C2 2930   1.148   5.967  10.000 -0.0132 -0.0134  0.0184
  184loPI    C3 2931   1.430   5.837  10.252 -0.0685  0.0134  0.0943
  184loPI   PO4 2932   1.532   6.062   9.632  0.0989 -0.2100  0.2104
  184loPI   GL1 2933   1.385   5.929   9.195 -0.1516 -0.0863  0.1385
  184loPI   GL2 2934   1.027   6.030   9.046 -0.0843 -0.0741 -0.2131
  184loPI   C1A 2935   1.860   6.010   9.067  0.1065  0.1582 -0.2730
  184loPI   C2A 2936   2.008   5.767   8.711 -0.1454 -0.0699 -0.4087
  184loPI   C3A 2937   2.070   5.500   8.388 -0.0087 -0.3410 -0.0909
  184loPI   C4A 2938   2.067   5.554   7.980 -0.1275 -0.0837  0.3418
  184loPI   C5A 2939   2.425   5.313   7.746  0.1698 -0.3340  0.2863
  184loPI   C6A 2940   2.741   4.917   7.669  0.1192  0.0063  0.2126
  184loPI   C1B 2941   1.013   6.091   8.609 -0.2515  0.0281 -0.2471
  184loPI   C2B 2942   0.998   5.839   8.247  0.2064  0.1246  0.2191
  184loPI   C3B 2943   1.100   5.473   8.147  0.1551  0.3049  0.0040
  184loPI   C4B 2944   1.318   5.266   8.443 -0.3592 -0.3118 -0.0819
  185loPI    C1 2945  19.387  12.050  10.042 -0.0239 -0.2814 -0.2971
  185loPI    C2 2946  19.250  11.707  10.195 -0.0060 -0.0239  0.3240
  185loPI    C3 2947  19.038  12.044  10.237  0.0033  0.0612 -0.2313
  185loPI   PO4 2948  19.539  11.980   9.729  0.1769 -0.0913  0.1885
  185loPI   GL1 2949  19.692  12.030   9.284  0.0269  0.1347  0.0312
  185loPI   GL2 2950  19.947  12.235   9.399 -0.0222  0.0385 -0.0296
  185loPI   C1A 2951  19.591  11.879   8.904  0.1825 -0.0220 -0.1297
  185loPI   C2A 2952  19.395  11.627   8.587  0.0444 -0.0148  0.3597
  185loPI   C3A 2953  19.474  11.494   8.228  0.1004 -0.2849  0.1854
  185loPI   C4A 2954  19.560  11.369   7.775 -0.2684  0.0656 -0.1457
  185loPI   C5A 2955  20.088  11.281   7.781  0.1788  0.1200 -0.2695
  185loPI   C6A 2956  20.536  11.368   8.056  0.1433  0.3621 -0.0858
  185loPI   C1B 2957  19.891  12.381   8.904 -0.1327  0.3642 -0.0055
  185loPI   C2B 2958  19.824  12.751   8.691  0.2559 -0.0596 -0.2088
  185loPI   C3B 2959  19.762  13.015   8.305  0.3013 -0.0799  0.0838
  185loPI   C4B 2960  19.882  13.312   8.069 -0.1235  0.0818 -0.0881
  186loPI    C1 2961   1.769   0.735   9.653  0.0423 -0.2280  0.1305
  186loPI    C2 2962   1.730   1.073   9.863 -0.1282 -0.0976 -0.1075
  186loPI    C3 2963   2.094   0.934   9.774 -0.0557  0.1584 -0.2201
  186loPI   PO4 2964   1.632   0.825   9.390 -0.0055  0.0046  0.0539
  186loPI   GL1 2965   1.591   0.745   8.994 -0.0877  0.3230 -0.0573
  186loPI   GL2 2966   1.870   0.700   8.969  0.1290 -0.1415  0.3099
  186loPI   C1A 2967   1.476   0.975   8.623 -0.1525  0.3371  0.0406
  186loPI   C2A 2968   1.365   1.222   8.311  0.0912  0.3202  0.2286
  186loPI   C3A 2969   1.092   1.169   7.994 -0.2334 -0.2269 -0.0350
  186loPI   C4A 2970   0.951   0.965   7.643  0.0048  0.2090 -0.0438
  186loPI   C5A 2971   0.796   0.874   7.272 -0.0293  0.2502  0.0169
  186loPI   C6A 2972   0.756   1.035   6.870  0.0327  0.0302 -0.1740
  186loPI   C1B 2973   1.936   0.865   8.561 -0.2244  0.1588 -0.2241
  186loPI   C2B 2974   1.750   0.851   8.175  0.1639  0.2994  0.3159
  186loPI   C3B 2975   1.558   0.946   7.774  0.1308  0.0223  0.3584
  186loPI   C4B 2976   1.697   1.226   7.503 -0.0071 -0.0202 -0.1839
  187loPI    C1 2977   4.783  17.870   9.395  0.1073  0.0836  0.0293
  187loPI    C2 2978   4.697  18.043   9.745  0.0534  0.0185  0.0484
  187loPI    C3 2979   4.721  17.644   9.719 -0.1334  0.0133 -0.0631
  187loPI   PO4 2980   4.542  17.889   9.150  0.1388 -0.0342 -0.0010
  187loPI   GL1 2981   4.435  17.783   8.748  0.3575  0.0538  0.1287
  187loPI   GL2 2982   4.760  17.771   8.739 -0.2235  0.1391  0.1533
  187loPI   C1A 2983   4.221  17.758   8.171  0.2093 -0.1118  0.1735
  187loPI   C2A 2984   4.357  17.474   7.912  0.2695 -0.0548 -0.2114
  187loPI   C3A 2985   4.194  17.227   7.599 -0.0495 -0.1796  0.1277
  187loPI   C4A 2986   4.272  17.128   7.224 -0.1609 -0.3481  0.1257
  187loPI   C5A 2987   4.043  17.010   6.834  0.2484 -0.1964  0.1161
  187loPI   C6A 2988   3.803  17.356   6.709 -0.4117  0.1121 -0.0405
  187loPI   C1B 2989   4.739  17.636   8.273  0.3327 -0.0301 -0.0309
  187loPI   C2B 2990   4.986  17.662   7.931  0.1679  0.1704 -0.1921
  187loPI   C3B 2991   5.174  17.341   7.709 -0.0548  0.0494  0.1188
  187loPI   C4B 2992   5.175  17.540   7.229  0.4072  0.1663  0.2277
  188loPI    C1 2993   9.269   8.150  10.020  0.2143  0.0682 -0.0683
  188loPI    C2 2994   9.548   7.936  10.209 -0.0107 -0.1479  0.0234
  188loPI    C3 2995   9.164   7.827  10.230 -0.0714 -0.0137 -0.3302
  188loPI   PO4 2996   9.275   8.212   9.759  0.0988  0.0790 -0.1772
  188loPI   GL1 2997   9.149   8.477   9.451 -0.1119  0.0391 -0.0724
  188loPI   GL2 2998   9.405   8.656   9.579 -0.0892  0.1646  0.2445
  188loPI   C1A 2999   8.831   8.383   9.072  0.3732  0.0166 -0.0917
  188loPI   C2A 3000   8.718   8.465   8.659 -0.0327 -0.3591  0.1239
  188loPI   C3A 3001   8.531   8.554   8.300 -0.1950  0.2613  0.0102
  188loPI   C4A 3002   8.951   8.605   8.007  0.1542 -0.0173 -0.1128
  188loPI   C5A 3003   9.205   8.911   7.858  0.1458 -0.0690  0.1181
  188loPI   C6A 3004   9.518   9.121   7.599  0.0666  0.1953  0.0542
  188loPI   C1B 3005   9.429   8.731   9.182  0.2138  0.3247  0.1722
  188loPI   C2B 3006   9.277   8.439   8.807  0.2447 -0.1403  0.2116
  188loPI   C3B 3007   9.290   8.317   8.253  0.1763 -0.0194 -0.0018
  188loPI   C4B 3008   9.165   8.175   7.877  0.0900 -0.1348 -0.0543
  189loPI    C1 3009  16.296   3.651   9.789  0.0222 -0.3205  0.1551
  189loPI    C2 3010  16.653   3.830   9.808 -0.0203 -0.2365  0.1663
  189loPI    C3 3011  16.444   3.764  10.143 -0.1195 -0.0733  0.1379
  189loPI   PO4 3012  16.317   3.386   9.613 -0.3553  0.1337 -0.3789
  189loPI   GL1 3013  16.349   3.361   9.264  0.3581 -0.2910 -0.1219
  189loPI   GL2 3014  15.990   3.482   9.211  0.2536 -0.0873 -0.0534
  189loPI   C1A 3015  16.433   3.700   9.016  0.0019  0.0102 -0.0540
  189loPI   C2A 3016  16.668   4.116   8.852 -0.3354  0.2466  0.1126
  189loPI   C3A 3017  16.804   4.201   8.427  0.1719  0.2655 -0.0748
  189loPI   C4A 3018  16.971   4.119   8.045  0.1190 -0.2204  0.0487
  189loPI   C5A 3019  17.029   4.003   7.675  0.2374  0.2016 -0.1864
  189loPI   C6A 3020  16.983   4.127   7.226 -0.1426  0.2257 -0.2412
  189loPI   C1B 3021  15.867   3.692   8.859 -0.1801  0.2989 -0.0578
  189loPI   C2B 3022  16.023   3.687   8.462 -0.3095  0.4484 -0.0551
  189loPI   C3B 3023  15.929   3.586   8.133 -0.3572  0.2127 -0.2470
  189loPI   C4B 3024  15.672   3.806   7.772  0.0330  0.0960 -0.1134
  190loPI    C1 3025  17.903   9.978  10.096  0.1690 -0.1269  0.0890
  190loPI    C2 3026  18.197  10.120  10.327 -0.0868  0.3002  0.1622
  190loPI    C3 3027  17.818  10.131  10.456 -0.1702  0.0194 -0.0486
  190loPI   PO4 3028  18.067   9.718   9.884  0.1481 -0.0132 -0.2804
  190loPI   GL1 3029  18.030   9.722   9.354  0.1301  0.0248 -0.0521
  190loPI   GL2 3030  17.834   9.824   9.237  0.1428  0.1735  0.0636
  190loPI   C1A 3031  18.115   9.481   9.017 -0.2085  0.3321  0.3731
  190loPI   C2A 3032  18.250   9.555   8.629 -0.0858 -0.3706  0.2083
  190loPI   C3A 3033  18.414   9.704   8.235 -0.1747 -0.1515  0.0330
  190loPI   C4A 3034  18.398   9.672   7.787 -0.3373  0.2039 -0.1727
  190loPI   C5A 3035  18.766   9.762   7.501  0.1004  0.0722 -0.1830
  190loPI   C6A 3036  18.920   9.788   7.084 -0.1170 -0.0460 -0.1871
  190loPI   C1B 3037  18.162  10.029   8.941 -0.2433 -0.4584 -0.1875
  190loPI   C2B 3038  18.418  10.080   8.708  0.0746 -0.3418  0.1008
  190loPI   C3B 3039  18.601  10.258   8.346  0.1417 -0.1520  0.1290
  190loPI   C4B 3040  18.622  10.269   7.969 -0.2220  0.0172 -0.4720
  191loPI    C1 3041   9.079   5.807   9.804 -0.0682 -0.0868  0.0392
  191loPI    C2 3042   8.723   5.942   9.926  0.0045 -0.1026  0.2745
  191loPI    C3 3043   9.034   5.943  10.177  0.1555 -0.1490  0.0905
  191loPI   PO4 3044   9.074   5.578   9.671  0.0974  0.0790 -0.3101
  191loPI   GL1 3045   8.988   5.397   9.297 -0.4436 -0.1037 -0.1841
  191loPI   GL2 3046   9.290   5.500   9.044 -0.2428  0.1685 -0.1393
  191loPI   C1A 3047   8.910   5.787   9.087  0.0600 -0.0021  0.0807
  191loPI   C2A 3048   8.892   6.186   8.752  0.1963  0.1771  0.2722
  191loPI   C3A 3049   8.968   6.281   8.321 -0.0557  0.0561  0.2531
  191loPI   C4A 3050   9.148   6.331   7.880 -0.0287  0.0560  0.1206
  191loPI   C5A 3051   9.478   6.401   7.668 -0.0246  0.0857 -0.0195
  191loPI   C6A 3052   9.841   6.624   7.385  0.4499 -0.2582  0.0370
  191loPI   C1B 3053   9.567   5.608   8.580 -0.0982 -0.0897 -0.2692
  191loPI   C2B 3054   9.555   5.716   8.107  0.0011  0.0702 -0.0818
  191loPI   C3B 3055   9.390   5.715   7.561 -0.0136  0.2011  0.2208
  191loPI   C4B 3056   9.281   5.462   7.171 -0.1372  0.0498 -0.3263
  192loPI    C1 3057   1.562   3.921   9.701 -0.1350  0.0200 -0.0353
  192loPI    C2 3058   1.634   3.929  10.094 -0.1116  0.1358 -0.0415
  192loPI    C3 3059   1.695   4.256   9.873 -0.2663  0.1149 -0.1166
  192loPI   PO4 3060   1.705   3.806   9.589 -0.1658 -0.1070  0.1201
  192loPI   GL1 3061   1.837   3.567   9.232 -0.1060  0.4323 -0.0473
  192loPI   GL2 3062   1.777   3.952   9.079 -0.0829 -0.0006 -0.0720
  192loPI   C1A 3063   1.917   3.476   8.805  0.3214 -0.1854  0.3124
  192loPI   C2A 3064   2.109   3.307   8.467  0.1479 -0.0876 -0.0389
  192loPI   C3A 3065   2.036   3.257   7.959  0.0153 -0.4997 -0.1673
  192loPI   C4A 3066   2.082   3.142   7.336 -0.1406  0.1786 -0.1501
  192loPI   C5A 3067   2.467   3.043   7.030 -0.0783 -0.1309 -0.3383
  192loPI   C6A 3068   2.824   2.789   6.919 -0.1386  0.3272 -0.1146
  192loPI   C1B 3069   1.485   3.700   8.801  0.0489 -0.0145  0.3499
  192loPI   C2B 3070   1.304   3.719   8.411  0.0758  0.0726 -0.1195
  192loPI   C3B 3071   1.074   3.975   8.225 -0.2774  0.0604 -0.3622
  192loPI   C4B 3072   0.890   4.037   7.848 -0.2592 -0.3473 -0.0072
  193loPI    C1 3073   8.854  16.718   9.537  0.0731  0.1526  0.0841
  193loPI    C2 3074   8.848  16.376   9.745  0.1483  0.1024  0.0042
  193loPI    C3 3075   8.581  16.664   9.824  0.1051  0.0380  0.0934
  193loPI   PO4 3076   8.943  16.668   9.352 -0.0230 -0.2917  0.2011
  193loPI   GL1 3077   8.735  16.709   8.976  0.0704  0.1476  0.0922
  193loPI   GL2 3078   9.054  16.454   8.901  0.0715 -0.2121 -0.1120
  193loPI   C1A 3079   8.944  16.845   8.588  0.1702  0.1169 -0.0705
  193loPI   C2A 3080   9.016  16.549   8.271  0.2699  0.0570 -0.0218
  193loPI   C3A 3081   8.880  16.628   7.869 -0.0920  0.3767  0.1022
  193loPI   C4A 3082   8.972  16.534   7.440 -0.1126 -0.2550  0.0570
  193loPI   C5A 3083   9.328  16.599   7.129  0.1026 -0.1322  0.3312
  193loPI   C6A 3084   9.666  16.511   7.116  0.0417 -0.0227 -0.0610
  193loPI   C1B 3085   9.256  16.240   8.576  0.0381 -0.0174 -0.1180
  193loPI   C2B 3086   9.445  16.303   8.181 -0.0560 -0.2422 -0.0553
  193loPI   C3B 3087   9.694  16.372   7.814  0.2667 -0.0764 -0.0696
  193loPI   C4B 3088  10.005  16.327   7.432 -0.0316 -0.1876 -0.0048
  194loPI    C1 3089   4.513  13.836  10.050  0.0672  0.1247  0.0773
  194loPI    C2 3090   4.873  13.996   9.983  0.0389  0.1496 -0.0161
  194loPI    C3 3091   4.684  14.067  10.328  0.1951  0.0029  0.1010
  194loPI   PO4 3092   4.419  13.818   9.789 -0.2585  0.1219  0.3075
  194loPI   GL1 3093   4.376  13.779   9.332  0.1882 -0.2980 -0.1146
  194loPI   GL2 3094   4.199  13.976   9.322 -0.0837 -0.0477 -0.0251
  194loPI   C1A 3095   4.623  13.761   9.027  0.2243 -0.0747  0.2481
  194loPI   C2A 3096   4.900  13.766   8.589  0.2442 -0.0888 -0.1448
  194loPI   C3A 3097   4.826  13.601   8.179 -0.2325 -0.0469  0.2963
  194loPI   C4A 3098   4.859  13.444   7.802  0.0675  0.2195  0.2442
  194loPI   C5A 3099   4.897  13.429   7.400 -0.2323 -0.2623  0.3200
  194loPI   C6A 3100   5.075  13.388   6.933 -0.0575  0.1538  0.0263
  194loPI   C1B 3101   4.175  13.994   8.931  0.1141 -0.1131 -0.0723
  194loPI   C2B 3102   3.936  14.004   8.528  0.1522 -0.1628  0.0046
  194loPI   C3B 3103   3.871  13.997   8.034  0.2251  0.0053 -0.2937
  194loPI   C4B 3104   3.843  14.124   7.569  0.1875  0.2348  0.1037
  195loPI    C1 3105   5.251   5.535  10.193  0.1873  0.0683  0.0689
  195loPI    C2 3106   4.952   5.572  10.456  0.1257  0.0958 -0.0047
  195loPI    C3 3107   5.263   5.336  10.540  0.0191 -0.0394  0.0146
  195loPI   PO4 3108   5.225   5.631   9.973  0.6777 -0.0970 -0.2656
  195loPI   GL1 3109   5.043   5.457   9.613  0.0172  0.0947  0.1258
  195loPI   GL2 3110   4.663   5.252   9.658 -0.1311 -0.0322  0.0439
  195loPI   C1A 3111   4.937   5.493   9.232 -0.1027 -0.0221  0.1519
  195loPI   C2A 3112   4.821   5.371   8.862 -0.0800  0.0512 -0.3122
  195loPI   C3A 3113   4.758   5.232   8.414  0.3679 -0.2617  0.0074
  195loPI   C4A 3114   4.439   4.957   8.138 -0.1953  0.2597 -0.2483
  195loPI   C5A 3115   4.146   4.684   8.029 -0.3971 -0.1184  0.2970
  195loPI   C6A 3116   4.071   4.433   7.703  0.1307  0.1176 -0.1682
  195loPI   C1B 3117   4.513   5.220   9.259 -0.1946 -0.2211  0.2932
  195loPI   C2B 3118   4.295   5.250   8.827 -0.0456  0.1165 -0.0482
  195loPI   C3B 3119   4.196   5.343   8.445 -0.1597 -0.0823  0.2251
  195loPI   C4B 3120   4.179   5.539   8.147  0.1189  0.0062 -0.0098
  196loPI    C1 3121   3.699  10.358  10.028 -0.0267  0.1268 -0.2580
  196loPI    C2 3122   4.010  10.448  10.262 -0.1354 -0.4027  0.1065
  196loPI    C3 3123   3.637  10.501  10.397 -0.2042 -0.2251 -0.1472
  196loPI   PO4 3124   3.710  10.424   9.829 -0.0465  0.1747  0.0761
  196loPI   GL1 3125   4.041  10.361   9.380 -0.0746 -0.0109 -0.2882
  196loPI   GL2 3126   4.091  10.676   9.373 -0.0073  0.1802 -0.0149
  196loPI   C1A 3127   3.884  10.448   8.951 -0.2527 -0.0577 -0.3230
  196loPI   C2A 3128   3.833  10.548   8.608  0.2750 -0.0678  0.0538
  196loPI   C3A 3129   3.737  10.489   8.130 -0.0311  0.1427  0.2016
  196loPI   C4A 3130   3.300  10.560   7.914 -0.0771  0.0539  0.1701
  196loPI   C5A 3131   3.150  10.911   7.760 -0.0805 -0.0444  0.0380
  196loPI   C6A 3132   3.270  11.251   7.821  0.0980  0.2024 -0.0044
  196loPI   C1B 3133   3.643  10.818   9.119  0.2241 -0.3438  0.1280
  196loPI   C2B 3134   3.431  10.931   8.755  0.1109 -0.3166 -0.1367
  196loPI   C3B 3135   3.160  11.187   8.651 -0.1438  0.0444 -0.0227
  196loPI   C4B 3136   2.983  11.354   8.300 -0.2523  0.0641  0.4230
  197loPI    C1 3137  17.548  12.221  10.200 -0.0676 -0.3225 -0.0239
  197loPI    C2 3138  17.901  12.150  10.375  0.1872  0.1239 -0.3330
  197loPI    C3 3139  17.673  12.454  10.500 -0.0429 -0.0956 -0.2075
  197loPI   PO4 3140  17.568  12.260   9.816  0.1168 -0.2146 -0.1543
  197loPI   GL1 3141  17.737  12.166   9.386  0.0578 -0.1951 -0.2382
  197loPI   GL2 3142  17.437  12.240   9.322 -0.2227 -0.2185  0.1176
  197loPI   C1A 3143  17.910  12.070   8.938 -0.0768  0.2422  0.2038
  197loPI   C2A 3144  17.682  11.812   8.603  0.1196 -0.1494 -0.3469
  197loPI   C3A 3145  17.701  11.825   8.113 -0.0968  0.1087 -0.3150
  197loPI   C4A 3146  17.745  11.821   7.710 -0.1704  0.0789 -0.1099
  197loPI   C5A 3147  18.004  11.948   7.399  0.2680  0.0882 -0.1419
  197loPI   C6A 3148  18.362  11.909   7.173  0.1678  0.0873  0.2684
  197loPI   C1B 3149  17.389  12.400   8.923 -0.1547  0.0353  0.4622
  197loPI   C2B 3150  17.234  12.460   8.489  0.1369 -0.1594 -0.0406
  197loPI   C3B 3151  17.448  12.563   8.187  0.3976 -0.0051  0.3255
  197loPI   C4B 3152  17.913  12.701   8.196  0.1423  0.1408 -0.2897
  198loPI    C1 3153   9.672   4.376   9.649  0.0165 -0.0062 -0.0263
  198loPI    C2 3154   9.925   4.079   9.736  0.1778  0.0733 -0.2162
  198loPI    C3 3155   9.729   4.267  10.029  0.0590 -0.2318 -0.0958
  198loPI   PO4 3156   9.560   4.301   9.404 -0.1770 -0.1639 -0.1650
  198loPI   GL1 3157   9.192   4.425   9.090 -0.1756 -0.1786  0.1909
  198loPI   GL2 3158   9.466   4.493   8.956 -0.0281  0.0273 -0.4361
  198loPI   C1A 3159   9.098   4.263   8.659  0.2122 -0.1375 -0.0111
  198loPI   C2A 3160   8.927   4.372   8.269  0.0067 -0.1015 -0.2780
  198loPI   C3A 3161   8.886   4.554   7.919  0.1267 -0.1014 -0.0368
  198loPI   C4A 3162   8.774   4.606   7.484 -0.0774  0.1715 -0.0798
  198loPI   C5A 3163   8.469   4.602   7.033 -0.2110 -0.2844  0.0960
  198loPI   C6A 3164   8.264   4.518   6.702 -0.0186  0.0930  0.2711
  198loPI   C1B 3165   9.257   4.710   8.550  0.2921  0.1679  0.0588
  198loPI   C2B 3166   9.230   4.892   8.170  0.4126  0.3067 -0.0889
  198loPI   C3B 3167   9.205   4.882   7.766 -0.0735 -0.1109  0.2781
  198loPI   C4B 3168   8.992   5.107   7.423  0.1329  0.5089  0.1315
  199loPI    C1 3169   1.035   1.908   9.688  0.3275 -0.2667 -0.1440
  199loPI    C2 3170   1.370   2.060   9.844  0.3031 -0.1676 -0.1874
  199loPI    C3 3171   1.154   1.796  10.053  0.1996  0.0643  0.0035
  199loPI   PO4 3172   1.054   2.045   9.443 -0.3281  0.1147 -0.2887
  199loPI   GL1 3173   0.880   1.980   9.053  0.1198 -0.0218 -0.0367
  199loPI   GL2 3174   0.694   1.745   8.904  0.1122  0.1083 -0.1334
  199loPI   C1A 3175   1.212   1.882   8.807 -0.3202 -0.1454 -0.2551
  199loPI   C2A 3176   1.452   1.697   8.430  0.1142 -0.1100 -0.0990
  199loPI   C3A 3177   1.492   1.546   7.972 -0.0332  0.0318 -0.0655
  199loPI   C4A 3178   1.552   1.766   7.547 -0.3812 -0.0950  0.1689
  199loPI   C5A 3179   1.419   2.045   7.171 -0.0060 -0.2928  0.1223
  199loPI   C6A 3180   1.436   2.345   6.708  0.0868  0.0615  0.3509
  199loPI   C1B 3181   0.514   1.800   8.550 -0.1292  0.2746 -0.1190
  199loPI   C2B 3182   0.656   1.964   8.176 -0.3312 -0.1103 -0.0926
  199loPI   C3B 3183   0.611   1.869   7.606 -0.1824 -0.1619  0.2459
  199loPI   C4B 3184   0.493   1.935   7.153 -0.1510 -0.0820 -0.2588
  200loPI    C1 3185  12.223  10.277   9.916 -0.0901  0.0779 -0.0914
  200loPI    C2 3186  12.256  10.649  10.057 -0.0678  0.0642 -0.0607
  200loPI    C3 3187  12.470  10.353  10.221 -0.1791  0.0152 -0.0029
  200loPI   PO4 3188  12.267  10.254   9.642 -0.0010 -0.0001  0.1232
  200loPI   GL1 3189  11.987  10.293   9.303 -0.0516  0.2524 -0.2853
  200loPI   GL2 3190  11.739  10.282   9.287 -0.0383 -0.1076  0.1995
  200loPI   C1A 3191  11.942  10.575   8.901  0.1690  0.3067 -0.2498
  200loPI   C2A 3192  12.019  10.869   8.640 -0.0155 -0.0264 -0.0030
  200loPI   C3A 3193  12.135  10.967   8.280  0.2274 -0.0121 -0.1862
  200loPI   C4A 3194  12.214  10.875   7.871 -0.0348  0.1235 -0.0388
  200loPI   C5A 3195  12.387  10.629   7.522  0.0668  0.1231  0.0682
  200loPI   C6A 3196  12.568  10.457   7.170  0.1429 -0.0143 -0.2268
  200loPI   C1B 3197  11.837  10.053   8.917 -0.0749  0.1640  0.0151
  200loPI   C2B 3198  12.034   9.953   8.526  0.0571 -0.1774 -0.0836
  200loPI   C3B 3199  12.172   9.683   8.127  0.1544 -0.0070 -0.0977
  200loPI   C4B 3200  12.375   9.646   7.702  0.0755 -0.0746  0.0482
  201loPI    C1 3201  19.275   9.668   9.891 -0.0322 -0.2391  0.1566
  201loPI    C2 3202  19.229   9.531  10.264  0.4339  0.1333  0.3610
  201loPI    C3 3203  19.086   9.891  10.164  0.1047 -0.0616  0.1074
  201loPI   PO4 3204  19.543   9.526   9.878  0.0089  0.1506 -0.0035
  201loPI   GL1 3205  19.656   9.256   9.540  0.5415 -0.4816  0.2689
  201loPI   GL2 3206  19.436   9.007   9.421 -0.2413  0.1819  0.1077
  201loPI   C1A 3207  20.032   9.257   9.236  0.1568  0.1683 -0.0869
  201loPI   C2A 3208  20.239   9.512   8.932 -0.0723  0.0060 -0.2503
  201loPI   C3A 3209  20.218   9.747   8.479 -0.0758  0.0341 -0.0755
  201loPI   C4A 3210  20.213   9.789   7.994  0.0184 -0.2093  0.3913
  201loPI   C5A 3211  20.467   9.716   7.578  0.0472 -0.2530 -0.1117
  201loPI   C6A 3212  20.644   9.890   7.266  0.0726 -0.3260  0.3008
  201loPI   C1B 3213  19.563   8.847   8.964  0.0864  0.0663  0.0906
  201loPI   C2B 3214  19.478   8.635   8.558  0.0410  0.2879  0.1147
  201loPI   C3B 3215  19.445   8.552   8.065  0.1503  0.2109 -0.1111
  201loPI   C4B 3216  19.590   8.432   7.610  0.0368 -0.0664 -0.2730
  202loPI    C1 3217  11.485  13.217  10.261  0.1533  0.2386 -0.0061
  202loPI    C2 3218  11.207  13.481  10.374  0.1611  0.1250  0.2857
  202loPI    C3 3219  11.299  13.173  10.612  0.0735 -0.2057 -0.0983
  202loPI   PO4 3220  11.538  13.289   9.990 -0.0359 -0.3388  0.1401
  202loPI   GL1 3221  11.187  13.228   9.635 -0.0107 -0.3209  0.0974
  202loPI   GL2 3222  11.061  13.013   9.490 -0.0471  0.0831 -0.1746
  202loPI   C1A 3223  11.233  13.419   9.130 -0.1882 -0.1514 -0.0585
  202loPI   C2A 3224  11.360  13.441   8.633  0.0830 -0.0392 -0.0471
  202loPI   C3A 3225  11.636  13.245   8.255 -0.0314  0.2478 -0.0990
  202loPI   C4A 3226  11.872  13.156   7.811 -0.2222  0.4006  0.2989
  202loPI   C5A 3227  12.228  13.201   7.458  0.3628 -0.2202 -0.0122
  202loPI   C6A 3228  12.579  13.090   7.312 -0.3213  0.1780  0.0164
  202loPI   C1B 3229  10.699  12.780   9.158 -0.1797 -0.1843 -0.0218
  202loPI   C2B 3230  10.571  12.840   8.746  0.2478  0.1785  0.0186
  202loPI   C3B 3231  10.644  12.923   8.340 -0.0592  0.3816  0.2555
  202loPI   C4B 3232  10.676  12.751   7.998  0.0666 -0.0260 -0.1492
  203loPI    C1 3233  17.608  11.189   9.739  0.0340 -0.0927  0.0938
  203loPI    C2 3234  17.360  11.189  10.053  0.0328 -0.1635  0.0932
  203loPI    C3 3235  17.686  10.957  10.056  0.0240 -0.1766  0.0353
  203loPI   PO4 3236  17.454  11.187   9.507 -0.1230  0.0438  0.1635
  203loPI   GL1 3237  17.291  11.104   9.024 -0.3266 -0.1822 -0.0140
  203loPI   GL2 3238  17.607  11.084   9.060  0.1019  0.2259 -0.1262
  203loPI   C1A 3239  17.058  11.013   8.622 -0.1918 -0.0302  0.0124
  203loPI   C2A 3240  16.800  11.233   8.165 -0.2563  0.1593 -0.0233
  203loPI   C3A 3241  16.820  11.163   7.650  0.1090  0.0470 -0.0038
  203loPI   C4A 3242  16.641  10.990   7.341 -0.0717  0.0653  0.0072
  203loPI   C5A 3243  16.442  10.981   6.944  0.2642  0.0964  0.0648
  203loPI   C6A 3244  15.937  11.049   6.844  0.2090 -0.0461 -0.4472
  203loPI   C1B 3245  17.663  10.843   8.691  0.2286  0.0893  0.1614
  203loPI   C2B 3246  17.663  10.674   8.389  0.0373 -0.1257  0.2932
  203loPI   C3B 3247  17.827  10.517   7.984  0.1274 -0.0650 -0.2215
  203loPI   C4B 3248  17.839  10.433   7.543 -0.0316  0.3641 -0.2615
  204loPI    C1 3249  18.515   9.497   9.662 -0.1641 -0.0340 -0.0647
  204loPI    C2 3250  18.763   9.400   9.961 -0.0179  0.0282 -0.1650
  204loPI    C3 3251  18.367   9.378  10.015  0.0067  0.0853  0.0488
  204loPI   PO4 3252  18.576   9.327   9.467 -0.1031 -0.1356  0.3502
  204loPI   GL1 3253  18.570   9.194   9.116  0.4565 -0.0616  0.1731
  204loPI   GL2 3254  18.950   9.307   9.083  0.0217  0.1191  0.4360
  204loPI   C1A 3255  18.681   9.194   8.624  0.0672  0.2321 -0.1056
  204loPI   C2A 3256  18.726   9.263   8.180  0.0639 -0.0177  0.3827
  204loPI   C3A 3257  18.903   9.341   7.707 -0.2455  0.0797 -0.0190
  204loPI   C4A 3258  18.890   9.290   7.294  0.1170  0.0803 -0.1012
  204loPI   C5A 3259  18.689   9.291   6.900  0.0278  0.0342  0.1977
  204loPI   C6A 3260  18.462   9.099   6.682  0.1622 -0.1691 -0.1172
  204loPI   C1B 3261  19.351   9.277   8.840 -0.1005  0.1337  0.2192
  204loPI   C2B 3262  19.597   9.101   8.537  0.1177 -0.1028  0.1255
  204loPI   C3B 3263  19.637   9.035   8.195 -0.3154  0.0040  0.1812
  204loPI   C4B 3264  19.573   8.942   7.811  0.0537 -0.1043 -0.0798
  205loPI    C1 3265  18.233  14.550   9.714 -0.1716 -0.2974 -0.1958
  205loPI    C2 3266  18.076  14.622  10.074 -0.2453 -0.0058 -0.2834
  205loPI    C3 3267  18.153  14.246   9.961 -0.0252 -0.0869  0.1166
  205loPI   PO4 3268  18.119  14.651   9.479 -0.0845 -0.2244  0.1978
  205loPI   GL1 3269  18.175  14.537   9.094 -0.0220 -0.0896 -0.5534
  205loPI   GL2 3270  18.196  14.810   8.986 -0.0027  0.0799  0.2757
  205loPI   C1A 3271  17.951  14.390   8.663 -0.0142  0.0178  0.0401
  205loPI   C2A 3272  17.790  14.288   8.298  0.2611  0.0106 -0.0363
  205loPI   C3A 3273  17.715  13.949   8.002  0.2401 -0.0048  0.2664
  205loPI   C4A 3274  17.420  13.546   7.970  0.0638 -0.3199  0.0323
  205loPI   C5A 3275  17.280  13.379   7.564  0.3188 -0.0622  0.3080
  205loPI   C6A 3276  17.048  13.142   7.257  0.3375  0.4327  0.1807
  205loPI   C1B 3277  18.362  14.699   8.640 -0.0252  0.1859  0.0253
  205loPI   C2B 3278  18.789  14.674   8.416 -0.0250  0.1474  0.0175
  205loPI   C3B 3279  19.023  14.955   8.231  0.2880 -0.0099 -0.0066
  205loPI   C4B 3280  19.388  15.135   8.116  0.0051 -0.0483  0.2522
  206loPI    C1 3281   5.174   0.490   9.490  0.3109 -0.0962  0.0041
  206loPI    C2 3282   5.316   0.140   9.623  0.0315 -0.1129  0.2689
  206loPI    C3 3283   5.097   0.372   9.865 -0.1516  0.0435 -0.0408
  206loPI   PO4 3284   5.291   0.426   9.201 -0.0839 -0.1054 -0.0227
  206loPI   GL1 3285   5.349   0.671   8.869  0.0034  0.2257  0.0133
  206loPI   GL2 3286   5.053   0.741   8.758  0.0256  0.0188 -0.1360
  206loPI   C1A 3287   5.360   0.756   8.384 -0.1320 -0.1680  0.1367
  206loPI   C2A 3288   5.377   1.196   8.204  0.3043  0.3691 -0.2609
  206loPI   C3A 3289   5.350   1.350   7.683 -0.1875 -0.0909  0.1966
  206loPI   C4A 3290   5.240   1.411   7.283  0.0936  0.2187 -0.3501
  206loPI   C5A 3291   5.031   1.302   6.974  0.1805  0.0282 -0.0371
  206loPI   C6A 3292   4.726   1.224   6.528  0.0132 -0.1926 -0.1713
  206loPI   C1B 3293   4.752   0.736   8.511  0.2285 -0.1275 -0.2246
  206loPI   C2B 3294   4.872   0.708   8.151  0.0692  0.1713  0.0846
  206loPI   C3B 3295   4.787   0.529   7.741  0.0454  0.0904  0.2475
  206loPI   C4B 3296   4.995   0.314   7.436  0.0104 -0.0906  0.1820
  207loPI    C1 3297  19.457   0.844   9.630 -0.0182  0.0577 -0.0113
  207loPI    C2 3298  19.195   0.739   9.915  0.0350 -0.2391 -0.0687
  207loPI    C3 3299  19.460   1.032   9.984 -0.1898 -0.0620  0.0549
  207loPI   PO4 3300  19.348   0.908   9.316 -0.1376 -0.0626  0.0342
  207loPI   GL1 3301  19.326   0.947   8.823 -0.2562  0.0493  0.0005
  207loPI   GL2 3302  19.558   0.765   8.841  0.0637 -0.1274 -0.2268
  207loPI   C1A 3303  19.253   1.137   8.418 -0.2056  0.4313  0.3251
  207loPI   C2A 3304  19.294   1.111   7.932 -0.0537  0.0236 -0.2181
  207loPI   C3A 3305  19.195   1.138   7.452  0.3103  0.0914 -0.1526
  207loPI   C4A 3306  19.137   0.832   7.298  0.1076  0.0151  0.1256
  207loPI   C5A 3307  19.208   0.688   6.915 -0.3768  0.0793  0.2058
  207loPI   C6A 3308  19.169   0.393   6.549 -0.1960  0.1285  0.3082
  207loPI   C1B 3309  19.730   0.938   8.389  0.1903  0.0399 -0.0176
  207loPI   C2B 3310  19.852   1.051   8.014  0.0026 -0.2296 -0.0417
  207loPI   C3B 3311  19.682   1.116   7.589 -0.0751  0.0344  0.0923
  207loPI   C4B 3312  19.667   1.163   7.099  0.1109  0.1183 -0.2086
  208loPI    C1 3313   1.444  19.115   9.616 -0.0565 -0.0404 -0.0708
  208loPI    C2 3314   1.570  19.251   9.971 -0.0099  0.0079 -0.1058
  208loPI    C3 3315   1.189  19.301   9.862  0.0221  0.1707 -0.1465
  208loPI   PO4 3316   1.589  19.201   9.438 -0.1093 -0.2170 -0.1057
  208loPI   GL1 3317   1.563  19.284   9.071 -0.0650  0.0174 -0.0281
  208loPI   GL2 3318   1.393  19.594   8.940 -0.1975  0.2492 -0.0235
  208loPI   C1A 3319   1.281  18.874   8.838 -0.1865 -0.1045  0.0850
  208loPI   C2A 3320   1.325  18.827   8.400  0.2783 -0.2284  0.0854
  208loPI   C3A 3321   1.217  19.181   7.998 -0.1891 -0.0708  0.1093
  208loPI   C4A 3322   1.335  19.120   7.592 -0.1389  0.0409  0.1572
  208loPI   C5A 3323   1.468  18.936   7.204  0.1936  0.1308  0.2712
  208loPI   C6A 3324   1.741  18.712   6.981 -0.1093  0.0603  0.0279
  208loPI   C1B 3325   1.616  19.734   8.533 -0.0229 -0.0279  0.0693
  208loPI   C2B 3326   1.905  19.564   8.113  0.0889  0.1371  0.2529
  208loPI   C3B 3327   2.212  19.828   7.829 -0.4390  0.1971 -0.0424
  208loPI   C4B 3328   2.380  20.259   7.681 -0.1087  0.3397  0.1906
  209loPI    C1 3329   1.373  16.682  10.143  0.1467 -0.0893  0.0908
  209loPI    C2 3330   1.633  16.970  10.241  0.0352  0.0444 -0.0030
  209loPI    C3 3331   1.511  16.707  10.517 -0.1395  0.3078  0.1762
  209loPI   PO4 3332   1.439  16.585   9.869  0.0058 -0.0933 -0.1816
  209loPI   GL1 3333   1.089  16.601   9.548 -0.2045  0.1891 -0.0838
  209loPI   GL2 3334   0.930  16.428   9.447 -0.0794  0.0819 -0.1437
  209loPI   C1A 3335   1.362  16.330   9.268 -0.3219 -0.0863 -0.0028
  209loPI   C2A 3336   1.396  16.015   8.859  0.2053 -0.0762 -0.0159
  209loPI   C3A 3337   1.247  16.064   8.502 -0.0601 -0.2456  0.1432
  209loPI   C4A 3338   1.345  16.283   8.219  0.4945  0.0443  0.5326
  209loPI   C5A 3339   1.549  16.366   7.861 -0.2266 -0.2497  0.0560
  209loPI   C6A 3340   1.958  16.306   7.921  0.2194 -0.0903  0.0086
  209loPI   C1B 3341   1.042  16.606   8.958 -0.1561 -0.1616 -0.1461
  209loPI   C2B 3342   1.359  16.513   8.662 -0.0851 -0.1441  0.1103
  209loPI   C3B 3343   1.720  16.584   8.371  0.1033 -0.0983  0.1724
  209loPI   C4B 3344   2.082  16.412   8.377  0.1551 -0.2579 -0.2855
  210loPI    C1 3345   0.671   8.653  10.274 -0.1306 -0.2194  0.0590
  210loPI    C2 3346   0.314   8.792  10.156  0.0923  0.2327 -0.1072
  210loPI    C3 3347   0.482   8.932  10.491  0.0157 -0.1481  0.0957
  210loPI   PO4 3348   0.760   8.452   9.988 -0.2729  0.1694 -0.0342
  210loPI   GL1 3349   0.939   8.615   9.580  0.0450 -0.0295  0.1425
  210loPI   GL2 3350   0.691   8.482   9.440 -0.0428 -0.1179 -0.0040
  210loPI   C1A 3351   0.994   8.802   9.089  0.2090 -0.0160  0.0224
  210loPI   C2A 3352   1.040   8.766   8.630 -0.3896  0.1396 -0.1756
  210loPI   C3A 3353   1.208   8.897   8.185 -0.0960  0.1182  0.0213
  210loPI   C4A 3354   1.322   9.058   7.709  0.1000 -0.2830  0.3676
  210loPI   C5A 3355   1.507   9.141   7.282 -0.1343 -0.0093  0.1599
  210loPI   C6A 3356   1.561   8.993   6.884 -0.0552 -0.3380  0.0216
  210loPI   C1B 3357   0.722   8.372   8.997 -0.2901 -0.0375 -0.1354
  210loPI   C2B 3358   0.547   8.423   8.646 -0.1232  0.0813  0.1200
  210loPI   C3B 3359   0.573   8.325   8.218 -0.1616  0.1949 -0.0103
  210loPI   C4B 3360   0.552   8.133   7.792  0.0903 -0.6073 -0.1572
  211loPI    C1 3361  11.108   3.335   9.448  0.1391 -0.1743  0.0977
  211loPI    C2 3362  11.286   3.588   9.702 -0.0543  0.1539 -0.0866
  211loPI    C3 3363  10.947   3.402   9.808  0.0452  0.0303  0.0189
  211loPI   PO4 3364  11.035   3.447   9.206 -0.1982  0.0624 -0.0147
  211loPI   GL1 3365  11.252   3.598   8.741  0.2788  0.0255  0.0451
  211loPI   GL2 3366  11.004   3.301   8.701  0.1382  0.0949  0.0606
  211loPI   C1A 3367  11.574   3.533   8.464  0.1372  0.2757  0.0028
  211loPI   C2A 3368  11.572   3.611   8.062  0.0454 -0.0983  0.0716
  211loPI   C3A 3369  11.772   3.589   7.696 -0.1852  0.0415  0.3286
  211loPI   C4A 3370  12.081   3.594   7.335  0.1181 -0.0991 -0.1959
  211loPI   C5A 3371  12.031   3.265   6.992  0.0102 -0.0625 -0.0853
  211loPI   C6A 3372  12.398   3.073   6.886 -0.0827  0.0096 -0.0730
  211loPI   C1B 3373  10.882   3.422   8.248 -0.1570  0.0684 -0.3605
  211loPI   C2B 3374  11.073   3.557   7.852 -0.0185  0.2906 -0.1679
  211loPI   C3B 3375  11.242   3.854   7.593  0.1462  0.1507  0.0635
  211loPI   C4B 3376  11.091   3.927   7.114 -0.3675  0.0393 -0.1664
  212loPI    C1 3377  14.940   4.848   9.646 -0.1337 -0.1720 -0.1658
  212loPI    C2 3378  14.603   4.774   9.849 -0.1301  0.1213 -0.0486
  212loPI    C3 3379  14.955   4.774  10.039 -0.0722 -0.0935 -0.1531
  212loPI   PO4 3380  14.991   4.706   9.518  0.2951 -0.2196 -0.1033
  212loPI   GL1 3381  15.045   4.704   9.018  0.0046  0.0268  0.0970
  212loPI   GL2 3382  14.882   4.956   9.112 -0.0613  0.2616 -0.4489
  212loPI   C1A 3383  15.153   4.458   8.743 -0.0612 -0.0510 -0.2142
  212loPI   C2A 3384  14.943   4.066   8.485 -0.6266 -0.0663  0.0209
  212loPI   C3A 3385  15.087   3.931   8.119  0.3770  0.0352 -0.2035
  212loPI   C4A 3386  15.153   3.963   7.671 -0.0662  0.0712 -0.1738
  212loPI   C5A 3387  14.921   4.175   7.391 -0.4413 -0.2708 -0.0150
  212loPI   C6A 3388  14.632   4.555   7.470 -0.0899  0.2483  0.3986
  212loPI   C1B 3389  14.889   5.076   8.638 -0.1335  0.0572  0.2363
  212loPI   C2B 3390  15.088   5.155   8.305  0.1249  0.1169 -0.0579
  212loPI   C3B 3391  15.368   5.260   7.936  0.0912  0.3014 -0.2300
  212loPI   C4B 3392  15.485   5.381   7.653 -0.1030 -0.4717  0.0740
  213loPI    C1 3393  17.797   0.649   9.731  0.1722  0.0214 -0.0112
  213loPI    C2 3394  17.742   0.752  10.113 -0.1203  0.0299 -0.0533
  213loPI    C3 3395  17.760   0.366  10.011  0.4872  0.0235  0.0371
  213loPI   PO4 3396  17.969   0.911   9.697 -0.2686 -0.0056  0.1925
  213loPI   GL1 3397  18.142   1.009   9.224  0.0628 -0.0286  0.0794
  213loPI   GL2 3398  17.774   1.117   9.220 -0.3356  0.1681  0.1057
  213loPI   C1A 3399  18.093   1.209   8.773  0.1355  0.2072  0.2039
  213loPI   C2A 3400  18.254   1.189   8.442  0.2008 -0.0282  0.2187
  213loPI   C3A 3401  18.233   1.275   8.015 -0.0078  0.0274 -0.1381
  213loPI   C4A 3402  18.042   1.135   7.645  0.0210  0.2278  0.3476
  213loPI   C5A 3403  17.729   1.089   7.325 -0.0081  0.0937  0.2097
  213loPI   C6A 3404  17.356   1.009   7.011 -0.0111  0.3748 -0.3030
  213loPI   C1B 3405  17.801   0.830   8.887 -0.1233  0.0187 -0.0499
  213loPI   C2B 3406  17.933   0.771   8.518  0.0930 -0.0722 -0.0717
  213loPI   C3B 3407  17.919   0.834   8.090 -0.1544 -0.0977  0.1799
  213loPI   C4B 3408  17.616   1.070   7.859  0.1420  0.1442  0.3254
  214loPI    C1 3409  14.236  11.871   9.658  0.3086  0.2049  0.0623
  214loPI    C2 3410  14.253  11.525   9.857  0.2076  0.1770  0.0233
  214loPI    C3 3411  14.296  11.871  10.053  0.0321  0.1525  0.1062
  214loPI   PO4 3412  14.116  11.824   9.498 -0.0343 -0.3884 -0.2271
  214loPI   GL1 3413  13.779  11.696   9.335  0.1018 -0.1399 -0.1434
  214loPI   GL2 3414  13.817  11.446   9.331 -0.2450 -0.0890  0.0787
  214loPI   C1A 3415  13.580  11.804   8.846  0.0914  0.0114  0.0390
  214loPI   C2A 3416  13.636  11.816   8.459  0.2219 -0.0807 -0.4521
  214loPI   C3A 3417  13.647  11.578   8.132  0.1990  0.0918  0.1201
  214loPI   C4A 3418  13.436  11.637   7.741  0.0542  0.2199  0.1009
  214loPI   C5A 3419  13.150  11.762   7.263  0.0186  0.0104  0.0228
  214loPI   C6A 3420  13.077  11.805   6.871  0.3006  0.0794 -0.1980
  214loPI   C1B 3421  13.840  11.385   8.877 -0.0695 -0.2333 -0.3759
  214loPI   C2B 3422  13.718  11.326   8.539  0.0170  0.1427  0.1373
  214loPI   C3B 3423  13.385  11.101   8.413  0.2218  0.0756  0.1914
  214loPI   C4B 3424  13.076  11.302   8.033 -0.2598  0.2277 -0.0610
  215loPI    C1 3425   5.603   4.321   9.938 -0.2924 -0.2338 -0.0649
  215loPI    C2 3426   5.910   4.178  10.151 -0.1632 -0.0349 -0.1149
  215loPI    C3 3427   5.543   4.188  10.310 -0.1058 -0.0802  0.0217
  215loPI   PO4 3428   5.721   4.206   9.671  0.1332  0.1389 -0.1485
  215loPI   GL1 3429   5.654   3.823   9.372  0.0824 -0.2694  0.1995
  215loPI   GL2 3430   5.652   4.173   9.133 -0.2442  0.1653 -0.2996
  215loPI   C1A 3431   5.621   3.689   8.949  0.0200 -0.1364  0.4382
  215loPI   C2A 3432   5.470   3.586   8.571 -0.0177 -0.0245 -0.0073
  215loPI   C3A 3433   5.590   3.588   8.180  0.0413  0.1131  0.0989
  215loPI   C4A 3434   5.399   3.396   7.830  0.0068 -0.4633  0.1300
  215loPI   C5A 3435   5.491   3.276   7.403  0.1343 -0.2639  0.0069
  215loPI   C6A 3436   5.850   3.375   7.218 -0.2323  0.2890  0.1583
  215loPI   C1B 3437   5.752   4.320   8.805 -0.2031 -0.0121  0.2793
  215loPI   C2B 3438   5.743   4.749   8.846  0.0470  0.1919  0.3117
  215loPI   C3B 3439   5.734   5.044   8.474  0.1025 -0.0145 -0.3957
  215loPI   C4B 3440   5.692   5.453   8.360  0.2334 -0.1774 -0.1173
  216loPI    C1 3441  18.166  18.924   9.822  0.2557  0.0838  0.4254
  216loPI    C2 3442  18.203  19.252  10.048 -0.2607  0.3641  0.1233
  216loPI    C3 3443  17.929  18.976  10.140  0.1964 -0.0156  0.3979
  216loPI   PO4 3444  18.146  19.030   9.548  0.0289  0.2093 -0.1631
  216loPI   GL1 3445  18.148  19.246   9.134 -0.1786 -0.2205  0.1222
  216loPI   GL2 3446  18.139  18.940   9.051  0.0479  0.1393 -0.0355
  216loPI   C1A 3447  17.992  19.552   8.759 -0.0926  0.3247 -0.1061
  216loPI   C2A 3448  18.044  19.595   8.335  0.1476 -0.0368  0.1988
  216loPI   C3A 3449  18.024  19.514   7.975 -0.0372 -0.0061 -0.0103
  216loPI   C4A 3450  18.026  19.284   7.580  0.0125 -0.1408 -0.2578
  216loPI   C5A 3451  18.096  19.318   7.170  0.0248 -0.2473  0.1183
  216loPI   C6A 3452  18.190  19.113   6.764  0.0924 -0.1145 -0.2019
  216loPI   C1B 3453  18.225  19.098   8.561  0.4096  0.0226 -0.0180
  216loPI   C2B 3454  18.352  19.147   8.073  0.0211 -0.0047 -0.2417
  216loPI   C3B 3455  18.510  19.507   7.829  0.0538 -0.1399 -0.0327
  216loPI   C4B 3456  18.238  19.730   7.549  0.2941  0.1467  0.3026
  217loPI    C1 3457   6.812   3.460  10.202  0.0973 -0.1036 -0.1001
  217loPI    C2 3458   6.532   3.406  10.483 -0.0797  0.1939 -0.2154
  217loPI    C3 3459   6.862   3.181  10.485 -0.1732  0.0534  0.1082
  217loPI   PO4 3460   6.624   3.634   9.996  0.1723 -0.3309  0.0527
  217loPI   GL1 3461   6.651   3.705   9.560 -0.2542 -0.3142 -0.2345
  217loPI   GL2 3462   6.632   3.533   9.277 -0.0677 -0.1156  0.0417
  217loPI   C1A 3463   7.029   3.843   9.265  0.0778  0.4064  0.1756
  217loPI   C2A 3464   7.217   3.772   8.852 -0.2236 -0.1941  0.4512
  217loPI   C3A 3465   7.147   3.743   8.309 -0.2532  0.1616  0.0593
  217loPI   C4A 3466   7.158   3.608   7.866 -0.1541 -0.0489  0.3584
  217loPI   C5A 3467   7.519   3.540   7.590 -0.2086  0.0915  0.1800
  217loPI   C6A 3468   7.569   3.245   7.320 -0.1634  0.1322  0.0569
  217loPI   C1B 3469   6.453   3.535   8.870  0.2981 -0.3185  0.3598
  217loPI   C2B 3470   6.476   3.777   8.495 -0.0277 -0.3607  0.2911
  217loPI   C3B 3471   6.365   3.960   8.110  0.0429  0.2278  0.1086
  217loPI   C4B 3472   6.511   4.224   7.826  0.2904  0.1086 -0.0056
  218loPI    C1 3473   1.186   1.075   9.687  0.0206  0.0504 -0.0819
  218loPI    C2 3474   1.020   1.333   9.943  0.1064  0.0523 -0.0279
  218loPI    C3 3475   1.193   0.999  10.079  0.0415 -0.0084 -0.0935
  218loPI   PO4 3476   1.208   1.228   9.334 -0.3114 -0.2395  0.2912
  218loPI   GL1 3477   1.129   1.088   8.904  0.1257 -0.2933  0.1645
  218loPI   GL2 3478   1.266   1.379   8.825 -0.1477 -0.0267  0.2309
  218loPI   C1A 3479   0.913   0.952   8.599  0.1721 -0.1157  0.1242
  218loPI   C2A 3480   1.049   0.785   8.357  0.3007  0.0404 -0.1987
  218loPI   C3A 3481   1.176   0.676   7.988  0.2047  0.1406  0.0131
  218loPI   C4A 3482   1.276   0.649   7.472 -0.0070  0.3210 -0.1995
  218loPI   C5A 3483   1.147   0.637   6.995 -0.1814  0.2022  0.2937
  218loPI   C6A 3484   1.096   0.364   6.550 -0.0396 -0.1632  0.2729
  218loPI   C1B 3485   0.991   1.518   8.538 -0.0241 -0.0422 -0.0600
  218loPI   C2B 3486   0.968   1.589   8.118  0.2428  0.0212  0.0439
  218loPI   C3B 3487   1.096   1.521   7.654  0.1551 -0.0359  0.3070
  218loPI   C4B 3488   0.962   1.796   7.213  0.0345  0.0414 -0.1379
  219loPI    C1 3489  13.420  13.991   9.927 -0.1502 -0.1384 -0.0982
  219loPI    C2 3490  13.236  14.290  10.119  0.0837 -0.1385  0.1315
  219loPI    C3 3491  13.313  13.947  10.310  0.1093 -0.2258 -0.0338
  219loPI   PO4 3492  13.301  13.965   9.682 -0.2648 -0.0720 -0.1193
  219loPI   GL1 3493  13.325  14.142   9.232  0.4339  0.2128  0.0128
  219loPI   GL2 3494  13.468  13.940   9.183 -0.3191 -0.0844 -0.1637
  219loPI   C1A 3495  13.051  13.846   9.028 -0.3778  0.3608  0.2229
  219loPI   C2A 3496  13.230  13.644   8.653  0.1628 -0.0113 -0.1613
  219loPI   C3A 3497  13.191  13.476   8.316 -0.0957  0.1253  0.1345
  219loPI   C4A 3498  13.137  13.276   7.834 -0.1729 -0.2644  0.0684
  219loPI   C5A 3499  13.154  13.196   7.395 -0.1745 -0.0476  0.0607
  219loPI   C6A 3500  13.073  12.923   7.034  0.1580 -0.5278  0.0695
  219loPI   C1B 3501  13.714  13.947   8.887  0.0616  0.2681  0.1314
  219loPI   C2B 3502  13.861  13.974   8.522  0.1925 -0.0457  0.2870
  219loPI   C3B 3503  13.756  14.340   8.178 -0.0739 -0.0407  0.2241
  219loPI   C4B 3504  13.426  14.591   8.279 -0.1573  0.1451 -0.0966
  220loPI    C1 3505   2.568   0.040   9.342 -0.0979 -0.0206  0.0052
  220loPI    C2 3506   2.438  -0.093   8.988  0.1409  0.3003 -0.2082
  220loPI    C3 3507   2.344   0.276   9.110 -0.1326  0.1117  0.1716
  220loPI   PO4 3508   2.899  -0.091   9.279 -0.0023  0.2110  0.0890
  220loPI   GL1 3509   3.075  -0.114   8.865 -0.0053  0.2672 -0.1588
  220loPI   GL2 3510   3.224  -0.377   8.804  0.2319 -0.2202  0.3115
  220loPI   C1A 3511   2.682  -0.179   8.545  0.0676 -0.0574  0.0826
  220loPI   C2A 3512   2.440  -0.379   8.191 -0.0602  0.3522  0.2803
  220loPI   C3A 3513   2.624  -0.550   7.907 -0.0336  0.0293  0.1328
  220loPI   C4A 3514   2.667  -0.472   7.554  0.2126  0.1457 -0.2408
  220loPI   C5A 3515   2.625  -0.419   7.133  0.0127  0.1248  0.1871
  220loPI   C6A 3516   2.306  -0.275   6.724 -0.0354  0.1380 -0.2139
  220loPI   C1B 3517   3.169  -0.248   8.348  0.2724  0.1274  0.0476
  220loPI   C2B 3518   3.156  -0.120   7.948 -0.1995  0.0749 -0.1163
  220loPI   C3B 3519   3.141  -0.072   7.457  0.0880 -0.0918  0.2306
  220loPI   C4B 3520   3.191  -0.020   7.000  0.2248  0.0526  0.2782
  221loPI    C1 3521  14.697   6.297   9.533  0.1815 -0.0948 -0.0322
  221loPI    C2 3522  14.517   6.059   9.267 -0.0909  0.0424  0.0259
  221loPI    C3 3523  14.405   6.051   9.651  0.1350  0.0191  0.0927
  221loPI   PO4 3524  14.787   6.633   9.399  0.0406  0.0560 -0.0121
  221loPI   GL1 3525  14.805   6.810   8.983 -0.2629  0.1207  0.3403
  221loPI   GL2 3526  15.181   6.809   9.140 -0.2193  0.0234  0.5198
  221loPI   C1A 3527  14.707   6.614   8.587  0.0622  0.1138 -0.0306
  221loPI   C2A 3528  14.789   6.449   8.123 -0.2152 -0.1179  0.1543
  221loPI   C3A 3529  14.890   6.225   7.662 -0.0713  0.0950  0.0704
  221loPI   C4A 3530  15.007   6.130   7.214  0.1680  0.0796  0.1487
  221loPI   C5A 3531  14.759   6.259   6.821  0.0596 -0.0028  0.0633
  221loPI   C6A 3532  14.470   6.612   6.796 -0.3409  0.0843 -0.2809
  221loPI   C1B 3533  15.209   6.714   8.680  0.0312 -0.1079  0.1433
  221loPI   C2B 3534  15.082   6.844   8.235  0.1179  0.2913 -0.0956
  221loPI   C3B 3535  14.969   6.939   7.763  0.0636 -0.1274  0.2977
  221loPI   C4B 3536  14.997   7.016   7.306 -0.1106  0.1723  0.0834
  222loPI    C1 3537  13.629   4.808   9.629 -0.1784  0.0122 -0.0985
  222loPI    C2 3538  13.579   5.161   9.812  0.1846  0.1122 -0.1840
  222loPI    C3 3539  13.495   4.821  10.006 -0.1101  0.2412 -0.0805
  222loPI   PO4 3540  13.567   4.842   9.408 -0.3961 -0.0426  0.0363
  222loPI   GL1 3541  13.492   4.932   8.977  0.0152  0.0585  0.1998
  222loPI   GL2 3542  13.713   5.123   8.933 -0.0423  0.0837 -0.2338
  222loPI   C1A 3543  13.222   4.940   8.618 -0.0272  0.1845  0.0237
  222loPI   C2A 3544  13.095   4.770   8.221 -0.2496  0.1893 -0.0870
  222loPI   C3A 3545  13.240   4.608   7.914  0.1990 -0.3425  0.0324
  222loPI   C4A 3546  13.359   4.400   7.485  0.0369  0.0105  0.1289
  222loPI   C5A 3547  13.220   4.286   7.056  0.2217  0.1275 -0.1219
  222loPI   C6A 3548  13.005   4.596   6.702 -0.0510 -0.0239  0.3508
  222loPI   C1B 3549  13.803   5.517   8.619 -0.0190  0.0585  0.0699
  222loPI   C2B 3550  13.894   5.303   8.226 -0.3168  0.2327 -0.1880
  222loPI   C3B 3551  13.966   5.264   7.776 -0.3509 -0.1617 -0.1856
  222loPI   C4B 3552  13.727   5.426   7.456 -0.3283 -0.1740 -0.2878
  223loPI    C1 3553   9.313  13.983   9.784  0.0750 -0.1370 -0.1370
  223loPI    C2 3554   9.310  13.653  10.010 -0.1127  0.0750  0.1778
  223loPI    C3 3555   9.634  13.888  10.003  0.0300 -0.1227 -0.0649
  223loPI   PO4 3556   9.207  13.867   9.575 -0.0444  0.1126 -0.0142
  223loPI   GL1 3557   9.172  13.791   9.139 -0.2124  0.1308  0.2930
  223loPI   GL2 3558   9.430  13.689   9.147  0.2531 -0.1399  0.3575
  223loPI   C1A 3559   9.163  13.837   8.714 -0.2270 -0.3952 -0.1333
  223loPI   C2A 3560   9.068  14.000   8.222  0.5311  0.1456 -0.0384
  223loPI   C3A 3561   8.826  14.078   7.897  0.0639  0.0837 -0.2840
  223loPI   C4A 3562   8.846  14.061   7.473  0.2020 -0.1541 -0.1950
  223loPI   C5A 3563   8.938  13.904   7.053  0.2029  0.1639 -0.1221
  223loPI   C6A 3564   8.653  13.555   6.742 -0.4574  0.0563  0.0088
  223loPI   C1B 3565   9.629  13.942   8.832  0.1370 -0.0968 -0.0823
  223loPI   C2B 3566   9.943  14.197   8.607  0.3130  0.0548 -0.0898
  223loPI   C3B 3567   9.884  14.226   8.204 -0.0593  0.2092  0.0709
  223loPI   C4B 3568   9.508  14.377   7.993 -0.1252  0.0970  0.0194
  224loPI    C1 3569   1.512  13.812   9.941  0.0628  0.0611 -0.0054
  224loPI    C2 3570   1.210  13.831  10.202 -0.0165  0.0164 -0.0934
  224loPI    C3 3571   1.284  13.490  10.006  0.0495  0.0466 -0.1213
  224loPI   PO4 3572   1.495  14.053   9.836  0.2336  0.3936  0.1513
  224loPI   GL1 3573   1.621  13.921   9.416  0.0474  0.1725  0.0787
  224loPI   GL2 3574   1.865  13.964   9.333 -0.0753 -0.1061  0.0201
  224loPI   C1A 3575   1.325  13.985   8.934 -0.2997 -0.0508 -0.4250
  224loPI   C2A 3576   1.447  14.227   8.570  0.0052 -0.1010 -0.1665
  224loPI   C3A 3577   1.146  14.232   8.284  0.0244  0.2797  0.0829
  224loPI   C4A 3578   1.189  14.047   7.847 -0.0772  0.0137  0.2116
  224loPI   C5A 3579   1.531  14.188   7.581 -0.1083 -0.0473 -0.2905
  224loPI   C6A 3580   1.614  14.455   7.264  0.2042  0.0568  0.1256
  224loPI   C1B 3581   1.763  13.862   8.789  0.2283 -0.1763  0.0762
  224loPI   C2B 3582   1.477  13.707   8.459  0.0207  0.0969 -0.3481
  224loPI   C3B 3583   1.321  13.577   8.067 -0.0657  0.0673 -0.4323
  224loPI   C4B 3584   1.559  13.704   7.768  0.0687 -0.1666  0.1084
  225loPI    C1 3585   4.175  14.269   9.807  0.1026  0.0655  0.1199
  225loPI    C2 3586   3.962  14.581   9.678 -0.0136 -0.1056 -0.1093
  225loPI    C3 3587   4.009  14.520  10.070 -0.2716  0.0107 -0.0580
  225loPI   PO4 3588   4.446  14.298   9.788 -0.1987 -0.0793  0.3887
  225loPI   GL1 3589   4.676  14.174   9.448  0.0592 -0.2718 -0.2087
  225loPI   GL2 3590   4.918  14.000   9.465 -0.0439 -0.0653 -0.2441
  225loPI   C1A 3591   4.633  14.337   9.019 -0.3202  0.0941  0.3341
  225loPI   C2A 3592   4.525  14.294   8.659 -0.0246 -0.0587 -0.1694
  225loPI   C3A 3593   4.676  14.087   8.271 -0.0259 -0.0089  0.2326
  225loPI   C4A 3594   4.828  14.093   7.935  0.1067 -0.0235  0.1673
  225loPI   C5A 3595   4.924  13.910   7.537 -0.2846 -0.1248 -0.2101
  225loPI   C6A 3596   5.262  13.767   7.241 -0.0754 -0.4745 -0.1412
  225loPI   C1B 3597   5.073  13.997   8.997  0.1736  0.0361 -0.0625
  225loPI   C2B 3598   5.169  14.236   8.600  0.1056 -0.0800 -0.1704
  225loPI   C3B 3599   5.069  14.442   8.175 -0.1762  0.0007  0.1698
  225loPI   C4B 3600   5.093  14.551   7.764  0.0259  0.0311  0.3355
  226loPI    C1 3601  11.814   3.052   9.253 -0.0684 -0.0149  0.2232
  226loPI    C2 3602  11.667   3.400   9.384  0.0988  0.1207  0.0577
  226loPI    C3 3603  11.567   3.058   9.567  0.0521  0.2699  0.3155
  226loPI   PO4 3604  12.063   3.152   9.117  0.4220  0.0417  0.0151
  226loPI   GL1 3605  12.375   3.149   8.756  0.3221  0.1221  0.2631
  226loPI   GL2 3606  12.559   2.943   8.907 -0.1821 -0.0898  0.0922
  226loPI   C1A 3607  12.259   3.288   8.464 -0.1671  0.4044  0.1607
  226loPI   C2A 3608  12.116   3.574   8.157 -0.6864 -0.1002 -0.3885
  226loPI   C3A 3609  12.282   3.778   7.815 -0.0564 -0.3766  0.3101
  226loPI   C4A 3610  12.371   4.072   7.579 -0.1240 -0.0842 -0.1688
  226loPI   C5A 3611  12.266   4.133   7.220  0.0933 -0.1657 -0.0834
  226loPI   C6A 3612  12.186   3.812   6.854 -0.2194  0.0656 -0.0318
  226loPI   C1B 3613  12.680   2.824   8.507 -0.0206 -0.2066 -0.0114
  226loPI   C2B 3614  12.626   2.930   8.052  0.2847 -0.0382  0.1028
  226loPI   C3B 3615  12.785   2.874   7.608 -0.3230 -0.4148  0.2279
  226loPI   C4B 3616  12.838   2.800   7.123 -0.1140  0.1358  0.1507
  227loPI    C1 3617  12.469  12.031   9.774 -0.0998  0.0027  0.1060
  227loPI    C2 3618  12.490  12.361   9.999  0.3232  0.0248  0.0433
  227loPI    C3 3619  12.214  12.081  10.078 -0.0055  0.3654  0.1295
  227loPI   PO4 3620  12.502  12.107   9.446 -0.0239 -0.1947 -0.3266
  227loPI   GL1 3621  12.694  11.891   9.177 -0.2105  0.5387 -0.0628
  227loPI   GL2 3622  12.692  11.568   9.124  0.1183  0.2538  0.0665
  227loPI   C1A 3623  12.682  12.093   8.785 -0.2613  0.0943 -0.0218
  227loPI   C2A 3624  12.784  12.028   8.292 -0.0025  0.1411 -0.0905
  227loPI   C3A 3625  12.775  12.306   7.883 -0.1879  0.2044 -0.1465
  227loPI   C4A 3626  12.461  12.277   7.600  0.0559  0.0912 -0.0464
  227loPI   C5A 3627  12.142  12.349   7.240 -0.2572 -0.0383  0.1579
  227loPI   C6A 3628  11.879  12.408   6.882  0.0027 -0.4780  0.0558
  227loPI   C1B 3629  12.766  11.631   8.671  0.2887 -0.0012  0.0615
  227loPI   C2B 3630  13.060  11.613   8.399 -0.2015  0.1586 -0.2886
  227loPI   C3B 3631  12.986  11.782   7.930  0.2258  0.0371 -0.0417
  227loPI   C4B 3632  12.740  11.832   7.570 -0.2831 -0.0221  0.1611
  228loPI    C1 3633  10.241  13.021   9.876  0.0325 -0.2614 -0.1281
  228loPI    C2 3634  10.462  12.832  10.150 -0.1061 -0.0103  0.1630
  228loPI    C3 3635  10.107  12.986  10.251 -0.1832  0.0394 -0.1729
  228loPI   PO4 3636  10.131  12.695   9.606 -0.1052 -0.3011  0.1608
  228loPI   GL1 3637  10.085  12.794   9.208 -0.0396 -0.2335 -0.2462
  228loPI   GL2 3638  10.220  12.538   9.007  0.0630 -0.2578 -0.1080
  228loPI   C1A 3639  10.060  13.035   8.832  0.2197 -0.0396  0.0632
  228loPI   C2A 3640  10.122  12.942   8.474 -0.2906 -0.1981  0.0358
  228loPI   C3A 3641  10.081  12.783   8.203  0.0155  0.2770 -0.0953
  228loPI   C4A 3642  10.231  12.582   7.792  0.1470 -0.2193 -0.0779
  228loPI   C5A 3643  10.280  12.798   7.387  0.0640  0.1022  0.0023
  228loPI   C6A 3644  10.204  12.867   6.949  0.2777  0.1570 -0.0795
  228loPI   C1B 3645  10.330  12.387   8.598  0.0051  0.3665 -0.0692
  228loPI   C2B 3646  10.494  12.395   8.282  0.0098 -0.4842 -0.0708
  228loPI   C3B 3647  10.643  12.315   7.766 -0.2908  0.0909 -0.0300
  228loPI   C4B 3648  10.597  12.419   7.359  0.3061  0.0320 -0.0615
  229loPI    C1 3649  18.523  14.936   9.603 -0.1738  0.0863 -0.0504
  229loPI    C2 3650  18.199  15.047   9.810  0.0663  0.1776  0.2857
  229loPI    C3 3651  18.541  14.966  10.001  0.2352  0.0468 -0.0613
  229loPI   PO4 3652  18.481  15.030   9.342  0.1319  0.2068  0.0603
  229loPI   GL1 3653  18.766  14.747   8.994  0.1233  0.1121  0.0726
  229loPI   GL2 3654  18.795  14.467   8.884  0.2076  0.1568 -0.6008
  229loPI   C1A 3655  18.724  15.131   8.701  0.0546 -0.0349  0.1295
  229loPI   C2A 3656  18.862  15.370   8.388  0.0724  0.0955  0.0544
  229loPI   C3A 3657  18.891  15.336   7.954  0.5545 -0.1835  0.1057
  229loPI   C4A 3658  19.129  15.203   7.635  0.1739  0.2294 -0.3384
  229loPI   C5A 3659  19.535  15.252   7.262 -0.2835  0.0183  0.0972
  229loPI   C6A 3660  19.987  14.992   7.368 -0.4615  0.0722  0.1069
  229loPI   C1B 3661  19.186  14.335   8.524 -0.2108  0.1248  0.2276
  229loPI   C2B 3662  19.289  14.338   8.096 -0.2616 -0.1738  0.1304
  229loPI   C3B 3663  19.574  14.674   7.967 -0.0400 -0.2129 -0.1020
  229loPI   C4B 3664  19.630  15.021   7.694 -0.0727  0.4077  0.0835
  230loPI    C1 3665   3.126   8.592  10.046  0.0810 -0.2737  0.1280
  230loPI    C2 3666   3.221   8.806  10.371 -0.0986 -0.0106  0.0104
  230loPI    C3 3667   2.839   8.714  10.296 -0.0531 -0.1128 -0.1005
  230loPI   PO4 3668   3.242   8.699   9.885 -0.2598  0.1499 -0.0922
  230loPI   GL1 3669   3.216   8.918   9.524  0.1851 -0.4753 -0.0267
  230loPI   GL2 3670   3.338   9.252   9.501  0.1033 -0.0707 -0.1841
  230loPI   C1A 3671   2.925   8.870   9.146  0.1115  0.4455  0.1320
  230loPI   C2A 3672   3.031   8.796   8.720  0.0085 -0.1006 -0.3042
  230loPI   C3A 3673   3.283   9.063   8.429 -0.1632 -0.0095 -0.2829
  230loPI   C4A 3674   3.573   9.044   7.994  0.2450 -0.0503 -0.0482
  230loPI   C5A 3675   3.592   9.010   7.579 -0.0789 -0.0087 -0.3000
  230loPI   C6A 3676   3.699   8.740   7.287  0.2164 -0.2040 -0.3663
  230loPI   C1B 3677   3.215   9.212   8.972  0.3761  0.1927 -0.3141
  230loPI   C2B 3678   3.064   9.560   8.646 -0.3576  0.0575  0.3703
  230loPI   C3B 3679   3.313   9.992   8.759  0.3312  0.0107  0.1574
  230loPI   C4B 3680   3.691  10.005   8.989 -0.3252  0.2682  0.2500
  231loPI    C1 3681  11.814   8.495   9.944  0.1790 -0.0038  0.2384
  231loPI    C2 3682  11.746   8.376  10.320  0.0510  0.0603  0.2364
  231loPI    C3 3683  11.461   8.571  10.117  0.0303 -0.1865  0.0226
  231loPI   PO4 3684  11.844   8.244   9.803 -0.0672  0.0707 -0.0278
  231loPI   GL1 3685  11.831   8.224   9.281 -0.2007 -0.0879 -0.1828
  231loPI   GL2 3686  11.856   7.925   9.143  0.1818 -0.1740 -0.0621
  231loPI   C1A 3687  12.105   8.616   9.036 -0.2109  0.1535  0.0858
  231loPI   C2A 3688  12.116   8.796   8.769 -0.2021 -0.0740  0.1853
  231loPI   C3A 3689  12.133   8.779   8.279 -0.0124  0.0693 -0.3418
  231loPI   C4A 3690  11.999   8.807   7.869 -0.0721  0.1627 -0.0844
  231loPI   C5A 3691  11.715   8.687   7.651 -0.2501  0.2731 -0.1372
  231loPI   C6A 3692  11.553   8.668   7.230 -0.1700 -0.0680 -0.0089
  231loPI   C1B 3693  11.850   8.170   8.791 -0.1129 -0.2978 -0.1747
  231loPI   C2B 3694  11.683   8.385   8.490 -0.2943 -0.0878  0.0186
  231loPI   C3B 3695  11.635   8.534   8.103 -0.3648 -0.3349 -0.0096
  231loPI   C4B 3696  11.454   8.254   7.887  0.0566 -0.1013 -0.1039
  232loPI    C1 3697   3.798  15.183   9.745  0.3821  0.0634  0.1055
  232loPI    C2 3698   3.540  15.352   9.999 -0.1097 -0.2207 -0.1907
  232loPI    C3 3699   3.686  14.987  10.075  0.0961 -0.1204 -0.0967
  232loPI   PO4 3700   3.627  15.150   9.512 -0.1050  0.0972  0.1246
  232loPI   GL1 3701   3.509  15.233   9.068  0.1172  0.1176 -0.2925
  232loPI   GL2 3702   3.206  15.143   9.228 -0.1479  0.2103  0.2661
  232loPI   C1A 3703   3.264  15.490   8.808 -0.1734 -0.0848  0.1245
  232loPI   C2A 3704   3.425  15.730   8.485 -0.3860  0.0840 -0.0111
  232loPI   C3A 3705   3.564  15.761   7.995  0.0383  0.2331 -0.2132
  232loPI   C4A 3706   3.505  16.064   7.653  0.0528 -0.1661 -0.0222
  232loPI   C5A 3707   3.281  16.428   7.533  0.0017 -0.1282  0.1610
  232loPI   C6A 3708   2.963  16.624   7.499  0.3025  0.4362 -0.0545
  232loPI   C1B 3709   3.139  15.060   8.796 -0.0298 -0.1490  0.0768
  232loPI   C2B 3710   3.142  15.291   8.364 -0.2019  0.0174  0.2029
  232loPI   C3B 3711   3.137  15.207   7.891  0.2141  0.0232  0.1832
  232loPI   C4B 3712   3.393  15.471   7.604 -0.1215 -0.2438 -0.3810
  233loPI    C1 3713  14.055  15.763   9.518  0.0560 -0.1376  0.1172
  233loPI    C2 3714  13.671  15.828   9.425  0.0804 -0.0124  0.1025
  233loPI    C3 3715  13.841  16.030   9.725  0.1238 -0.0981  0.1361
  233loPI   PO4 3716  14.153  15.703   9.251  0.0800 -0.2012 -0.0845
  233loPI   GL1 3717  14.159  15.498   8.823  0.0072 -0.5078 -0.0332
  233loPI   GL2 3718  14.301  15.170   8.796 -0.0707  0.0464  0.1926
  233loPI   C1A 3719  14.040  15.564   8.434 -0.0253 -0.2256 -0.2451
  233loPI   C2A 3720  13.963  15.424   8.035  0.0501 -0.0656 -0.0474
  233loPI   C3A 3721  13.811  15.247   7.683  0.1269  0.2249  0.0246
  233loPI   C4A 3722  13.777  15.310   7.193 -0.2479  0.1948 -0.1306
  233loPI   C5A 3723  14.041  15.412   6.923 -0.1904 -0.0213  0.0358
  233loPI   C6A 3724  14.320  15.713   6.709  0.1490 -0.1085 -0.5042
  233loPI   C1B 3725  14.524  15.414   8.510 -0.0848  0.0410  0.2790
  233loPI   C2B 3726  14.558  15.454   8.093  0.1620  0.0470  0.1321
  233loPI   C3B 3727  14.589  15.570   7.631 -0.3161  0.0823  0.0430
  233loPI   C4B 3728  14.718  15.997   7.480 -0.0609  0.0038 -0.5035
  234loPI    C1 3729   5.996   7.008  10.162  0.0167 -0.0699  0.0854
  234loPI    C2 3730   5.931   7.354  10.353 -0.1950 -0.0098 -0.0908
  234loPI    C3 3731   6.071   7.037  10.554  0.1650  0.2248  0.0375
  234loPI   PO4 3732   5.985   7.018   9.885 -0.6386 -0.1429 -0.2405
  234loPI   GL1 3733   6.116   7.138   9.473  0.1292  0.0652 -0.3840
  234loPI   GL2 3734   6.421   7.329   9.481  0.1179  0.0303  0.1811
  234loPI   C1A 3735   5.909   6.994   9.159 -0.0109 -0.0539  0.0809
  234loPI   C2A 3736   5.820   6.855   8.718  0.3760  0.0365  0.0761
  234loPI   C3A 3737   5.853   6.788   8.306 -0.0913  0.2262  0.2131
  234loPI   C4A 3738   5.789   6.616   7.900 -0.0813 -0.1506  0.0442
  234loPI   C5A 3739   5.793   6.466   7.457 -0.1870 -0.0208 -0.0078
  234loPI   C6A 3740   5.672   6.611   6.956  0.1247  0.3342  0.0163
  234loPI   C1B 3741   6.405   7.205   9.005  0.2731  0.1714  0.1676
  234loPI   C2B 3742   6.090   7.259   8.756  0.0058 -0.5116  0.0370
  234loPI   C3B 3743   5.996   7.344   8.405 -0.1753  0.0169  0.2237
  234loPI   C4B 3744   5.955   7.521   8.004 -0.0852  0.1140 -0.1043
  235loPI    C1 3745   9.100   7.303   9.902  0.2673  0.2675 -0.0315
  235loPI    C2 3746   8.956   7.667   9.819 -0.0857  0.1072 -0.1426
  235loPI    C3 3747   8.766   7.431  10.080  0.1669  0.0179 -0.0357
  235loPI   PO4 3748   9.211   7.281   9.602  0.1573 -0.1273 -0.2141
  235loPI   GL1 3749   8.993   7.552   9.280  0.0170  0.1786 -0.0849
  235loPI   GL2 3750   9.159   7.851   9.391  0.1093 -0.0255 -0.0675
  235loPI   C1A 3751   8.914   7.529   8.806  0.1694 -0.0578 -0.0591
  235loPI   C2A 3752   8.728   7.510   8.468 -0.1079 -0.1032  0.2349
  235loPI   C3A 3753   8.729   7.337   8.042  0.1317 -0.1110  0.1359
  235loPI   C4A 3754   8.662   7.377   7.553  0.3733  0.1726 -0.0063
  235loPI   C5A 3755   8.747   7.500   6.994 -0.2001 -0.0059 -0.0826
  235loPI   C6A 3756   8.800   7.837   6.683 -0.0303  0.1366  0.0743
  235loPI   C1B 3757   9.338   7.953   8.987  0.0552 -0.1251 -0.5162
  235loPI   C2B 3758   9.401   7.926   8.616  0.1111 -0.1248 -0.0235
  235loPI   C3B 3759   9.192   7.662   8.340  0.0155  0.0730 -0.1372
  235loPI   C4B 3760   9.148   7.217   8.328  0.2970  0.0134  0.1112
  236loPI    C1 3761  11.134  17.811   9.987 -0.0230  0.0464  0.0089
  236loPI    C2 3762  11.097  17.558  10.295  0.0748  0.2564  0.1957
  236loPI    C3 3763  10.795  17.803  10.199  0.0503  0.2020  0.1335
  236loPI   PO4 3764  11.216  17.644   9.700 -0.0160  0.4841 -0.0405
  236loPI   GL1 3765  11.267  17.833   9.224  0.0951  0.4193  0.1502
  236loPI   GL2 3766  11.120  18.066   9.284 -0.0341  0.1669  0.1688
  236loPI   C1A 3767  11.351  17.635   8.816  0.3772  0.1425  0.2512
  236loPI   C2A 3768  11.489  17.496   8.455 -0.0394 -0.0746  0.2870
  236loPI   C3A 3769  11.480  17.749   8.088 -0.0250  0.1405  0.0680
  236loPI   C4A 3770  11.339  17.716   7.689 -0.3945  0.0655 -0.0118
  236loPI   C5A 3771  11.280  17.831   7.224 -0.0106 -0.1436  0.3067
  236loPI   C6A 3772  11.092  18.037   6.884 -0.3554 -0.1284 -0.1316
  236loPI   C1B 3773  11.287  18.228   8.883 -0.0707 -0.0135  0.2930
  236loPI   C2B 3774  11.276  18.254   8.425  0.0872  0.0184 -0.2561
  236loPI   C3B 3775  11.246  18.240   8.001  0.0448  0.1146  0.0548
  236loPI   C4B 3776  11.436  18.223   7.543  0.4032 -0.1884 -0.1252
  237loPI    C1 3777  17.524  16.060   9.651 -0.0286  0.4177  0.0375
  237loPI    C2 3778  17.529  16.126  10.045  0.1816  0.1557  0.0821
  237loPI    C3 3779  17.216  15.943   9.877  0.2808 -0.1254  0.1976
  237loPI   PO4 3780  17.756  16.017   9.406 -0.0164 -0.2349 -0.0564
  237loPI   GL1 3781  17.993  16.137   8.970 -0.0422  0.1384 -0.1008
  237loPI   GL2 3782  18.086  16.386   8.666  0.2197  0.1977 -0.2115
  237loPI   C1A 3783  17.981  15.798   8.734 -0.2086  0.3961 -0.0785
  237loPI   C2A 3784  17.679  15.755   8.377 -0.1239  0.3165  0.0812
  237loPI   C3A 3785  17.544  15.369   8.299  0.0379  0.2483  0.0352
  237loPI   C4A 3786  17.271  15.118   7.939  0.1249 -0.1625  0.0579
  237loPI   C5A 3787  17.210  14.979   7.459 -0.1774  0.0340  0.2280
  237loPI   C6A 3788  17.256  14.863   7.047  0.0052  0.1116  0.0762
  237loPI   C1B 3789  18.048  16.264   8.146  0.0812  0.1412 -0.1031
  237loPI   C2B 3790  18.191  15.907   7.982  0.1480  0.1339 -0.0717
  237loPI   C3B 3791  18.297  15.712   7.593  0.1719 -0.0516  0.1137
  237loPI   C4B 3792  18.081  15.317   7.487  0.1737  0.2175 -0.0468
  238loPI    C1 3793  10.342  14.390   9.791  0.1689  0.0542 -0.2274
  238loPI    C2 3794  10.382  14.785   9.741 -0.0039  0.0869 -0.1167
  238loPI    C3 3795  10.431  14.623  10.103 -0.1793  0.0394 -0.1136
  238loPI   PO4 3796  10.244  14.335   9.632 -0.1487  0.0580 -0.3249
  238loPI   GL1 3797  10.274  13.998   9.411 -0.0527  0.0817 -0.1685
  238loPI   GL2 3798  10.077  14.153   9.183  0.1119  0.2585  0.0082
  238loPI   C1A 3799  10.550  13.984   9.055  0.0439  0.2409  0.0171
  238loPI   C2A 3800  10.733  14.260   8.750  0.0462 -0.2104 -0.0596
  238loPI   C3A 3801  10.827  14.428   8.297  0.0348 -0.2299 -0.1732
  238loPI   C4A 3802  10.593  14.251   7.960 -0.0831 -0.0966 -0.0062
  238loPI   C5A 3803  10.318  14.108   7.661  0.1472 -0.0108 -0.2664
  238loPI   C6A 3804   9.926  14.039   7.617 -0.3051 -0.1862  0.1380
  238loPI   C1B 3805  10.302  14.473   8.912  0.0338  0.2276  0.1968
  238loPI   C2B 3806  10.535  14.752   8.771  0.0698 -0.2017  0.4099
  238loPI   C3B 3807  10.685  14.917   8.540  0.1133  0.3230  0.1810
  238loPI   C4B 3808  10.760  15.252   8.239  0.6533 -0.0876  0.0516
  239loPI    C1 3809   4.398   5.414  10.140  0.4873  0.1594 -0.2075
  239loPI    C2 3810   4.541   5.745  10.314  0.0157  0.0975  0.3268
  239loPI    C3 3811   4.200   5.582  10.445  0.0100 -0.3569 -0.2180
  239loPI   PO4 3812   4.288   5.471   9.893 -0.0422  0.0325 -0.3482
  239loPI   GL1 3813   4.259   5.616   9.554 -0.2588  0.1818 -0.0953
  239loPI   GL2 3814   4.199   6.002   9.600  0.0660 -0.0171 -0.2298
  239loPI   C1A 3815   4.506   5.745   9.089  0.0224 -0.0760  0.1367
  239loPI   C2A 3816   4.377   5.742   8.677 -0.0787  0.0471 -0.1231
  239loPI   C3A 3817   4.630   5.769   8.338 -0.2479 -0.3077 -0.0538
  239loPI   C4A 3818   4.801   5.428   7.948 -0.0538  0.0767 -0.1156
  239loPI   C5A 3819   5.017   5.045   7.834 -0.4763 -0.1633  0.0589
  239loPI   C6A 3820   4.986   4.909   7.383 -0.0073 -0.0197  0.1416
  239loPI   C1B 3821   4.140   6.076   9.108  0.0143  0.1330 -0.1443
  239loPI   C2B 3822   3.957   6.108   8.703  0.1673  0.0705 -0.1882
  239loPI   C3B 3823   3.630   6.213   8.418 -0.3826  0.0760 -0.1496
  239loPI   C4B 3824   3.402   6.323   8.110  0.3731  0.0065  0.1511
  240loPI    C1 3825   2.698   1.033   9.503  0.2555  0.0865  0.0267
  240loPI    C2 3826   3.055   1.211   9.532  0.1543  0.2580  0.2569
  240loPI    C3 3827   2.869   1.082   9.862  0.0068  0.1616  0.1373
  240loPI   PO4 3828   2.583   1.128   9.365 -0.0332 -0.1242 -0.2300
  240loPI   GL1 3829   2.563   1.308   8.972 -0.1057 -0.1966  0.1130
  240loPI   GL2 3830   2.228   1.234   8.878 -0.2638  0.0269 -0.1749
  240loPI   C1A 3831   2.829   1.587   8.654  0.1134  0.1490 -0.0930
  240loPI   C2A 3832   2.947   1.642   8.141  0.0821  0.1821  0.0064
  240loPI   C3A 3833   2.968   1.778   7.732 -0.0753  0.2681 -0.0478
  240loPI   C4A 3834   2.908   1.770   7.304 -0.1179  0.0526  0.2156
  240loPI   C5A 3835   2.818   1.611   6.886  0.1047  0.1621 -0.0492
  240loPI   C6A 3836   2.731   1.414   6.600 -0.0225  0.1501 -0.0807
  240loPI   C1B 3837   2.413   1.355   8.480 -0.0712 -0.0203  0.0905
  240loPI   C2B 3838   2.413   1.544   8.040  0.2652  0.0276 -0.1586
  240loPI   C3B 3839   2.544   1.613   7.633 -0.2020 -0.1027  0.2603
  240loPI   C4B 3840   2.522   1.430   7.324 -0.0764  0.2150 -0.2173
  241loPI    C1 3841  16.939   5.329   9.786 -0.0106 -0.3442 -0.1639
  241loPI    C2 3842  16.779   5.139  10.099  0.1418 -0.2421 -0.0226
  241loPI    C3 3843  17.161   5.073   9.999  0.1365 -0.1630 -0.0966
  241loPI   PO4 3844  16.801   5.453   9.652 -0.1246 -0.0957 -0.1990
  241loPI   GL1 3845  16.811   5.446   9.201 -0.1965  0.1488 -0.1797
  241loPI   GL2 3846  16.697   5.738   9.211 -0.1921  0.1164 -0.0446
  241loPI   C1A 3847  16.797   5.352   8.840  0.0784  0.3121 -0.1894
  241loPI   C2A 3848  16.766   5.217   8.357  0.2359  0.0052  0.0430
  241loPI   C3A 3849  16.839   5.264   7.888  0.0082 -0.0871  0.2922
  241loPI   C4A 3850  17.021   5.239   7.382  0.0403  0.1298 -0.1696
  241loPI   C5A 3851  17.355   4.921   7.070  0.3487 -0.1608  0.1159
  241loPI   C6A 3852  17.518   4.696   6.649 -0.2233 -0.2391  0.2198
  241loPI   C1B 3853  16.937   5.829   8.880 -0.0805  0.1338 -0.1924
  241loPI   C2B 3854  17.072   5.672   8.518  0.0968 -0.0905 -0.2021
  241loPI   C3B 3855  16.828   5.695   8.184  0.2132  0.1874 -0.3030
  241loPI   C4B 3856  16.796   5.947   7.874  0.0536 -0.0828 -0.2172
  242loPI    C1 3857   6.862   5.658  10.060  0.1707  0.0534 -0.0771
  242loPI    C2 3858   6.666   5.741  10.399  0.0269  0.0961 -0.1696
  242loPI    C3 3859   6.955   5.464  10.398  0.0477  0.1159 -0.0065
  242loPI   PO4 3860   6.645   5.576   9.928 -0.0178  0.5225 -0.0970
  242loPI   GL1 3861   6.716   5.304   9.561  0.1248 -0.0231 -0.0601
  242loPI   GL2 3862   7.015   5.563   9.407  0.1018  0.2163  0.2228
  242loPI   C1A 3863   6.638   5.202   9.181  0.2615  0.0794 -0.3264
  242loPI   C2A 3864   6.631   5.019   8.756  0.0181  0.1570  0.2205
  242loPI   C3A 3865   6.707   5.131   8.221 -0.0309  0.1524  0.0162
  242loPI   C4A 3866   6.846   5.338   7.729  0.3450 -0.1819  0.1470
  242loPI   C5A 3867   6.836   5.435   7.257  0.1478 -0.0445 -0.4475
  242loPI   C6A 3868   6.675   5.405   6.883  0.1616  0.0640  0.1665
  242loPI   C1B 3869   7.258   5.558   8.983 -0.2773  0.0149  0.2761
  242loPI   C2B 3870   7.577   5.478   8.650 -0.0853  0.2228  0.0224
  242loPI   C3B 3871   7.805   5.346   8.197  0.0461 -0.0758 -0.1654
  242loPI   C4B 3872   7.737   5.582   7.785 -0.1708  0.1917  0.3717
  243loPI    C1 3873   1.867   7.106   9.775  0.1812  0.1006 -0.0987
  243loPI    C2 3874   1.948   7.176  10.160  0.0953 -0.1222 -0.0386
  243loPI    C3 3875   2.081   7.428   9.879  0.1768  0.0298  0.1339
  243loPI   PO4 3876   1.897   6.862   9.743 -0.2489  0.0766  0.2479
  243loPI   GL1 3877   1.770   6.677   9.351 -0.2217  0.3241 -0.2198
  243loPI   GL2 3878   1.523   6.446   9.305  0.1299 -0.2517 -0.1039
  243loPI   C1A 3879   1.833   6.771   8.889  0.2857  0.0576 -0.1361
  243loPI   C2A 3880   1.567   6.621   8.573 -0.0212 -0.0501  0.0561
  243loPI   C3A 3881   1.325   6.314   8.293 -0.0365  0.1214 -0.0908
  243loPI   C4A 3882   1.350   6.137   7.977  0.4065  0.2311  0.0598
  243loPI   C5A 3883   1.363   5.931   7.593  0.2954  0.0995 -0.4158
  243loPI   C6A 3884   1.505   5.549   7.355 -0.1008 -0.0801  0.0419
  243loPI   C1B 3885   1.468   6.219   8.846  0.1326 -0.0144 -0.0779
  243loPI   C2B 3886   1.786   6.124   8.498 -0.1220 -0.0106  0.1989
  243loPI   C3B 3887   2.344   6.035   8.439 -0.0199 -0.1637 -0.0330
  243loPI   C4B 3888   2.697   6.007   8.607 -0.1245 -0.3457  0.2107
  244loPI    C1 3889   8.315   3.135   9.599  0.0956 -0.0777 -0.0375
  244loPI    C2 3890   8.529   2.990   9.904  0.0531  0.0136  0.0360
  244loPI    C3 3891   8.540   3.381   9.820 -0.0012  0.0016 -0.0270
  244loPI   PO4 3892   8.341   2.995   9.309 -0.0632  0.0676 -0.3168
  244loPI   GL1 3893   8.188   2.953   8.857  0.0795 -0.0670 -0.1869
  244loPI   GL2 3894   7.820   3.014   8.991 -0.2474  0.0003 -0.1432
  244loPI   C1A 3895   8.232   2.888   8.468 -0.2121  0.0663  0.1574
  244loPI   C2A 3896   8.465   2.676   8.068  0.2214  0.1128  0.2826
  244loPI   C3A 3897   8.495   2.687   7.508  0.1185 -0.2047 -0.4024
  244loPI   C4A 3898   8.682   2.788   7.148  0.1635 -0.2598 -0.2544
  244loPI   C5A 3899   8.825   3.170   7.098  0.0302  0.3966 -0.1787
  244loPI   C6A 3900   9.089   3.398   6.802  0.1962 -0.1780 -0.1151
  244loPI   C1B 3901   7.853   3.203   8.501  0.0687 -0.0242 -0.0041
  244loPI   C2B 3902   8.084   3.411   8.235 -0.1882 -0.0655  0.0651
  244loPI   C3B 3903   8.047   3.573   7.859  0.0914  0.1702 -0.1431
  244loPI   C4B 3904   8.035   3.409   7.399  0.1921  0.0539  0.1913
  245loPI    C1 3905  12.724  10.560   9.850 -0.0372  0.0068  0.0727
  245loPI    C2 3906  13.015  10.346   9.679 -0.2080 -0.0779 -0.1166
  245loPI    C3 3907  13.104  10.614   9.963  0.0605 -0.0567 -0.2170
  245loPI   PO4 3908  12.575  10.690   9.658  0.0694 -0.0709 -0.0852
  245loPI   GL1 3909  12.465  10.691   9.244  0.2981  0.0499 -0.4606
  245loPI   GL2 3910  12.775  10.606   9.182  0.0539 -0.0420 -0.3453
  245loPI   C1A 3911  12.354  10.372   8.886 -0.2047 -0.0017 -0.2354
  245loPI   C2A 3912  12.535  10.138   8.623 -0.2249  0.3383  0.0130
  245loPI   C3A 3913  12.426  10.072   8.210 -0.2647  0.1811  0.1724
  245loPI   C4A 3914  12.273  10.161   7.812  0.0263 -0.1599  0.1319
  245loPI   C5A 3915  12.153  10.202   7.362  0.0102 -0.0669  0.0541
  245loPI   C6A 3916  12.270  10.192   6.890 -0.0479 -0.0652  0.0445
  245loPI   C1B 3917  12.722  10.598   8.737  0.1077 -0.0180 -0.1394
  245loPI   C2B 3918  12.817  10.601   8.204 -0.2294 -0.1641  0.2289
  245loPI   C3B 3919  12.764  10.389   7.824 -0.0806 -0.2863  0.1280
  245loPI   C4B 3920  12.651  10.119   7.527 -0.3557  0.1767 -0.0240
  246loPI    C1 3921   8.059  14.746  10.024 -0.2493  0.1457 -0.2217
  246loPI    C2 3922   7.773  14.558  10.230  0.0948 -0.0235  0.1131
  246loPI    C3 3923   7.995  14.840  10.407  0.0917  0.1561 -0.1636
  246loPI   PO4 3924   7.976  14.818   9.786 -0.2769  0.0121 -0.3515
  246loPI   GL1 3925   8.057  14.688   9.465  0.0660 -0.1149 -0.1821
  246loPI   GL2 3926   7.887  14.713   9.181  0.4700 -0.1487 -0.4135
  246loPI   C1A 3927   8.311  14.804   9.001 -0.0344  0.1649  0.0932
  246loPI   C2A 3928   8.480  14.819   8.625 -0.0426  0.0060  0.0981
  246loPI   C3A 3929   8.638  14.851   8.183 -0.1778  0.1057  0.0776
  246loPI   C4A 3930   8.783  14.962   7.873 -0.3299  0.0358 -0.2534
  246loPI   C5A 3931   8.867  14.998   7.413  0.1341  0.4032  0.2363
  246loPI   C6A 3932   8.995  15.248   7.046 -0.1301 -0.0698 -0.1000
  246loPI   C1B 3933   7.892  14.594   8.739  0.3546 -0.0188  0.3621
  246loPI   C2B 3934   8.061  14.736   8.330  0.1665 -0.0355  0.4249
  246loPI   C3B 3935   8.190  14.710   7.963 -0.0442  0.0058  0.0661
  246loPI   C4B 3936   8.594  14.554   7.763  0.3693  0.5074 -0.2027
  247loPI    C1 3937  12.989  17.075  10.113  0.3479 -0.1618 -0.0039
  247loPI    C2 3938  12.920  16.849  10.436  0.0737  0.0476  0.0878
  247loPI    C3 3939  13.226  17.106  10.434  0.2026 -0.1047  0.0994
  247loPI   PO4 3940  13.026  16.931   9.798 -0.1308 -0.1066 -0.1702
  247loPI   GL1 3941  13.012  16.981   9.331 -0.3427 -0.1999 -0.1052
  247loPI   GL2 3942  12.856  17.213   9.375 -0.2317  0.2505  0.0241
  247loPI   C1A 3943  13.066  17.042   8.859  0.0335 -0.1321 -0.3726
  247loPI   C2A 3944  13.045  17.100   8.398 -0.2112  0.1573  0.1885
  247loPI   C3A 3945  13.039  17.148   7.970 -0.2417 -0.0595  0.0482
  247loPI   C4A 3946  12.788  17.247   7.668  0.1622 -0.0132  0.2450
  247loPI   C5A 3947  12.575  17.106   7.269  0.2109  0.1869 -0.2651
  247loPI   C6A 3948  12.484  17.039   6.808 -0.0708  0.2115  0.0672
  247loPI   C1B 3949  12.559  17.012   8.963 -0.2345 -0.2836 -0.0941
  247loPI   C2B 3950  12.621  16.754   8.618  0.3071  0.0122 -0.2046
  247loPI   C3B 3951  12.622  16.823   8.224 -0.2146 -0.0277 -0.1339
  247loPI   C4B 3952  12.468  16.834   7.790  0.0136 -0.0584 -0.0870
  248loPI    C1 3953   7.690   1.206   9.338 -0.0718  0.1338  0.1014
  248loPI    C2 3954   7.351   1.420   9.340 -0.0693  0.1408 -0.0681
  248loPI    C3 3955   7.538   1.337   9.684 -0.3305 -0.0025  0.0422
  248loPI   PO4 3956   7.856   1.265   9.205 -0.0902 -0.0289 -0.3004
  248loPI   GL1 3957   7.980   1.098   8.863 -0.1719 -0.1503  0.1274
  248loPI   GL2 3958   7.617   0.970   8.834 -0.0446 -0.1463  0.1412
  248loPI   C1A 3959   8.214   1.284   8.528 -0.2570  0.4995  0.1785
  248loPI   C2A 3960   8.213   1.300   8.054  0.2880  0.1158 -0.2124
  248loPI   C3A 3961   8.363   1.520   7.653 -0.1239 -0.1871  0.0169
  248loPI   C4A 3962   8.459   1.645   7.272  0.0770  0.3309 -0.4961
  248loPI   C5A 3963   8.824   1.413   7.195  0.0432  0.1952 -0.0041
  248loPI   C6A 3964   9.219   1.554   6.947 -0.1411 -0.2316 -0.0762
  248loPI   C1B 3965   7.803   0.888   8.414  0.2332  0.1282 -0.0888
  248loPI   C2B 3966   7.827   0.717   8.102 -0.1537 -0.0223  0.2184
  248loPI   C3B 3967   7.948   0.661   7.667  0.0571  0.1270 -0.0509
  248loPI   C4B 3968   8.049   0.688   7.279 -0.0307  0.1367  0.3459
  249loPI    C1 3969   6.227   5.146  10.033 -0.0838 -0.0181 -0.0747
  249loPI    C2 3970   6.349   4.894  10.318 -0.1017  0.2344  0.1602
  249loPI    C3 3971   6.570   5.214  10.226 -0.1136  0.1735 -0.0878
  249loPI   PO4 3972   6.093   5.029   9.887 -0.2157 -0.2969  0.3072
  249loPI   GL1 3973   5.832   5.273   9.714 -0.0724 -0.0964  0.1248
  249loPI   GL2 3974   5.533   5.269   9.682  0.0358  0.1171  0.1246
  249loPI   C1A 3975   6.134   5.425   9.315 -0.2629 -0.2449  0.0159
  249loPI   C2A 3976   6.388   5.580   9.097 -0.2383 -0.1473  0.2643
  249loPI   C3A 3977   6.716   5.599   8.850  0.0975  0.2144 -0.0301
  249loPI   C4A 3978   7.080   5.824   8.567 -0.3423 -0.2085 -0.0842
  249loPI   C5A 3979   7.393   5.828   8.256 -0.0216 -0.2398 -0.3080
  249loPI   C6A 3980   7.852   5.965   8.091  0.0647 -0.1067  0.1737
  249loPI   C1B 3981   5.503   5.400   9.354  0.3974 -0.1902 -0.0368
  249loPI   C2B 3982   5.426   5.751   9.005  0.0106 -0.0202  0.1938
  249loPI   C3B 3983   5.755   5.861   8.665  0.3060  0.0842  0.2585
  249loPI   C4B 3984   6.040   5.865   8.323  0.1644  0.2926  0.1553
  250loPI    C1 3985   4.985   2.974   9.520  0.1389 -0.1013 -0.1279
  250loPI    C2 3986   5.150   3.161   9.833  0.2216 -0.2085 -0.1068
  250loPI    C3 3987   5.279   2.797   9.726 -0.0793 -0.3442 -0.0193
  250loPI   PO4 3988   5.013   3.061   9.341 -0.1141  0.1846  0.2759
  250loPI   GL1 3989   5.161   3.228   8.816  0.3359 -0.0188  0.0885
  250loPI   GL2 3990   5.432   3.064   8.911  0.0734  0.0489  0.2681
  250loPI   C1A 3991   5.258   3.235   8.394 -0.0729  0.0092  0.0037
  250loPI   C2A 3992   5.227   2.899   8.064 -0.1222 -0.2255 -0.0248
  250loPI   C3A 3993   5.553   2.778   7.774 -0.3138 -0.2376 -0.0228
  250loPI   C4A 3994   5.631   2.817   7.403 -0.0774  0.0460  0.1676
  250loPI   C5A 3995   5.720   2.872   6.980  0.5433 -0.0165 -0.0805
  250loPI   C6A 3996   5.614   2.665   6.627 -0.2026  0.0506 -0.3215
  250loPI   C1B 3997   5.737   2.999   8.613  0.0867  0.1481  0.1131
  250loPI   C2B 3998   5.908   3.076   8.270 -0.2651 -0.3825 -0.0691
  250loPI   C3B 3999   5.868   3.163   7.814 -0.0469  0.0341  0.2851
  250loPI   C4B 4000   6.099   3.009   7.463 -0.0437  0.0454  0.2709
  251loPI    C1 4001   1.810  13.413   9.935  0.0544 -0.0171  0.0221
  251loPI    C2 4002   1.622  13.211  10.224  0.0538 -0.0247  0.0164
  251loPI    C3 4003   1.785  13.567  10.303  0.1621 -0.0831  0.0578
  251loPI   PO4 4004   1.732  13.463   9.717  0.2366  0.2239 -0.0657
  251loPI   GL1 4005   1.761  13.460   9.301 -0.3012  0.1613  0.4000
  251loPI   GL2 4006   1.535  13.487   9.157 -0.0125  0.0928 -0.2871
  251loPI   C1A 4007   2.101  13.385   8.950  0.0578 -0.2813  0.1405
  251loPI   C2A 4008   2.284  13.504   8.605 -0.0749 -0.2006 -0.3816
  251loPI   C3A 4009   2.504  13.671   8.348  0.3978 -0.3113 -0.0362
  251loPI   C4A 4010   2.551  13.566   7.916 -0.1720 -0.0222 -0.2454
  251loPI   C5A 4011   2.877  13.613   7.606 -0.0829  0.0366 -0.1744
  251loPI   C6A 4012   3.143  13.632   7.255 -0.2294 -0.0209  0.0436
  251loPI   C1B 4013   1.236  13.500   8.855 -0.4526  0.4072 -0.1633
  251loPI   C2B 4014   1.230  13.177   8.486  0.1578 -0.1834  0.0364
  251loPI   C3B 4015   1.302  12.840   8.201  0.3239  0.0574  0.2174
  251loPI   C4B 4016   1.430  12.401   7.961 -0.0682 -0.0793 -0.2075
  252loPI    C1 4017  10.317   1.986   9.386  0.3748  0.0431  0.0400
  252loPI    C2 4018  10.053   1.690   9.336  0.3842  0.0147  0.1555
  252loPI    C3 4019  10.184   1.782   9.703  0.3060  0.2277  0.1319
  252loPI   PO4 4020  10.305   2.117   9.170  0.2238 -0.1505  0.0079
  252loPI   GL1 4021  10.256   2.156   8.716  0.1048 -0.0520  0.3824
  252loPI   GL2 4022  10.538   1.997   8.692  0.1893  0.4392  0.1830
  252loPI   C1A 4023  10.297   2.468   8.517  0.1830 -0.2953  0.1845
  252loPI   C2A 4024  10.458   2.654   8.222  0.0393  0.0899 -0.1238
  252loPI   C3A 4025  10.282   2.761   7.909 -0.3391  0.3078  0.1482
  252loPI   C4A 4026   9.962   3.066   7.869  0.0629  0.1393 -0.2743
  252loPI   C5A 4027   9.920   3.480   7.767  0.4591  0.0336 -0.0488
  252loPI   C6A 4028  10.092   3.826   7.681 -0.2499 -0.2970  0.2008
  252loPI   C1B 4029  10.594   2.113   8.353  0.0915 -0.0192 -0.2604
  252loPI   C2B 4030  10.790   2.145   7.999  0.1200  0.0936  0.2647
  252loPI   C3B 4031  10.843   1.861   7.539  0.0631  0.0568 -0.0255
  252loPI   C4B 4032  11.096   1.894   7.158  0.2294  0.0597 -0.1235
  253loPI    C1 4033   4.749  17.082   9.616 -0.2679  0.1780 -0.0276
  253loPI    C2 4034   4.835  16.937   9.978 -0.0626 -0.1641 -0.2086
  253loPI    C3 4035   4.544  17.208   9.936 -0.0232 -0.0471  0.2226
  253loPI   PO4 4036   4.976  17.074   9.536  0.1967 -0.1156  0.4650
  253loPI   GL1 4037   5.199  17.052   9.198  0.2748 -0.0286  0.1232
  253loPI   GL2 4038   5.356  16.836   9.255 -0.2861 -0.2767  0.0315
  253loPI   C1A 4039   5.185  16.781   8.765 -0.0523 -0.1747 -0.2899
  253loPI   C2A 4040   5.168  16.707   8.407  0.0191  0.1410 -0.0977
  253loPI   C3A 4041   5.035  16.713   7.978  0.2904  0.1182 -0.3986
  253loPI   C4A 4042   4.885  16.405   7.611  0.2582 -0.0777  0.0923
  253loPI   C5A 4043   5.153  16.051   7.290  0.0742  0.0733 -0.0073
  253loPI   C6A 4044   5.236  15.646   7.191  0.0019  0.1844  0.0908
  253loPI   C1B 4045   5.392  16.415   8.997  0.0332 -0.0237 -0.3614
  253loPI   C2B 4046   5.430  16.360   8.545  0.2695 -0.1768  0.2955
  253loPI   C3B 4047   5.780  16.378   8.338 -0.2457 -0.2215 -0.1752
  253loPI   C4B 4048   5.975  16.531   7.996  0.0426 -0.5060 -0.0550
  254loPI    C1 4049   9.403   6.383   9.894  0.1042  0.0042  0.0426
  254loPI    C2 4050   9.664   6.649   9.748 -0.0226  0.1027 -0.0069
  254loPI    C3 4051   9.609   6.619  10.143  0.1853 -0.0355  0.0137
  254loPI   PO4 4052   9.239   6.302   9.685  0.0981 -0.3296  0.1093
  254loPI   GL1 4053   9.349   6.148   9.314 -0.1501 -0.0391 -0.2126
  254loPI   GL2 4054   9.365   6.475   9.264 -0.1674  0.0377 -0.2458
  254loPI   C1A 4055   9.401   5.973   8.911 -0.2190 -0.1525 -0.3016
  254loPI   C2A 4056   9.138   5.815   8.555  0.0354  0.1406 -0.1651
  254loPI   C3A 4057   8.933   5.765   8.167  0.1178 -0.0126 -0.3232
  254loPI   C4A 4058   8.637   5.780   7.835  0.0538  0.0603 -0.1492
  254loPI   C5A 4059   8.267   5.981   7.665 -0.0378  0.1135  0.2948
  254loPI   C6A 4060   8.067   5.793   7.371  0.1953 -0.1910 -0.0225
  254loPI   C1B 4061   9.210   6.597   8.916  0.0177  0.0971  0.0496
  254loPI   C2B 4062   9.173   6.689   8.479  0.0654  0.0505  0.3541
  254loPI   C3B 4063   9.268   6.750   8.117  0.3588 -0.0341  0.1396
  254loPI   C4B 4064   9.129   6.976   7.741 -0.0758  0.0409  0.0169
  255loPI    C1 4065  11.936   4.039   9.235  0.0775 -0.0633  0.0316
  255loPI    C2 4066  11.756   3.903   9.566 -0.1934  0.0869 -0.0510
  255loPI    C3 4067  11.993   4.225   9.584  0.1529 -0.1693  0.0763
  255loPI   PO4 4068  11.764   4.037   9.015  0.2868 -0.0245 -0.2822
  255loPI   GL1 4069  11.482   4.144   8.831 -0.0650  0.1461 -0.1412
  255loPI   GL2 4070  11.391   4.442   8.906  0.1536  0.2364 -0.1300
  255loPI   C1A 4071  11.693   4.112   8.403 -0.1794  0.0107  0.2784
  255loPI   C2A 4072  11.909   4.067   8.003 -0.2115 -0.1166 -0.0359
  255loPI   C3A 4073  11.862   4.166   7.642 -0.0649 -0.0105 -0.1814
  255loPI   C4A 4074  11.769   4.016   7.346  0.3118  0.0492  0.2692
  255loPI   C5A 4075  11.777   4.153   6.892 -0.0922 -0.0494 -0.2088
  255loPI   C6A 4076  11.687   4.375   6.651 -0.0078 -0.2852  0.2001
  255loPI   C1B 4077  11.194   4.487   8.484 -0.0949  0.0775  0.0301
  255loPI   C2B 4078  11.204   4.668   8.068 -0.0325 -0.2253  0.1082
  255loPI   C3B 4079  11.282   4.852   7.627 -0.3023 -0.2051  0.1924
  255loPI   C4B 4080  11.085   4.937   7.206  0.4066 -0.2054  0.1151
  256loPI    C1 4081   3.386   3.589   9.221 -0.0155 -0.2616 -0.1268
  256loPI    C2 4082   3.589   3.509   9.556  0.0769 -0.1957 -0.1665
  256loPI    C3 4083   3.783   3.544   9.208  0.0235  0.0690 -0.1717
  256loPI   PO4 4084   3.150   3.712   9.386  0.2898 -0.0889 -0.0629
  256loPI   GL1 4085   2.875   3.920   9.207  0.0527  0.0622 -0.1862
  256loPI   GL2 4086   3.069   4.206   9.200 -0.0670 -0.0292 -0.2376
  256loPI   C1A 4087   2.888   3.864   8.820 -0.1774  0.0519 -0.3057
  256loPI   C2A 4088   2.613   4.077   8.506  0.2047  0.2389 -0.0628
  256loPI   C3A 4089   2.499   4.127   8.054 -0.1207 -0.1099 -0.0430
  256loPI   C4A 4090   2.240   4.312   7.731 -0.2471 -0.0993 -0.1376
  256loPI   C5A 4091   2.124   4.131   7.264 -0.1590  0.0269  0.2495
  256loPI   C6A 4092   2.079   4.103   6.879 -0.2394 -0.0901 -0.2263
  256loPI   C1B 4093   3.392   4.062   8.857 -0.4161 -0.3027  0.2224
  256loPI   C2B 4094   3.571   4.125   8.494 -0.3287  0.1984  0.2981
  256loPI   C3B 4095   3.683   3.874   8.208  0.3105 -0.1454  0.2210
  256loPI   C4B 4096   4.062   3.710   8.016  0.0124 -0.2275  0.0163
  257loPI    C1 4097  17.305  17.310   9.472 -0.3090 -0.2352  0.0774
  257loPI    C2 4098  17.154  17.517   9.779 -0.2079 -0.2037  0.1060
  257loPI    C3 4099  17.498  17.317   9.822 -0.0533  0.0197 -0.0636
  257loPI   PO4 4100  17.374  17.381   9.243 -0.1667 -0.4174  0.0164
  257loPI   GL1 4101  17.388  17.318   8.790 -0.2591 -0.3413  0.2852
  257loPI   GL2 4102  17.722  17.349   8.904 -0.1368  0.2229  0.0746
  257loPI   C1A 4103  17.564  17.098   8.469  0.1642 -0.1640 -0.3335
  257loPI   C2A 4104  17.711  17.150   8.056 -0.1133 -0.1109  0.2095
  257loPI   C3A 4105  17.551  16.834   7.686 -0.2789 -0.1966 -0.0070
  257loPI   C4A 4106  17.373  17.009   7.290 -0.4432 -0.3634 -0.1482
  257loPI   C5A 4107  17.554  16.984   6.881  0.0106 -0.3045 -0.1983
  257loPI   C6A 4108  17.440  16.913   6.470  0.3621 -0.3032 -0.1281
  257loPI   C1B 4109  17.760  17.622   8.630  0.2596  0.2615 -0.4124
  257loPI   C2B 4110  17.488  17.563   8.238 -0.1251  0.2682 -0.1689
  257loPI   C3B 4111  17.136  17.673   7.982 -0.0434 -0.3284 -0.1403
  257loPI   C4B 4112  16.925  17.929   7.743  0.3504 -0.0785 -0.0307
  258loPI    C1 4113   9.146   2.210   9.564  0.1644 -0.1900 -0.0274
  258loPI    C2 4114   9.406   2.162   9.864  0.0525 -0.5203  0.0215
  258loPI    C3 4115   9.013   2.154   9.937  0.0155  0.2111 -0.0149
  258loPI   PO4 4116   9.273   2.115   9.328 -0.0799 -0.1417 -0.2291
  258loPI   GL1 4117   9.188   1.907   8.909  0.0390  0.1775 -0.2269
  258loPI   GL2 4118   9.084   2.178   8.878 -0.3762  0.0678  0.2497
  258loPI   C1A 4119   9.002   1.559   8.545 -0.1691 -0.3599 -0.0423
  258loPI   C2A 4120   8.846   1.689   8.204 -0.2582 -0.0967 -0.0821
  258loPI   C3A 4121   8.445   1.864   8.007 -0.2723  0.0169  0.1051
  258loPI   C4A 4122   8.192   1.993   7.569 -0.1283  0.0345 -0.2757
  258loPI   C5A 4123   8.450   2.207   7.201 -0.1067  0.1951 -0.0187
  258loPI   C6A 4124   8.837   2.384   6.925 -0.0412  0.1047  0.2898
  258loPI   C1B 4125   9.267   2.042   8.458 -0.0291 -0.0469  0.2589
  258loPI   C2B 4126   9.635   2.189   8.107  0.2129  0.0478  0.0412
  258loPI   C3B 4127  10.061   2.150   8.120 -0.2493  0.0018 -0.2367
  258loPI   C4B 4128  10.338   2.220   7.872 -0.0549 -0.0631  0.0766
  259loPI    C1 4129   6.231   0.831   9.372 -0.1272  0.1973 -0.0794
  259loPI    C2 4130   6.139   0.855   9.760 -0.0216  0.1815 -0.0531
  259loPI    C3 4131   6.177   1.189   9.543 -0.1771  0.1869 -0.0732
  259loPI   PO4 4132   6.032   0.639   9.278 -0.0058  0.1052 -0.5270
  259loPI   GL1 4133   5.796   0.470   8.998 -0.2743  0.0301  0.1024
  259loPI   GL2 4134   5.821   0.754   8.753 -0.1018 -0.1412  0.2380
  259loPI   C1A 4135   6.099   0.362   8.677 -0.1798  0.1511 -0.0731
  259loPI   C2A 4136   6.164   0.062   8.345  0.0420  0.2180  0.0143
  259loPI   C3A 4137   6.272   0.060   7.949 -0.0994 -0.1306 -0.2068
  259loPI   C4A 4138   6.365  -0.054   7.539  0.0381  0.1252  0.3874
  259loPI   C5A 4139   5.917  -0.091   7.334 -0.1508  0.2376 -0.1296
  259loPI   C6A 4140   5.621  -0.106   7.008 -0.2142 -0.1052 -0.0439
  259loPI   C1B 4141   6.239   0.804   8.431  0.3591  0.0322 -0.1722
  259loPI   C2B 4142   6.412   0.975   7.992  0.0193 -0.2014 -0.1735
  259loPI   C3B 4143   6.535   1.116   7.600  0.1951  0.0329  0.1705
  259loPI   C4B 4144   6.741   1.162   7.231  0.0420 -0.2769 -0.1033
  260loPI    C1 4145   2.297   3.052  10.127  0.0423 -0.0338 -0.0842
  260loPI    C2 4146   2.377   2.680  10.251 -0.2157  0.0046  0.2110
  260loPI    C3 4147   2.668   2.955  10.243 -0.0520 -0.1686  0.1098
  260loPI   PO4 4148   2.114   3.094   9.876 -0.1728  0.1987 -0.2338
  260loPI   GL1 4149   2.103   2.959   9.438  0.0125  0.0664  0.1148
  260loPI   GL2 4150   2.294   2.940   9.332 -0.2274  0.2401  0.1593
  260loPI   C1A 4151   1.957   3.083   9.003  0.0779  0.2634  0.2026
  260loPI   C2A 4152   1.889   2.836   8.633  0.1978  0.3297 -0.1363
  260loPI   C3A 4153   1.898   2.854   8.224  0.0179  0.1352 -0.2812
  260loPI   C4A 4154   1.986   2.807   7.758  0.0033  0.2165 -0.1293
  260loPI   C5A 4155   2.113   2.606   7.503 -0.1875  0.0891 -0.2207
  260loPI   C6A 4156   2.583   2.615   7.284  0.0952 -0.0451 -0.3090
  260loPI   C1B 4157   2.341   2.782   8.928  0.5767  0.2873 -0.3287
  260loPI   C2B 4158   2.380   2.824   8.510  0.2537  0.3498  0.0436
  260loPI   C3B 4159   2.379   2.862   8.102  0.0257 -0.3511 -0.0784
  260loPI   C4B 4160   2.536   2.541   7.773 -0.0707  0.0187 -0.0094
  261loPI    C1 4161  14.686   8.431   9.700 -0.0208 -0.2002 -0.0706
  261loPI    C2 4162  14.950   8.661   9.894 -0.0631 -0.0663 -0.1708
  261loPI    C3 4163  14.783   8.349  10.079 -0.2454  0.1714  0.0723
  261loPI   PO4 4164  14.905   8.332   9.465  0.1872  0.0105  0.0191
  261loPI   GL1 4165  14.875   8.356   9.080  0.2056 -0.0932  0.0193
  261loPI   GL2 4166  14.960   8.040   9.001 -0.0605 -0.4810 -0.2806
  261loPI   C1A 4167  14.851   8.594   8.753 -0.0719  0.0023 -0.2153
  261loPI   C2A 4168  15.005   8.637   8.334 -0.0745 -0.2724 -0.2487
  261loPI   C3A 4169  15.382   8.724   8.139  0.3260 -0.0440  0.3590
  261loPI   C4A 4170  15.578   8.955   7.820  0.2118 -0.1619  0.1070
  261loPI   C5A 4171  15.709   8.956   7.374 -0.3086 -0.2261 -0.0320
  261loPI   C6A 4172  15.434   8.798   7.049 -0.0236  0.1399 -0.3436
  261loPI   C1B 4173  15.109   8.219   8.588 -0.1255 -0.1576 -0.2778
  261loPI   C2B 4174  15.206   8.144   8.141 -0.0084 -0.0192  0.2047
  261loPI   C3B 4175  15.388   8.233   7.673 -0.3140  0.2784 -0.3127
  261loPI   C4B 4176  15.350   8.585   7.474 -0.0266 -0.0913  0.0618
  262loPI    C1 4177  11.584   7.810   9.836  0.1790  0.1508  0.0376
  262loPI    C2 4178  11.420   8.053  10.108  0.2480 -0.0972  0.3054
  262loPI    C3 4179  11.785   7.900  10.170  0.2306 -0.2202  0.1107
  262loPI   PO4 4180  11.458   7.931   9.607 -0.1988  0.0275 -0.0505
  262loPI   GL1 4181  11.228   8.106   9.249  0.1457 -0.0547  0.2972
  262loPI   GL2 4182  11.409   8.379   9.033  0.4981  0.1992 -0.1567
  262loPI   C1A 4183  11.435   7.871   8.922  0.4683 -0.0390 -0.0767
  262loPI   C2A 4184  11.393   7.955   8.588  0.1257 -0.2475  0.3922
  262loPI   C3A 4185  11.384   7.837   8.206 -0.2074  0.1079 -0.2343
  262loPI   C4A 4186  11.570   7.716   7.835 -0.1200  0.3480  0.1061
  262loPI   C5A 4187  11.750   7.711   7.485  0.0514 -0.0280  0.2384
  262loPI   C6A 4188  11.450   7.725   7.263  0.3770  0.1862  0.1775
  262loPI   C1B 4189  11.187   8.410   8.654  0.0052  0.2419  0.0380
  262loPI   C2B 4190  11.150   8.525   8.269  0.1845  0.1922  0.1717
  262loPI   C3B 4191  11.101   8.634   7.893  0.0719 -0.3094  0.1339
  262loPI   C4B 4192  11.019   8.540   7.505  0.0109 -0.0819  0.1442
  263loPI    C1 4193   2.723   3.582   9.753  0.1925 -0.1574 -0.1701
  263loPI    C2 4194   2.430   3.506  10.014  0.1461 -0.0565 -0.1927
  263loPI    C3 4195   2.810   3.437  10.116  0.1135 -0.2053 -0.1701
  263loPI   PO4 4196   2.680   3.520   9.473  0.1317  0.2277 -0.0466
  263loPI   GL1 4197   2.677   3.193   9.208 -0.0438  0.1633 -0.0651
  263loPI   GL2 4198   2.972   3.390   9.069  0.3648 -0.1222 -0.2103
  263loPI   C1A 4199   2.769   2.955   8.789  0.0850 -0.1133  0.0474
  263loPI   C2A 4200   2.926   2.802   8.402 -0.0341 -0.0596 -0.4397
  263loPI   C3A 4201   2.889   2.864   7.972 -0.2238 -0.3089 -0.2015
  263loPI   C4A 4202   2.992   2.750   7.630 -0.0106  0.2111 -0.4128
  263loPI   C5A 4203   3.123   2.706   7.332 -0.3584  0.0831 -0.1292
  263loPI   C6A 4204   3.358   2.731   6.943  0.0269 -0.0159  0.1418
  263loPI   C1B 4205   3.167   3.323   8.709  0.1490  0.1462 -0.1850
  263loPI   C2B 4206   3.159   3.322   8.253 -0.2059  0.3738  0.1469
  263loPI   C3B 4207   3.430   3.534   7.947 -0.3038 -0.1885  0.2789
  263loPI   C4B 4208   3.474   3.589   7.574 -0.2152  0.2557  0.4386
  264loPI    C1 4209  16.137  18.676   9.531  0.1941 -0.2276 -0.0484
  264loPI    C2 4210  16.001  18.415   9.260 -0.0408 -0.1412 -0.0159
  264loPI    C3 4211  15.874  18.395   9.639 -0.0127 -0.0181  0.0004
  264loPI   PO4 4212  16.284  18.870   9.333 -0.0410 -0.3134 -0.1809
  264loPI   GL1 4213  16.304  18.788   8.948 -0.0712  0.1182  0.0846
  264loPI   GL2 4214  16.081  18.801   8.877  0.0210  0.0016  0.0113
  264loPI   C1A 4215  16.596  18.934   8.657 -0.0414  0.1586  0.0895
  264loPI   C2A 4216  16.423  18.895   8.264 -0.4337  0.1638  0.0758
  264loPI   C3A 4217  16.356  18.960   7.851  0.1357  0.0312 -0.1826
  264loPI   C4A 4218  16.531  18.762   7.567  0.0398  0.0886 -0.0774
  264loPI   C5A 4219  16.399  18.665   7.171 -0.0371 -0.0435  0.0681
  264loPI   C6A 4220  16.252  18.668   6.757 -0.0472  0.2339 -0.1204
  264loPI   C1B 4221  15.961  18.797   8.483  0.4951  0.2915  0.0155
  264loPI   C2B 4222  15.816  18.840   8.021 -0.0856 -0.2064  0.1352
  264loPI   C3B 4223  15.832  18.958   7.605  0.0530 -0.2374 -0.1967
  264loPI   C4B 4224  15.652  19.087   7.146  0.3414 -0.3319  0.1544
  265loPI    C1 4225   3.577  12.767   9.920 -0.1451 -0.1064  0.1217
  265loPI    C2 4226   3.836  12.884  10.202  0.0148  0.0824 -0.0997
  265loPI    C3 4227   3.928  12.579   9.959 -0.0568  0.0203 -0.0492
  265loPI   PO4 4228   3.447  12.971   9.734 -0.3677  0.2188  0.3043
  265loPI   GL1 4229   3.564  13.210   9.491  0.0339  0.2006  0.3860
  265loPI   GL2 4230   3.834  13.301   9.349  0.2926 -0.1731  0.1424
  265loPI   C1A 4231   3.407  13.274   9.054 -0.0742 -0.1433  0.0923
  265loPI   C2A 4232   3.181  12.952   8.880 -0.4534 -0.0497  0.0077
  265loPI   C3A 4233   2.963  12.705   8.548  0.2473  0.1998 -0.1605
  265loPI   C4A 4234   2.817  12.682   8.224 -0.0023 -0.0002 -0.3338
  265loPI   C5A 4235   2.974  12.770   7.704 -0.1693  0.0995 -0.3538
  265loPI   C6A 4236   2.829  12.542   7.318  0.4503  0.2012  0.0519
  265loPI   C1B 4237   3.858  13.086   8.927 -0.0837 -0.0083  0.1325
  265loPI   C2B 4238   4.034  13.014   8.484  0.0971  0.1491 -0.2401
  265loPI   C3B 4239   4.114  12.834   8.037 -0.1726  0.2078  0.2167
  265loPI   C4B 4240   4.287  12.640   7.785 -0.0327 -0.2232 -0.2827
  266loPI    C1 4241   0.332   5.472   9.775 -0.0144 -0.3842 -0.1559
  266loPI    C2 4242   0.097   5.326  10.063 -0.0040 -0.2679 -0.0881
  266loPI    C3 4243   0.457   5.474  10.155 -0.0955 -0.0155 -0.1271
  266loPI   PO4 4244   0.276   5.660   9.618 -0.0459 -0.1107 -0.1146
  266loPI   GL1 4245   0.149   5.585   9.171 -0.1940 -0.0643 -0.0723
  266loPI   GL2 4246  -0.103   5.700   9.264  0.1748 -0.0070 -0.0396
  266loPI   C1A 4247   0.411   5.762   8.757 -0.0424 -0.0149 -0.0057
  266loPI   C2A 4248   0.510   5.985   8.402  0.1179 -0.0139 -0.1051
  266loPI   C3A 4249   0.522   5.973   7.945 -0.3014 -0.1234  0.3640
  266loPI   C4A 4250   0.477   5.788   7.517  0.0553 -0.1651 -0.2225
  266loPI   C5A 4251   0.605   5.342   7.393  0.3248  0.3576  0.1155
  266loPI   C6A 4252   0.795   4.881   7.404  0.2954 -0.0908 -0.1915
  266loPI   C1B 4253  -0.045   6.043   9.018  0.0331  0.0300  0.3668
  266loPI   C2B 4254   0.020   5.916   8.514  0.2372 -0.1920  0.2575
  266loPI   C3B 4255   0.053   5.729   8.170 -0.3473 -0.1056  0.0042
  266loPI   C4B 4256   0.381   5.481   7.920 -0.2816  0.0905 -0.3287
  267loPI    C1 4257   7.298  10.760   9.937  0.0664 -0.1985  0.1657
  267loPI    C2 4258   7.050  10.522  10.142  0.0612 -0.2210  0.1335
  267loPI    C3 4259   7.445  10.488  10.190  0.0534 -0.0537  0.3304
  267loPI   PO4 4260   7.207  10.766   9.750 -0.0549  0.1576  0.3097
  267loPI   GL1 4261   7.062  10.567   9.374 -0.0014  0.2026  0.1308
  267loPI   GL2 4262   7.443  10.556   9.312 -0.1082  0.0622  0.2168
  267loPI   C1A 4263   7.128  10.487   8.933  0.0286  0.0060  0.0999
  267loPI   C2A 4264   7.209  10.719   8.565 -0.3070  0.1100  0.1975
  267loPI   C3A 4265   7.410  10.804   8.223 -0.2420 -0.2739  0.1294
  267loPI   C4A 4266   7.429  10.830   7.818  0.3815 -0.0200 -0.1294
  267loPI   C5A 4267   7.763  10.982   7.558  0.1344 -0.2623  0.0510
  267loPI   C6A 4268   8.055  10.873   7.307 -0.1422 -0.0262 -0.0064
  267loPI   C1B 4269   7.794  10.443   8.993  0.0995  0.3885 -0.2770
  267loPI   C2B 4270   7.585  10.292   8.679  0.0869  0.0476 -0.4010
  267loPI   C3B 4271   7.330  10.272   8.378 -0.0300  0.1114  0.2276
  267loPI   C4B 4272   6.967  10.312   8.146  0.1433 -0.0633  0.0506
  268loPI    C1 4273  10.524   8.556  10.030 -0.2684 -0.0330  0.0154
  268loPI    C2 4274  10.335   8.733  10.335 -0.0620 -0.0058  0.1290
  268loPI    C3 4275  10.305   8.338  10.284 -0.0079 -0.0259  0.2502
  268loPI   PO4 4276  10.605   8.733   9.820 -0.0645  0.1037 -0.3843
  268loPI   GL1 4277  10.743   8.990   9.368 -0.1482 -0.0946 -0.0277
  268loPI   GL2 4278  10.836   9.300   9.432  0.2855  0.0401 -0.2237
  268loPI   C1A 4279  10.557   9.185   8.981 -0.1538  0.0866  0.0470
  268loPI   C2A 4280  10.545   9.366   8.583 -0.0551  0.1146 -0.0353
  268loPI   C3A 4281  10.412   9.530   8.198 -0.1309  0.1069  0.1539
  268loPI   C4A 4282  10.446   9.760   7.826  0.2087  0.2129  0.0111
  268loPI   C5A 4283  10.552   9.606   7.480 -0.1925 -0.0549 -0.2718
  268loPI   C6A 4284  10.257   9.491   7.243  0.0413 -0.3520 -0.2419
  268loPI   C1B 4285  11.009   9.473   9.130 -0.0546  0.1099  0.0653
  268loPI   C2B 4286  11.020   9.462   8.715  0.1072 -0.4406 -0.1351
  268loPI   C3B 4287  10.980   9.456   8.303 -0.1183 -0.4794  0.2381
  268loPI   C4B 4288  11.251   9.421   8.037 -0.0032  0.1241 -0.0163
  269loPI    C1 4289   4.030   0.801   9.310  0.0746  0.1984  0.1553
  269loPI    C2 4290   4.346   1.047   9.305  0.1374  0.1171 -0.2050
  269loPI    C3 4291   4.385   0.673   9.442  0.0871  0.2432  0.1655
  269loPI   PO4 4292   3.945   0.786   9.063  0.1572 -0.0463  0.0405
  269loPI   GL1 4293   3.798   0.974   8.668 -0.1529  0.3856  0.1459
  269loPI   GL2 4294   3.396   0.945   8.664 -0.0353  0.2632 -0.3797
  269loPI   C1A 4295   3.785   0.846   8.251 -0.0941 -0.1506  0.1040
  269loPI   C2A 4296   3.846   0.809   7.805  0.0882  0.0885  0.2083
  269loPI   C3A 4297   3.715   0.568   7.399 -0.3142  0.0869 -0.0185
  269loPI   C4A 4298   3.305   0.378   7.240  0.0368  0.2245  0.4577
  269loPI   C5A 4299   2.904   0.521   7.117 -0.0626  0.1677 -0.1322
  269loPI   C6A 4300   2.477   0.600   7.220  0.3599  0.0326  0.0633
  269loPI   C1B 4301   3.251   1.347   8.389 -0.0363  0.2154  0.0418
  269loPI   C2B 4302   3.408   1.155   7.971 -0.0577  0.0274  0.1457
  269loPI   C3B 4303   3.291   0.889   7.711  0.1831 -0.2084  0.2066
  269loPI   C4B 4304   3.308   0.865   7.289  0.2008 -0.0345  0.1145
  270loPI    C1 4305  18.641   6.721   9.859  0.0557  0.0506  0.2588
  270loPI    C2 4306  18.874   6.866  10.150 -0.0402  0.0783  0.3223
  270loPI    C3 4307  19.036   6.655   9.851  0.0977  0.2951  0.2418
  270loPI   PO4 4308  18.588   6.944   9.736  0.1273 -0.3113 -0.0137
  270loPI   GL1 4309  18.579   7.182   9.330 -0.2220  0.1021  0.2202
  270loPI   GL2 4310  18.828   7.281   9.329  0.4258  0.1776  0.1172
  270loPI   C1A 4311  18.544   7.082   8.832  0.3262  0.1057 -0.0412
  270loPI   C2A 4312  18.474   7.199   8.380 -0.0503 -0.1700  0.0908
  270loPI   C3A 4313  18.216   7.144   8.029 -0.0498 -0.0566 -0.0498
  270loPI   C4A 4314  18.368   7.021   7.672  0.1326 -0.1318 -0.0318
  270loPI   C5A 4315  18.525   6.851   7.203 -0.0011 -0.2291 -0.1572
  270loPI   C6A 4316  18.532   6.596   6.830  0.0544  0.1903 -0.3415
  270loPI   C1B 4317  18.997   7.359   8.965  0.0406  0.1789 -0.2042
  270loPI   C2B 4318  19.026   7.244   8.520  0.0788  0.0372 -0.0768
  270loPI   C3B 4319  19.424   7.147   8.302 -0.2179  0.0432 -0.2012
  270loPI   C4B 4320  19.471   7.191   7.804  0.2604 -0.0646  0.1574
  271loPI    C1 4321   3.076   0.667   9.572 -0.0667  0.2655  0.3005
  271loPI    C2 4322   2.727   0.537   9.427  0.1541  0.0768 -0.0766
  271loPI    C3 4323   2.961   0.289   9.636  0.0812  0.1930  0.1460
  271loPI   PO4 4324   3.158   0.729   9.317  0.1523  0.1967 -0.0463
  271loPI   GL1 4325   2.849   0.909   9.076 -0.1868  0.0330 -0.2219
  271loPI   GL2 4326   2.434   0.764   9.016  0.1810  0.0692  0.1882
  271loPI   C1A 4327   2.894   1.024   8.624 -0.0325 -0.2782  0.0103
  271loPI   C2A 4328   2.793   1.144   8.260 -0.0881 -0.0096  0.0711
  271loPI   C3A 4329   2.907   1.264   7.826 -0.1152  0.2470 -0.1779
  271loPI   C4A 4330   3.069   1.267   7.372  0.0375 -0.2355 -0.0844
  271loPI   C5A 4331   2.923   1.116   7.024  0.3954 -0.1542 -0.2312
  271loPI   C6A 4332   2.769   0.882   6.833  0.0035  0.1240  0.0631
  271loPI   C1B 4333   2.421   0.870   8.490  0.2654 -0.0498  0.2837
  271loPI   C2B 4334   2.689   0.657   8.200  0.1660  0.1515  0.1428
  271loPI   C3B 4335   2.701   0.216   8.106  0.3513 -0.0390 -0.1938
  271loPI   C4B 4336   2.694  -0.033   7.873  0.0120 -0.0948 -0.2098
  272loPI    C1 4337   3.932   2.646   9.585  0.1229 -0.1505  0.0072
  272loPI    C2 4338   4.219   2.761   9.838  0.1098 -0.2956  0.0891
  272loPI    C3 4339   3.917   2.533   9.968 -0.1243 -0.0213  0.0382
  272loPI   PO4 4340   3.953   2.765   9.314 -0.3003  0.1585  0.1408
  272loPI   GL1 4341   3.713   2.759   8.860 -0.1323  0.0844 -0.0817
  272loPI   GL2 4342   3.650   2.404   8.850  0.0350  0.1348 -0.0471
  272loPI   C1A 4343   3.970   2.917   8.511  0.0393  0.2490 -0.1152
  272loPI   C2A 4344   4.205   3.063   8.181 -0.1588 -0.2076  0.3539
  272loPI   C3A 4345   4.466   3.209   7.805  0.1733  0.0848 -0.0778
  272loPI   C4A 4346   4.666   3.110   7.435 -0.0001  0.3967 -0.1531
  272loPI   C5A 4347   4.550   3.268   6.994  0.0429  0.1252  0.3022
  272loPI   C6A 4348   4.251   3.399   6.667  0.0103 -0.1815  0.0471
  272loPI   C1B 4349   3.858   2.353   8.482  0.3235 -0.4289  0.1176
  272loPI   C2B 4350   3.953   2.648   8.055  0.1983  0.0427 -0.1868
  272loPI   C3B 4351   4.222   2.798   7.690 -0.0151 -0.1449 -0.4891
  272loPI   C4B 4352   4.201   3.041   7.267  0.2919 -0.0967 -0.0041
  273loPI    C1 4353  11.672  13.772   9.885  0.4281  0.1694  0.0270
  273loPI    C2 4354  11.927  13.603  10.142  0.0560 -0.1019  0.2285
  273loPI    C3 4355  11.577  13.744  10.272  0.0419  0.1456 -0.0653
  273loPI   PO4 4356  11.781  13.842   9.685 -0.1055 -0.1455  0.0721
  273loPI   GL1 4357  11.445  13.804   9.375 -0.3426 -0.5264 -0.0161
  273loPI   GL2 4358  11.648  13.490   9.399  0.0303 -0.0390 -0.0101
  273loPI   C1A 4359  11.464  13.820   8.982 -0.0979 -0.1628  0.1687
  273loPI   C2A 4360  11.211  14.040   8.690 -0.1302  0.0322 -0.2568
  273loPI   C3A 4361  10.988  13.977   8.315  0.3491 -0.0640  0.0414
  273loPI   C4A 4362  11.020  13.945   7.812 -0.0278  0.0132  0.3131
  273loPI   C5A 4363  10.857  14.225   7.392  0.0375  0.3191 -0.4630
  273loPI   C6A 4364  10.504  14.563   7.092  0.3992 -0.2652 -0.1082
  273loPI   C1B 4365  11.729  13.284   8.933 -0.0633 -0.0807 -0.2537
  273loPI   C2B 4366  11.594  12.927   8.709 -0.3867 -0.2577 -0.0304
  273loPI   C3B 4367  11.740  12.608   8.822  0.0980 -0.1866 -0.0062
  273loPI   C4B 4368  11.818  12.111   8.776  0.0545 -0.1267  0.2149
  274loPI    C1 4369  15.643   5.253   9.245 -0.2102 -0.0395  0.0345
  274loPI    C2 4370  15.360   5.536   9.231  0.0078  0.1854  0.0921
  274loPI    C3 4371  15.746   5.640   9.255  0.1004 -0.1175 -0.0306
  274loPI   PO4 4372  15.397   4.987   9.304  0.2419 -0.0073  0.1734
  274loPI   GL1 4373  15.582   4.647   8.961 -0.0598 -0.2883 -0.0023
  274loPI   GL2 4374  15.807   4.599   9.023 -0.0401  0.2611 -0.0354
  274loPI   C1A 4375  15.439   4.881   8.559 -0.2690 -0.1754 -0.0950
  274loPI   C2A 4376  15.490   4.808   8.103 -0.2711 -0.0852  0.1442
  274loPI   C3A 4377  15.571   4.870   7.646  0.1794  0.1219 -0.2691
  274loPI   C4A 4378  15.252   5.060   7.312  0.0274  0.0762 -0.0081
  274loPI   C5A 4379  15.201   5.087   6.761  0.2046 -0.1037  0.1198
  274loPI   C6A 4380  14.847   5.343   6.624  0.0060 -0.3477  0.1559
  274loPI   C1B 4381  15.929   4.760   8.468 -0.2690  0.5883 -0.0955
  274loPI   C2B 4382  15.937   4.570   8.070 -0.4911 -0.1375  0.1497
  274loPI   C3B 4383  16.061   4.649   7.604  0.0520 -0.0456 -0.2204
  274loPI   C4B 4384  15.785   4.652   7.253  0.0396  0.2422  0.1530
  275loPI    C1 4385  17.238  14.314   9.762 -0.1765  0.1436 -0.3184
  275loPI    C2 4386  17.015  14.051   9.559 -0.1342 -0.1290 -0.0206
  275loPI    C3 4387  16.853  14.262   9.857 -0.0883 -0.0467 -0.0535
  275loPI   PO4 4388  17.321  14.437   9.650  0.1312  0.1044  0.2389
  275loPI   GL1 4389  17.122  14.593   9.230 -0.0166 -0.2056  0.2417
  275loPI   GL2 4390  16.877  14.408   9.217 -0.2301  0.4226 -0.2917
  275loPI   C1A 4391  17.109  14.753   8.747 -0.4365 -0.1387  0.3942
  275loPI   C2A 4392  17.358  14.819   8.455 -0.1017 -0.0898  0.1392
  275loPI   C3A 4393  17.525  14.646   8.065 -0.0099  0.1526 -0.0844
  275loPI   C4A 4394  17.644  14.441   7.684  0.1377 -0.2052 -0.1776
  275loPI   C5A 4395  17.925  14.149   7.484  0.0890 -0.3516  0.0184
  275loPI   C6A 4396  18.030  13.861   7.156  0.0690  0.2731  0.2105
  275loPI   C1B 4397  16.805  14.308   8.760 -0.3938 -0.0199  0.0970
  275loPI   C2B 4398  16.631  14.341   8.360 -0.0021 -0.1402  0.2606
  275loPI   C3B 4399  16.594  14.421   7.899  0.2115  0.2391 -0.2061
  275loPI   C4B 4400  16.673  14.235   7.555 -0.0004  0.3000 -0.3874
  276loPI    C1 4401  17.733  12.773   9.745 -0.0642  0.0084  0.0936
  276loPI    C2 4402  17.911  12.590  10.053  0.1358  0.0719  0.0172
  276loPI    C3 4403  18.085  12.907   9.882  0.0365  0.0241 -0.1748
  276loPI   PO4 4404  17.723  12.673   9.582  0.1276 -0.0094  0.0512
  276loPI   GL1 4405  17.832  12.581   9.116  0.0467 -0.1147  0.1368
  276loPI   GL2 4406  18.160  12.421   9.099  0.0370  0.1908 -0.2706
  276loPI   C1A 4407  17.633  12.830   8.712 -0.0169 -0.2460  0.3179
  276loPI   C2A 4408  17.598  13.072   8.355  0.3194 -0.3090 -0.0177
  276loPI   C3A 4409  17.772  13.081   7.960  0.0126 -0.0295  0.2211
  276loPI   C4A 4410  17.772  13.150   7.619  0.3159 -0.0375  0.1977
  276loPI   C5A 4411  17.902  12.934   7.235  0.0188 -0.0995 -0.1636
  276loPI   C6A 4412  18.076  12.948   6.863 -0.1099  0.1424 -0.0456
  276loPI   C1B 4413  18.262  12.664   8.821  0.0688  0.1394  0.0284
  276loPI   C2B 4414  18.339  12.575   8.433  0.1329  0.2635 -0.1521
  276loPI   C3B 4415  18.375  12.423   8.034  0.1518 -0.1815  0.0403
  276loPI   C4B 4416  18.382  12.158   7.668  0.0794  0.0949  0.1473
  277loPI    C1 4417  18.108  10.214   9.693 -0.0022  0.0995  0.0245
  277loPI    C2 4418  17.984  10.342   9.335 -0.1654 -0.1006  0.0074
  277loPI    C3 4419  17.718  10.212   9.603 -0.0445  0.0561  0.2060
  277loPI   PO4 4420  18.371   9.979   9.616  0.0885 -0.0480 -0.0802
  277loPI   GL1 4421  18.534   9.771   9.258  0.0654  0.1640 -0.0285
  277loPI   GL2 4422  18.656  10.125   9.266  0.0024 -0.1907  0.0014
  277loPI   C1A 4423  18.743   9.717   8.936 -0.2153 -0.0024  0.0140
  277loPI   C2A 4424  18.888   9.739   8.504  0.1136 -0.0558 -0.2593
  277loPI   C3A 4425  18.904   9.761   8.024 -0.1012  0.1176  0.0290
  277loPI   C4A 4426  19.183  10.038   7.720 -0.2035 -0.0272  0.3644
  277loPI   C5A 4427  19.291  10.131   7.340 -0.2206 -0.0646 -0.1166
  277loPI   C6A 4428  19.405   9.912   6.884 -0.2677 -0.2292 -0.0185
  277loPI   C1B 4429  18.918  10.187   8.893 -0.1336  0.0598  0.2112
  277loPI   C2B 4430  19.089  10.150   8.514 -0.2357 -0.0351  0.2239
  277loPI   C3B 4431  19.430  10.016   8.308 -0.0094 -0.3917 -0.2819
  277loPI   C4B 4432  19.656   9.888   7.967 -0.0886  0.1464  0.1385
  278loPI    C1 4433  19.265  17.706   9.896 -0.0665 -0.1665 -0.1924
  278loPI    C2 4434  19.625  17.813  10.032 -0.1258  0.2181 -0.3272
  278loPI    C3 4435  19.473  17.457  10.130  0.1199  0.2131  0.0562
  278loPI   PO4 4436  19.258  17.864   9.671  0.0696 -0.2191  0.0530
  278loPI   GL1 4437  19.498  17.810   9.270  0.0312  0.0117 -0.1664
  278loPI   GL2 4438  19.797  17.549   9.000 -0.0721 -0.1231  0.0562
  278loPI   C1A 4439  19.388  17.798   8.755 -0.0770  0.2156 -0.0636
  278loPI   C2A 4440  19.493  17.754   8.397 -0.3238 -0.4403 -0.0894
  278loPI   C3A 4441  19.230  17.467   7.964 -0.0678 -0.0256  0.3683
  278loPI   C4A 4442  19.068  16.997   7.978 -0.0147 -0.2739  0.2338
  278loPI   C5A 4443  18.989  16.763   7.637  0.1737  0.0423  0.0793
  278loPI   C6A 4444  18.891  16.724   7.174  0.1653 -0.1388 -0.3191
  278loPI   C1B 4445  19.947  17.641   8.668  0.1010 -0.0833  0.0489
  278loPI   C2B 4446  19.935  17.578   8.219  0.0002 -0.0092 -0.1134
  278loPI   C3B 4447  19.636  17.682   7.925  0.0528 -0.1012 -0.0870
  278loPI   C4B 4448  19.516  17.434   7.527 -0.0170  0.0957  0.1585
  279loPI    C1 4449  14.195   4.637   9.636 -0.2229  0.1404  0.2778
  279loPI    C2 4450  14.394   4.307   9.744  0.1469  0.2178 -0.1368
  279loPI    C3 4451  13.996   4.297   9.706  0.1360 -0.1288  0.0317
  279loPI   PO4 4452  14.331   4.679   9.350 -0.0888  0.1415  0.0743
  279loPI   GL1 4453  14.513   4.679   8.881  0.0707  0.0352 -0.1054
  279loPI   GL2 4454  14.104   4.685   8.879 -0.2310 -0.2472  0.2782
  279loPI   C1A 4455  14.593   4.542   8.443  0.0345  0.0255 -0.0400
  279loPI   C2A 4456  15.080   4.592   8.310 -0.2366 -0.2491 -0.1961
  279loPI   C3A 4457  15.148   4.599   7.838  0.0143 -0.0155  0.1760
  279loPI   C4A 4458  15.184   4.585   7.343  0.0476  0.4715  0.2443
  279loPI   C5A 4459  15.338   4.649   7.008  0.3405 -0.0050  0.0999
  279loPI   C6A 4460  15.674   4.333   6.836 -0.6072  0.2580  0.0617
  279loPI   C1B 4461  13.897   4.895   8.550  0.1358  0.0013  0.4474
  279loPI   C2B 4462  13.603   4.883   8.099  0.1275 -0.1665  0.1102
  279loPI   C3B 4463  13.680   4.764   7.611 -0.0335 -0.1904  0.0160
  279loPI   C4B 4464  13.794   4.523   7.253 -0.3795  0.1713 -0.0071
  280loPI    C1 4465   2.700  12.914   9.848 -0.0983  0.0157  0.3315
  280loPI    C2 4466   2.622  12.529   9.769 -0.0763  0.1253 -0.2768
  280loPI    C3 4467   2.733  12.640  10.137 -0.0996 -0.4432 -0.0891
  280loPI   PO4 4468   2.763  12.992   9.600 -0.2308  0.0476  0.0645
  280loPI   GL1 4469   2.870  12.734   9.357  0.0214 -0.3495  0.0511
  280loPI   GL2 4470   2.950  12.343   9.395 -0.0696  0.1999  0.1170
  280loPI   C1A 4471   2.725  12.646   8.957 -0.0088 -0.1107  0.1068
  280loPI   C2A 4472   2.496  12.524   8.638  0.3573  0.0398  0.2716
  280loPI   C3A 4473   2.464  12.314   8.210  0.3382  0.3564  0.0297
  280loPI   C4A 4474   2.189  12.182   7.899 -0.0875  0.0452 -0.0186
  280loPI   C5A 4475   1.926  12.471   7.640  0.0540 -0.1768 -0.1852
  280loPI   C6A 4476   1.567  12.700   7.505  0.2787  0.1031 -0.0033
  280loPI   C1B 4477   3.195  12.440   9.043  0.2297 -0.1717  0.0535
  280loPI   C2B 4478   3.326  12.359   8.495 -0.2377 -0.1926  0.0068
  280loPI   C3B 4479   3.289  12.704   8.103 -0.1261  0.0290  0.0454
  280loPI   C4B 4480   3.637  12.680   7.797  0.2048  0.2102 -0.0739
  281loPI    C1 4481   0.351   7.764  10.186 -0.1921  0.0968 -0.1197
  281loPI    C2 4482   0.527   8.112  10.276  0.0532 -0.0296 -0.1029
  281loPI    C3 4483   0.639   7.777  10.463 -0.1152 -0.1344 -0.1869
  281loPI   PO4 4484   0.139   7.847  10.069 -0.0362  0.0011 -0.2166
  281loPI   GL1 4485   0.023   7.973   9.593 -0.1500  0.0503  0.2867
  281loPI   GL2 4486  -0.323   8.007   9.519  0.2116  0.4730 -0.2056
  281loPI   C1A 4487   0.374   7.931   9.327  0.0421 -0.0409  0.0852
  281loPI   C2A 4488   0.411   7.952   8.969 -0.1856 -0.1586  0.0984
  281loPI   C3A 4489   0.285   7.977   8.466 -0.3995  0.0783 -0.2103
  281loPI   C4A 4490   0.325   7.773   7.976 -0.4127 -0.0083  0.1436
  281loPI   C5A 4491   0.221   7.856   7.521 -0.0622  0.2949 -0.2393
  281loPI   C6A 4492  -0.172   7.970   7.429 -0.0847 -0.0813 -0.1240
  281loPI   C1B 4493  -0.206   7.935   9.085  0.2997  0.1869 -0.2008
  281loPI   C2B 4494  -0.153   8.015   8.701 -0.0540 -0.0573  0.3122
  281loPI   C3B 4495  -0.108   8.185   8.300 -0.2068 -0.1746  0.0117
  281loPI   C4B 4496   0.038   8.161   7.962 -0.5043 -0.1641 -0.0488
  282loPI    C1 4497  13.607  19.031   9.590  0.1853 -0.1524 -0.0058
  282loPI    C2 4498  13.611  18.939   9.979  0.0510  0.0488  0.0452
  282loPI    C3 4499  13.482  19.298   9.860  0.0774 -0.0167 -0.1872
  282loPI   PO4 4500  13.826  18.877   9.464 -0.0913  0.3851  0.2000
  282loPI   GL1 4501  13.926  18.925   8.963  0.1749 -0.1833  0.0263
  282loPI   GL2 4502  13.607  18.948   8.918  0.1839 -0.5442  0.2648
  282loPI   C1A 4503  13.865  18.655   8.598 -0.0515  0.0863  0.1653
  282loPI   C2A 4504  13.761  18.733   8.166  0.1428  0.1805  0.0857
  282loPI   C3A 4505  13.908  18.721   7.882 -0.1265 -0.0812  0.2525
  282loPI   C4A 4506  13.969  18.796   7.451 -0.0976 -0.0177  0.1164
  282loPI   C5A 4507  13.952  18.563   7.081 -0.0604  0.2756 -0.0582
  282loPI   C6A 4508  13.608  18.527   6.684  0.0408 -0.0485  0.0921
  282loPI   C1B 4509  13.436  19.032   8.537 -0.0812 -0.1545  0.2449
  282loPI   C2B 4510  13.318  18.970   8.037  0.0167 -0.0833 -0.1561
  282loPI   C3B 4511  13.473  19.008   7.690 -0.0698  0.2940 -0.1695
  282loPI   C4B 4512  13.258  19.065   7.360 -0.2183  0.0577 -0.0088
  283loPI    C1 4513   6.823   7.349   9.920  0.0952  0.2235 -0.0509
  283loPI    C2 4514   7.140   7.343  10.165  0.0330 -0.0946  0.0266
  283loPI    C3 4515   7.192   7.306   9.770  0.1095  0.1048  0.0168
  283loPI   PO4 4516   6.721   7.469   9.867 -0.1326  0.0824  0.0964
  283loPI   GL1 4517   6.536   7.807   9.605 -0.1354 -0.2442 -0.1456
  283loPI   GL2 4518   6.571   8.078   9.607  0.4106  0.0966 -0.1337
  283loPI   C1A 4519   6.582   7.637   9.131  0.1166  0.0650 -0.0489
  283loPI   C2A 4520   6.462   7.612   8.679 -0.1004 -0.0318  0.1508
  283loPI   C3A 4521   6.504   7.434   8.276  0.0144  0.0797  0.2543
  283loPI   C4A 4522   6.427   7.614   7.877  0.1726 -0.0057  0.2658
  283loPI   C5A 4523   6.228   7.683   7.512  0.1395  0.3072 -0.0297
  283loPI   C6A 4524   5.938   7.678   7.260  0.1943  0.0751 -0.1197
  283loPI   C1B 4525   6.330   8.007   9.201 -0.0443 -0.1665  0.0920
  283loPI   C2B 4526   6.408   8.196   8.835 -0.0969  0.1180 -0.0693
  283loPI   C3B 4527   6.540   8.145   8.500 -0.1612  0.1037  0.0897
  283loPI   C4B 4528   6.538   8.058   8.069  0.2433  0.0150  0.1423
  284loPI    C1 4529  15.709  10.262   9.819  0.0460  0.3575  0.3705
  284loPI    C2 4530  15.403  10.408   9.606  0.1414  0.0828  0.0354
  284loPI    C3 4531  15.447  10.511   9.990 -0.4261  0.0508  0.1165
  284loPI   PO4 4532  15.891  10.263   9.659  0.1385  0.0319  0.0133
  284loPI   GL1 4533  15.808  10.250   9.207 -0.3568  0.1373 -0.1200
  284loPI   GL2 4534  16.028   9.993   9.210  0.1322  0.0057  0.0545
  284loPI   C1A 4535  15.919  10.292   8.713 -0.0013 -0.1060  0.0916
  284loPI   C2A 4536  15.863  10.300   8.334  0.1033 -0.1065 -0.1053
  284loPI   C3A 4537  15.627  10.423   7.938 -0.3097 -0.3425 -0.3569
  284loPI   C4A 4538  15.718  10.317   7.455  0.3018 -0.0532 -0.0112
  284loPI   C5A 4539  15.949  10.082   7.083  0.1654 -0.3863 -0.1496
  284loPI   C6A 4540  16.074   9.658   6.907  0.0587 -0.0518 -0.1057
  284loPI   C1B 4541  15.638   9.898   8.877 -0.3190 -0.2347 -0.1336
  284loPI   C2B 4542  15.380  10.117   8.530  0.1066 -0.1702  0.2218
  284loPI   C3B 4543  15.266   9.840   8.157 -0.3655 -0.1711  0.3096
  284loPI   C4B 4544  15.267   9.781   7.736  0.1336 -0.1255  0.0984
  285loPI    C1 4545  17.436   1.696   9.616  0.0300 -0.0157 -0.1035
  285loPI    C2 4546  17.140   1.549   9.842  0.0211 -0.1266 -0.1861
  285loPI    C3 4547  17.516   1.542   9.976  0.0049 -0.1143 -0.1398
  285loPI   PO4 4548  17.384   1.548   9.415 -0.1665 -0.0913  0.0130
  285loPI   GL1 4549  17.392   1.590   9.048  0.2796  0.2893 -0.1160
  285loPI   GL2 4550  17.718   1.542   8.975 -0.0029 -0.1506 -0.0107
  285loPI   C1A 4551  17.336   1.692   8.633 -0.2953 -0.1569  0.0552
  285loPI   C2A 4552  17.604   1.756   8.272 -0.1060 -0.1444 -0.2277
  285loPI   C3A 4553  17.672   2.010   7.980 -0.2155  0.4984 -0.5187
  285loPI   C4A 4554  17.801   2.183   7.548 -0.0369 -0.1957  0.1886
  285loPI   C5A 4555  17.918   2.400   7.272  0.2723 -0.0183  0.0412
  285loPI   C6A 4556  17.719   2.692   6.855 -0.0006  0.1930  0.0025
  285loPI   C1B 4557  17.993   1.669   8.641  0.3635  0.1182 -0.0461
  285loPI   C2B 4558  18.086   1.753   8.264  0.0248 -0.2641  0.3462
  285loPI   C3B 4559  18.189   1.987   7.803  0.1549  0.3370 -0.0650
  285loPI   C4B 4560  18.419   2.092   7.413 -0.1357 -0.0114 -0.1967
  286loPI    C1 4561  14.560  15.943   9.646  0.0363 -0.2399 -0.1820
  286loPI    C2 4562  14.726  15.800   9.981 -0.1717 -0.0787 -0.0075
  286loPI    C3 4563  14.354  15.948   9.989 -0.1906 -0.1029 -0.3178
  286loPI   PO4 4564  14.660  15.822   9.482 -0.0533  0.1678  0.1675
  286loPI   GL1 4565  14.510  15.789   8.914  0.1961  0.2778  0.1042
  286loPI   GL2 4566  14.445  16.045   9.015 -0.2226  0.0379 -0.0065
  286loPI   C1A 4567  14.534  15.906   8.368  0.5484  0.2946  0.0513
  286loPI   C2A 4568  14.723  16.071   8.049  0.0426 -0.3395 -0.1758
  286loPI   C3A 4569  14.990  16.410   7.888 -0.0187  0.1043  0.1033
  286loPI   C4A 4570  15.005  16.664   7.511  0.0095  0.0138  0.4318
  286loPI   C5A 4571  14.950  16.785   6.990 -0.0349 -0.0793  0.2302
  286loPI   C6A 4572  15.109  17.058   6.727 -0.3296 -0.0515 -0.3211
  286loPI   C1B 4573  14.116  16.006   8.639 -0.3162  0.1035 -0.0112
  286loPI   C2B 4574  14.132  16.235   8.244 -0.3134  0.0098 -0.0653
  286loPI   C3B 4575  14.218  16.065   7.893  0.0198  0.2225 -0.3106
  286loPI   C4B 4576  14.183  16.179   7.366 -0.0383 -0.2448 -0.0461
  287loPI    C1 4577   7.379  11.277   9.828 -0.0279 -0.2251  0.0908
  287loPI    C2 4578   7.359  11.598  10.065 -0.1204 -0.1514 -0.0153
  287loPI    C3 4579   7.293  11.233  10.216  0.1981 -0.1433  0.1513
  287loPI   PO4 4580   7.597  11.340   9.697 -0.1354 -0.0243  0.1945
  287loPI   GL1 4581   7.561  11.512   9.315  0.1731  0.1838 -0.0518
  287loPI   GL2 4582   7.752  11.194   9.185  0.0229  0.1457 -0.1093
  287loPI   C1A 4583   7.152  11.531   8.965 -0.1547  0.1041  0.1751
  287loPI   C2A 4584   7.094  11.265   8.625  0.2010 -0.0579  0.2468
  287loPI   C3A 4585   7.138  11.263   8.195 -0.3427  0.0499 -0.0324
  287loPI   C4A 4586   7.285  11.398   7.762  0.1989  0.1114 -0.3399
  287loPI   C5A 4587   7.190  11.254   7.317  0.4833 -0.1508  0.0896
  287loPI   C6A 4588   7.076  11.021   6.925 -0.2702  0.0550 -0.1926
  287loPI   C1B 4589   7.582  11.385   8.818  0.0870 -0.0381  0.3785
  287loPI   C2B 4590   7.626  11.348   8.407  0.0767 -0.0314  0.2887
  287loPI   C3B 4591   7.734  11.303   7.927  0.0930  0.1931 -0.0248
  287loPI   C4B 4592   8.099  11.333   7.604 -0.0926 -0.2260 -0.1784
  288loPI    C1 4593  19.503  12.513   9.895 -0.0651  0.1938 -0.3495
  288loPI    C2 4594  19.311  12.831  10.043 -0.0443  0.0388  0.0194
  288loPI    C3 4595  19.705  12.792  10.098 -0.0080  0.0574 -0.2175
  288loPI   PO4 4596  19.499  12.463   9.620  0.2789 -0.2116 -0.0270
  288loPI   GL1 4597  19.505  12.449   9.211  0.2349  0.0479 -0.0802
  288loPI   GL2 4598  19.567  12.801   9.207  0.1506 -0.2402 -0.0874
  288loPI   C1A 4599  19.413  12.405   8.713 -0.3395 -0.1484  0.1664
  288loPI   C2A 4600  19.492  12.599   8.254 -0.0150 -0.0452  0.0711
  288loPI   C3A 4601  19.545  12.862   7.886  0.1096 -0.0481  0.0094
  288loPI   C4A 4602  19.282  12.744   7.515  0.1838 -0.1800  0.0167
  288loPI   C5A 4603  19.043  12.604   7.207  0.1394 -0.3283 -0.0340
  288loPI   C6A 4604  18.671  12.363   7.246  0.2001  0.0614  0.0687
  288loPI   C1B 4605  19.405  12.895   8.817 -0.2689  0.3845  0.1300
  288loPI   C2B 4606  19.180  13.006   8.485 -0.0498 -0.0635  0.0088
  288loPI   C3B 4607  19.278  13.196   8.100 -0.0056  0.0320 -0.4046
  288loPI   C4B 4608  19.488  13.338   7.756  0.0378  0.3621  0.0083
  289loPI    C1 4609  16.616   2.732   9.724 -0.1638  0.0359  0.0775
  289loPI    C2 4610  16.792   2.733  10.083 -0.0832  0.2113  0.0387
  289loPI    C3 4611  16.410   2.620  10.048  0.0199 -0.1814  0.1223
  289loPI   PO4 4612  16.713   2.981   9.627 -0.0041  0.4036  0.0987
  289loPI   GL1 4613  16.921   2.951   9.272  0.0853  0.4551  0.1906
  289loPI   GL2 4614  16.781   3.194   9.130 -0.0084  0.1340  0.1797
  289loPI   C1A 4615  16.931   2.717   8.888  0.3313  0.2709 -0.2523
  289loPI   C2A 4616  16.887   2.690   8.451  0.0535  0.0995  0.1595
  289loPI   C3A 4617  16.612   2.656   8.124  0.1418  0.2615  0.4504
  289loPI   C4A 4618  16.579   2.515   7.763 -0.0972  0.1599  0.1157
  289loPI   C5A 4619  16.273   2.257   7.571  0.2657 -0.1067 -0.1869
  289loPI   C6A 4620  16.321   1.842   7.477 -0.1779  0.2326 -0.0165
  289loPI   C1B 4621  16.901   3.224   8.722 -0.1268 -0.0726  0.2951
  289loPI   C2B 4622  16.890   3.159   8.251 -0.1580 -0.1267  0.0293
  289loPI   C3B 4623  16.739   3.052   7.782  0.0520  0.1611 -0.1653
  289loPI   C4B 4624  16.749   3.146   7.309 -0.2490 -0.0135 -0.3644
  290loPI    C1 4625  14.891   2.951   9.418 -0.0566 -0.2714 -0.0002
  290loPI    C2 4626  14.730   2.700   9.684 -0.1029 -0.1379  0.0988
  290loPI    C3 4627  14.961   3.002   9.809  0.1475 -0.2706 -0.0357
  290loPI   PO4 4628  14.582   2.967   9.256 -0.2411 -0.1712  0.1555
  290loPI   GL1 4629  14.545   2.993   8.863  0.0337 -0.0960  0.0036
  290loPI   GL2 4630  14.380   2.664   8.812  0.2787 -0.1445 -0.1591
  290loPI   C1A 4631  14.987   3.074   8.638 -0.2644  0.1268  0.2435
  290loPI   C2A 4632  15.364   2.985   8.388 -0.2140  0.0327 -0.3411
  290loPI   C3A 4633  15.198   2.875   8.099 -0.0996 -0.0581 -0.2331
  290loPI   C4A 4634  14.859   3.003   7.744  0.2400 -0.0783  0.2381
  290loPI   C5A 4635  14.750   3.297   7.481  0.0434 -0.0731 -0.0346
  290loPI   C6A 4636  14.507   3.621   7.274  0.1738 -0.0973  0.0360
  290loPI   C1B 4637  14.164   2.827   8.426  0.0393 -0.0869  0.2190
  290loPI   C2B 4638  14.145   2.783   8.037  0.0654 -0.1332 -0.0415
  290loPI   C3B 4639  14.484   2.755   7.662  0.0388  0.0328  0.0808
  290loPI   C4B 4640  14.801   2.831   7.278  0.1643 -0.0540 -0.1390
  291loPI    C1 4641  10.752   7.278   9.895  0.0418  0.2139  0.0008
  291loPI    C2 4642  11.017   7.080  10.121  0.0373  0.1837 -0.0204
  291loPI    C3 4643  10.669   7.199  10.279 -0.0925 -0.0965 -0.0888
  291loPI   PO4 4644  10.884   7.421   9.677  0.2571  0.0677 -0.1347
  291loPI   GL1 4645  10.681   7.447   9.353 -0.1175  0.0212  0.1152
  291loPI   GL2 4646  10.729   7.264   9.150 -0.0611 -0.1388  0.1989
  291loPI   C1A 4647  10.502   7.555   8.880 -0.0737 -0.1768 -0.1017
  291loPI   C2A 4648  10.399   7.738   8.556  0.0185 -0.3118  0.1296
  291loPI   C3A 4649  10.272   7.749   8.095  0.0039 -0.1678 -0.1083
  291loPI   C4A 4650  10.462   7.750   7.734  0.4168  0.3471 -0.0896
  291loPI   C5A 4651  10.739   7.526   7.433 -0.0766  0.2430 -0.0935
  291loPI   C6A 4652  10.894   7.072   7.388  0.0951 -0.1317 -0.1777
  291loPI   C1B 4653  10.984   7.540   8.869  0.3044  0.1875  0.0395
  291loPI   C2B 4654  11.207   7.512   8.497  0.2443  0.0249 -0.1571
  291loPI   C3B 4655  11.334   7.307   8.129 -0.0788 -0.0942  0.0508
  291loPI   C4B 4656  11.291   7.338   7.649 -0.3234 -0.0256 -0.0480
  292loPI    C1 4657  19.445  16.149   9.632 -0.0232  0.3136 -0.1883
  292loPI    C2 4658  19.821  16.025   9.689 -0.1411 -0.0380 -0.1479
  292loPI    C3 4659  19.570  16.055  10.000 -0.1045  0.3526 -0.1505
  292loPI   PO4 4660  19.433  16.036   9.375  0.1551 -0.0995  0.0508
  292loPI   GL1 4661  19.625  16.084   8.988  0.4069 -0.1815  0.0399
  292loPI   GL2 4662  19.517  15.772   8.940  0.1009  0.2614  0.0887
  292loPI   C1A 4663  20.035  16.026   8.805 -0.1911  0.0242  0.1726
  292loPI   C2A 4664  20.412  15.814   8.768  0.1380  0.0009 -0.0747
  292loPI   C3A 4665  20.894  15.637   8.834 -0.0855  0.1013 -0.1692
  292loPI   C4A 4666  21.277  15.550   8.676  0.1741  0.1672  0.1170
  292loPI   C5A 4667  21.653  15.555   8.483 -0.0631 -0.1583 -0.3218
  292loPI   C6A 4668  21.911  15.548   8.101  0.3011 -0.0210  0.0426
  292loPI   C1B 4669  19.689  15.789   8.519  0.3621 -0.1667  0.0518
  292loPI   C2B 4670  19.775  15.635   8.125  0.2758 -0.1865  0.2489
  292loPI   C3B 4671  19.705  15.555   7.686 -0.1645 -0.0604 -0.0143
  292loPI   C4B 4672  19.918  15.549   7.309  0.2517 -0.1968 -0.0290
  293loPI    C1 4673  11.435   0.443   9.778  0.1888 -0.1283 -0.1806
  293loPI    C2 4674  11.680   0.519  10.085 -0.0125 -0.1639 -0.0079
  293loPI    C3 4675  11.410   0.226  10.114 -0.2581  0.0509 -0.0909
  293loPI   PO4 4676  11.410   0.342   9.478  0.0013 -0.0757  0.5239
  293loPI   GL1 4677  11.424   0.353   9.022  0.0815  0.1834  0.3154
  293loPI   GL2 4678  11.704   0.056   9.039  0.1008  0.2110 -0.3002
  293loPI   C1A 4679  11.278   0.230   8.618 -0.2289 -0.0922 -0.1201
  293loPI   C2A 4680  11.346   0.261   8.148 -0.2711  0.0510  0.0050
  293loPI   C3A 4681  11.454   0.480   7.750  0.0013  0.0555 -0.3771
  293loPI   C4A 4682  11.564   0.610   7.368  0.0035 -0.2190 -0.0815
  293loPI   C5A 4683  11.833   0.928   7.192  0.0579  0.2439 -0.2194
  293loPI   C6A 4684  11.986   1.031   6.819  0.0029 -0.1820 -0.0001
  293loPI   C1B 4685  11.756   0.134   8.507  0.2696 -0.3214  0.3369
  293loPI   C2B 4686  11.834   0.137   7.999 -0.1205 -0.0251  0.2574
  293loPI   C3B 4687  11.870   0.269   7.646 -0.0134 -0.0330 -0.0280
  293loPI   C4B 4688  11.716  -0.000   7.300  0.1643  0.1431 -0.0242
  294loPI    C1 4689   7.930  18.586   9.715  0.0066  0.2246 -0.1585
  294loPI    C2 4690   8.093  18.254   9.564 -0.0391  0.2150 -0.1874
  294loPI    C3 4691   8.196  18.379   9.929 -0.1760  0.0549 -0.0925
  294loPI   PO4 4692   7.985  18.828   9.504 -0.1773  0.1843  0.3437
  294loPI   GL1 4693   7.780  18.908   9.117 -0.2278  0.0003 -0.1294
  294loPI   GL2 4694   7.868  19.091   8.909 -0.2047 -0.1092  0.0265
  294loPI   C1A 4695   7.737  18.653   8.631 -0.2068  0.0227  0.0711
  294loPI   C2A 4696   7.812  18.753   8.088 -0.1947  0.1801 -0.1276
  294loPI   C3A 4697   7.947  18.726   7.629  0.0036 -0.2261  0.0316
  294loPI   C4A 4698   7.919  18.555   7.279  0.0555 -0.0541  0.2264
  294loPI   C5A 4699   7.752  18.312   6.959 -0.3651 -0.2045 -0.0695
  294loPI   C6A 4700   7.845  18.073   6.673  0.1631 -0.2787 -0.1504
  294loPI   C1B 4701   7.926  19.156   8.476 -0.0274  0.3928 -0.0580
  294loPI   C2B 4702   8.064  19.196   8.115 -0.1597 -0.3806  0.0590
  294loPI   C3B 4703   8.148  19.235   7.647 -0.1056 -0.1090 -0.0265
  294loPI   C4B 4704   8.077  19.012   7.238 -0.0462  0.3803 -0.0495
  295loPI    C1 4705   9.703   1.205   9.694  0.3211 -0.0964  0.0044
  295loPI    C2 4706   9.834   0.842   9.588  0.1256 -0.2013  0.1151
  295loPI    C3 4707   9.550   0.878   9.867  0.0244  0.0290 -0.0154
  295loPI   PO4 4708   9.596   1.283   9.541 -0.1124 -0.4469 -0.0911
  295loPI   GL1 4709   9.806   1.350   9.115 -0.1912  0.1291 -0.1873
  295loPI   GL2 4710   9.697   1.052   8.982 -0.1685  0.3533  0.0965
  295loPI   C1A 4711   9.828   1.466   8.660 -0.1080 -0.0502  0.2470
  295loPI   C2A 4712   9.549   1.621   8.375 -0.1713  0.0174  0.1329
  295loPI   C3A 4713   9.369   1.669   7.953  0.0178 -0.2169 -0.0243
  295loPI   C4A 4714   9.840   1.923   7.661  0.2969  0.1194  0.3884
  295loPI   C5A 4715  10.156   2.156   7.433 -0.0513 -0.0664 -0.1548
  295loPI   C6A 4716  10.244   2.616   7.451 -0.0198 -0.1136 -0.0455
  295loPI   C1B 4717   9.680   0.963   8.591  0.3544  0.0436 -0.2865
  295loPI   C2B 4718   9.658   1.001   8.091  0.0969  0.0542  0.0308
  295loPI   C3B 4719   9.817   0.860   7.720 -0.1159 -0.3476  0.3753
  295loPI   C4B 4720   9.646   0.807   7.316  0.3917 -0.4685 -0.1522
  296loPI    C1 4721   6.775  10.187   9.993 -0.1248  0.2042  0.3039
  296loPI    C2 4722   6.704   9.829  10.157 -0.0158  0.1130  0.1548
  296loPI    C3 4723   7.058  10.008  10.211 -0.0443  0.1657  0.1690
  296loPI   PO4 4724   6.632  10.154   9.758 -0.2360  0.1409 -0.1934
  296loPI   GL1 4725   6.738  10.237   9.431  0.2568  0.3433  0.2454
  296loPI   GL2 4726   6.940  10.038   9.308  0.1476  0.0693 -0.2964
  296loPI   C1A 4727   6.617  10.444   9.055 -0.0865  0.0498  0.1960
  296loPI   C2A 4728   6.721  10.374   8.620 -0.1837 -0.0560 -0.0910
  296loPI   C3A 4729   6.520   9.995   8.421  0.1851  0.1816 -0.0551
  296loPI   C4A 4730   6.375   9.601   8.265 -0.0940 -0.0970 -0.1904
  296loPI   C5A 4731   6.225   9.461   7.882 -0.0848 -0.1104 -0.2079
  296loPI   C6A 4732   6.243   9.525   7.379 -0.3272  0.1551  0.0762
  296loPI   C1B 4733   6.724  10.004   8.980 -0.0567 -0.2321 -0.0551
  296loPI   C2B 4734   6.766   9.619   8.728 -0.1467  0.1148  0.3240
  296loPI   C3B 4735   7.131   9.428   8.521  0.1916 -0.0837  0.0429
  296loPI   C4B 4736   7.303   8.976   8.565  0.0064 -0.3853  0.0742
  297loPI    C1 4737   5.362  10.728   9.810  0.2141 -0.0107  0.3886
  297loPI    C2 4738   5.648  10.455   9.863  0.2903  0.0330  0.2102
  297loPI    C3 4739   5.362  10.394   9.590  0.1667  0.0200  0.3417
  297loPI   PO4 4740   5.466  10.988   9.855 -0.2005 -0.0153  0.0702
  297loPI   GL1 4741   5.637  11.255   9.545 -0.2287 -0.1634 -0.1137
  297loPI   GL2 4742   5.381  11.246   9.420 -0.0347 -0.2510  0.0414
  297loPI   C1A 4743   5.880  11.179   9.136  0.2251  0.0395  0.0118
  297loPI   C2A 4744   6.018  11.278   8.794  0.3118 -0.0702  0.1952
  297loPI   C3A 4745   6.240  11.268   8.466 -0.0578  0.0040 -0.0232
  297loPI   C4A 4746   6.559  11.287   8.131 -0.1519 -0.0273 -0.3525
  297loPI   C5A 4747   6.806  11.337   7.702  0.3594  0.2804  0.1648
  297loPI   C6A 4748   6.725  11.004   7.314 -0.0953 -0.0495 -0.2848
  297loPI   C1B 4749   5.389  11.081   8.954 -0.0881  0.1624 -0.1813
  297loPI   C2B 4750   5.596  11.029   8.540  0.0916  0.0491  0.2627
  297loPI   C3B 4751   5.831  11.163   8.279  0.4070 -0.0907  0.0811
  297loPI   C4B 4752   6.068  11.042   8.027 -0.0519  0.0933  0.1095
  298loPI    C1 4753  12.461  11.109   9.970  0.0243  0.1659 -0.1913
  298loPI    C2 4754  12.853  11.032   9.946 -0.0184 -0.1235 -0.0073
  298loPI    C3 4755  12.703  11.214  10.270 -0.0169  0.1232 -0.1427
  298loPI   PO4 4756  12.284  11.119   9.731 -0.0409 -0.0721 -0.2923
  298loPI   GL1 4757  12.247  11.162   9.258  0.0470  0.0287 -0.1278
  298loPI   GL2 4758  12.049  10.948   9.165  0.3996  0.0659  0.2631
  298loPI   C1A 4759  12.413  11.114   8.897  0.0923  0.3516  0.1064
  298loPI   C2A 4760  12.364  11.369   8.507 -0.3726  0.0460  0.0559
  298loPI   C3A 4761  12.521  11.533   8.148  0.2238 -0.0175 -0.1619
  298loPI   C4A 4762  12.411  11.429   7.744 -0.2582  0.2380  0.3182
  298loPI   C5A 4763  12.437  11.136   7.413 -0.0329 -0.3217 -0.0823
  298loPI   C6A 4764  12.175  10.930   7.087 -0.0268 -0.1276  0.5745
  298loPI   C1B 4765  11.650  10.978   8.876 -0.3919  0.0954  0.1601
  298loPI   C2B 4766  11.507  11.081   8.467 -0.0305 -0.1006  0.0074
  298loPI   C3B 4767  11.431  11.446   8.230  0.0330  0.0246 -0.2360
  298loPI   C4B 4768  11.608  11.798   7.981  0.0350 -0.2387 -0.2084
  299loPI    C1 4769   7.014   0.193   9.443 -0.0775 -0.0748  0.1782
  299loPI    C2 4770   7.336   0.394   9.571 -0.1356  0.0397  0.1461
  299loPI    C3 4771   6.981   0.452   9.747 -0.2113  0.1806 -0.0490
  299loPI   PO4 4772   7.019   0.276   9.149  0.0637 -0.0719  0.0171
  299loPI   GL1 4773   6.979   0.210   8.657  0.1096 -0.2438 -0.1545
  299loPI   GL2 4774   7.331   0.117   8.701  0.0378 -0.0538  0.2463
  299loPI   C1A 4775   6.977   0.192   8.243  0.3068  0.1021 -0.0022
  299loPI   C2A 4776   7.077   0.203   7.801 -0.0156  0.0097 -0.2945
  299loPI   C3A 4777   7.131   0.362   7.419  0.3052 -0.2279  0.0397
  299loPI   C4A 4778   7.120   0.267   6.943 -0.1220  0.1342 -0.1632
  299loPI   C5A 4779   7.353   0.162   6.682 -0.3582  0.4798 -0.2079
  299loPI   C6A 4780   7.710   0.462   6.518  0.4824 -0.2539  0.1122
  299loPI   C1B 4781   7.125  -0.246   8.552  0.1930 -0.0154  0.1850
  299loPI   C2B 4782   7.133  -0.464   8.202 -0.1089 -0.1417  0.1095
  299loPI   C3B 4783   7.096  -0.561   7.745  0.2643  0.2831  0.2312
  299loPI   C4B 4784   7.092  -0.643   7.309 -0.0391  0.4003 -0.2092
  300loPI    C1 4785   4.996   6.009  10.209  0.0195 -0.2207  0.1964
  300loPI    C2 4786   4.786   6.248  10.451  0.2940  0.2439 -0.0103
  300loPI    C3 4787   5.115   6.066  10.587 -0.0194 -0.1804  0.2027
  300loPI   PO4 4788   5.066   6.104   9.976 -0.0290 -0.4676  0.0169
  300loPI   GL1 4789   4.968   6.190   9.611 -0.1283  0.1164  0.1421
  300loPI   GL2 4790   4.617   6.281   9.504  0.0913  0.0595 -0.3405
  300loPI   C1A 4791   5.060   6.003   9.236 -0.1606 -0.1679 -0.7350
  300loPI   C2A 4792   4.876   5.999   8.890 -0.1072 -0.0747 -0.0718
  300loPI   C3A 4793   5.062   5.781   8.665  0.1589 -0.0897 -0.0688
  300loPI   C4A 4794   5.186   5.513   8.286 -0.1974  0.0011  0.1532
  300loPI   C5A 4795   5.405   5.567   7.985  0.0289 -0.0717  0.0895
  300loPI   C6A 4796   5.487   5.276   7.581  0.1730  0.0609 -0.1518
  300loPI   C1B 4797   4.564   6.322   9.136 -0.0289  0.0322  0.1019
  300loPI   C2B 4798   4.399   6.328   8.716 -0.0876  0.0227 -0.0267
  300loPI   C3B 4799   4.371   6.165   8.375  0.0058  0.2618  0.0009
  300loPI   C4B 4800   4.589   6.237   8.118 -0.1510 -0.2457 -0.0530
  301loPI    C1 4801   5.954  19.335   9.386  0.0026 -0.2184  0.0483
  301loPI    C2 4802   6.100  19.160   9.715 -0.0428 -0.2710  0.0408
  301loPI    C3 4803   5.869  18.952   9.464 -0.0399 -0.2196 -0.0047
  301loPI   PO4 4804   6.127  19.440   9.266  0.0386 -0.1374  0.1668
  301loPI   GL1 4805   6.038  19.579   8.874 -0.2639 -0.1386  0.0616
  301loPI   GL2 4806   5.869  19.254   8.799 -0.0915 -0.0641 -0.1095
  301loPI   C1A 4807   5.765  19.561   8.365 -0.0012 -0.0047 -0.0837
  301loPI   C2A 4808   5.597  19.852   8.135 -0.1077  0.0675 -0.1847
  301loPI   C3A 4809   5.392  20.291   7.925 -0.4301 -0.0317  0.1059
  301loPI   C4A 4810   5.232  20.659   7.841 -0.1975  0.1004  0.3025
  301loPI   C5A 4811   5.037  20.660   7.448  0.0867  0.1047 -0.1513
  301loPI   C6A 4812   4.700  20.438   7.281  0.0657 -0.0037  0.1941
  301loPI   C1B 4813   5.948  19.061   8.238 -0.1770  0.0942  0.0632
  301loPI   C2B 4814   6.183  18.957   7.808  0.0904  0.0745 -0.1770
  301loPI   C3B 4815   6.309  18.674   7.407 -0.0867  0.0037 -0.0486
  301loPI   C4B 4816   6.471  18.495   7.101  0.0672 -0.2529 -0.0810
  302loPI    C1 4817   8.087   4.360   9.871  0.1512 -0.0028  0.0234
  302loPI    C2 4818   7.874   4.022   9.851  0.2332 -0.0678  0.2219
  302loPI    C3 4819   8.049   4.128  10.195  0.4510  0.0279  0.0835
  302loPI   PO4 4820   7.960   4.454   9.626  0.2024  0.0805  0.0083
  302loPI   GL1 4821   8.052   4.169   9.181 -0.3972  0.0813  0.3032
  302loPI   GL2 4822   8.172   4.412   9.108 -0.0421 -0.3864  0.0497
  302loPI   C1A 4823   8.027   4.152   8.723  0.1628 -0.3221 -0.0946
  302loPI   C2A 4824   7.939   3.925   8.327 -0.1774  0.1151 -0.2716
  302loPI   C3A 4825   7.782   3.970   7.924  0.1309  0.1781  0.2853
  302loPI   C4A 4826   7.907   3.887   7.501 -0.1538 -0.0954  0.0365
  302loPI   C5A 4827   8.149   3.835   7.172  0.1538  0.5378  0.0445
  302loPI   C6A 4828   8.457   3.522   7.136  0.0748 -0.1052 -0.0047
  302loPI   C1B 4829   8.298   4.587   8.707  0.1722 -0.3221 -0.0575
  302loPI   C2B 4830   8.154   4.829   8.296 -0.0391  0.0759  0.1270
  302loPI   C3B 4831   8.191   5.104   7.991  0.1027  0.1209 -0.0009
  302loPI   C4B 4832   8.251   5.443   7.765  0.2691  0.0322  0.0759
  303loPI    C1 4833  14.890   7.615   9.786  0.2550 -0.0062  0.0486
  303loPI    C2 4834  15.005   7.959   9.954 -0.1167  0.0919  0.1115
  303loPI    C3 4835  14.775   7.704  10.159  0.0409 -0.1306  0.0145
  303loPI   PO4 4836  14.785   7.739   9.530  0.1284 -0.2169 -0.2752
  303loPI   GL1 4837  14.623   7.587   9.158 -0.3032 -0.2450  0.1615
  303loPI   GL2 4838  14.496   7.304   9.045  0.0006  0.0450  0.1295
  303loPI   C1A 4839  14.829   7.655   8.687 -0.0215  0.3575 -0.2869
  303loPI   C2A 4840  14.866   7.748   8.212  0.4622 -0.0111 -0.1319
  303loPI   C3A 4841  14.981   7.809   7.823  0.0185  0.2010  0.1061
  303loPI   C4A 4842  15.121   7.950   7.379  0.0212 -0.0888  0.0449
  303loPI   C5A 4843  14.963   8.045   6.932  0.0060  0.2225  0.0386
  303loPI   C6A 4844  15.056   8.248   6.626  0.0359 -0.1067 -0.3063
  303loPI   C1B 4845  14.566   7.197   8.635 -0.0541 -0.0353 -0.1877
  303loPI   C2B 4846  14.651   7.245   8.137  0.2659  0.0203 -0.2258
  303loPI   C3B 4847  14.660   7.371   7.653  0.0853 -0.0283 -0.2077
  303loPI   C4B 4848  14.706   7.546   7.251 -0.1785  0.1948 -0.0333
  304loPI    C1 4849   8.788   4.951   9.544  0.1252  0.1910 -0.1721
  304loPI    C2 4850   8.808   4.749   9.889 -0.0945  0.1433 -0.1860
  304loPI    C3 4851   9.053   5.058   9.824 -0.1418  0.2372  0.0684
  304loPI   PO4 4852   8.769   4.651   9.344 -0.0595 -0.0033  0.4935
  304loPI   GL1 4853   8.756   4.211   9.175  0.2329 -0.0331  0.0112
  304loPI   GL2 4854   8.544   3.931   9.041  0.0238  0.1870 -0.0331
  304loPI   C1A 4855   8.601   4.249   8.707  0.0355  0.2265 -0.1653
  304loPI   C2A 4856   8.426   4.395   8.299 -0.0272 -0.1913 -0.1784
  304loPI   C3A 4857   8.339   4.223   7.821  0.1671 -0.1990  0.2825
  304loPI   C4A 4858   8.319   4.192   7.468 -0.0857  0.1255  0.1515
  304loPI   C5A 4859   8.608   4.095   7.238  0.1344  0.0976  0.0266
  304loPI   C6A 4860   8.944   4.234   7.018  0.1713 -0.1684 -0.2714
  304loPI   C1B 4861   8.891   3.816   8.785 -0.0572  0.0303 -0.0369
  304loPI   C2B 4862   8.977   3.879   8.401  0.0671  0.0615 -0.0011
  304loPI   C3B 4863   9.053   3.917   8.003  0.0808  0.2221  0.0814
  304loPI   C4B 4864   8.812   4.101   7.670 -0.0900  0.0391 -0.1373
  305loPI    C1 4865  14.051  16.692   9.688 -0.0345  0.0202 -0.0503
  305loPI    C2 4866  13.800  16.522   9.949  0.1305 -0.0119  0.0892
  305loPI    C3 4867  14.164  16.367   9.892  0.0444 -0.0913 -0.2687
  305loPI   PO4 4868  13.958  16.667   9.486  0.0894  0.3117 -0.0171
  305loPI   GL1 4869  13.885  16.703   9.140  0.0454  0.1734 -0.4081
  305loPI   GL2 4870  13.458  16.666   9.063  0.2709  0.1927 -0.0034
  305loPI   C1A 4871  14.069  16.686   8.814 -0.0183 -0.0089  0.0533
  305loPI   C2A 4872  14.011  16.758   8.390  0.0037  0.1508 -0.3118
  305loPI   C3A 4873  14.033  16.832   7.961  0.0004 -0.2865  0.3106
  305loPI   C4A 4874  14.032  16.686   7.554  0.1449  0.0010  0.0345
  305loPI   C5A 4875  14.239  16.660   7.147 -0.0361  0.1046  0.0985
  305loPI   C6A 4876  14.089  16.888   6.819 -0.0293  0.1464 -0.0670
  305loPI   C1B 4877  13.558  16.922   8.633  0.3165  0.1763 -0.0719
  305loPI   C2B 4878  13.584  16.917   8.205  0.1117  0.1254 -0.3169
  305loPI   C3B 4879  13.546  16.976   7.810 -0.1267 -0.0756  0.1810
  305loPI   C4B 4880  13.729  17.076   7.433  0.0025  0.1473 -0.0470
  306loPI    C1 4881   5.957  16.774  10.043  0.1330 -0.1146  0.0465
  306loPI    C2 4882   6.148  16.503  10.268  0.0720 -0.2382 -0.0493
  306loPI    C3 4883   6.019  16.844  10.432  0.3951 -0.1419  0.0112
  306loPI   PO4 4884   5.783  16.674   9.821 -0.0741 -0.1142  0.0584
  306loPI   GL1 4885   5.814  16.626   9.316 -0.1089 -0.0378 -0.2745
  306loPI   GL2 4886   5.718  16.370   9.326  0.1818 -0.0636  0.0397
  306loPI   C1A 4887   5.861  16.564   8.878  0.1107  0.0327  0.0196
  306loPI   C2A 4888   6.154  16.742   8.653 -0.4155 -0.0429  0.3351
  306loPI   C3A 4889   6.049  16.966   8.242 -0.0358  0.1960 -0.5923
  306loPI   C4A 4890   5.952  16.988   7.787  0.2407  0.2068 -0.0412
  306loPI   C5A 4891   6.017  16.972   7.341  0.1687  0.1949  0.2018
  306loPI   C6A 4892   6.226  16.984   6.915 -0.1143  0.4128  0.0324
  306loPI   C1B 4893   5.683  16.018   9.018 -0.2687 -0.2825  0.1385
  306loPI   C2B 4894   5.727  15.891   8.548 -0.0918 -0.4010 -0.1419
  306loPI   C3B 4895   5.695  15.979   8.088 -0.2256 -0.1873  0.0139
  306loPI   C4B 4896   5.688  16.125   7.680  0.4201 -0.2530 -0.2740
  307loPI    C1 4897  13.760  12.139   9.772  0.0058 -0.1223 -0.1483
  307loPI    C2 4898  13.534  12.287  10.068  0.0368 -0.1062 -0.1328
  307loPI    C3 4899  13.730  11.942  10.119 -0.2375 -0.2841 -0.2581
  307loPI   PO4 4900  13.699  12.195   9.542 -0.1339 -0.0998  0.1165
  307loPI   GL1 4901  13.751  12.197   9.194  0.0309 -0.2721 -0.0334
  307loPI   GL2 4902  13.997  12.070   9.007  0.0538  0.1239 -0.0827
  307loPI   C1A 4903  13.623  12.377   8.771  0.2046 -0.2713  0.2826
  307loPI   C2A 4904  13.776  12.379   8.323 -0.2539  0.5180 -0.1671
  307loPI   C3A 4905  13.879  12.694   8.018 -0.0971 -0.0185  0.1990
  307loPI   C4A 4906  13.857  12.760   7.535  0.2186  0.0383 -0.2484
  307loPI   C5A 4907  13.693  12.382   7.361  0.1587 -0.2144  0.1750
  307loPI   C6A 4908  13.587  11.958   7.147  0.1450  0.0902  0.1624
  307loPI   C1B 4909  14.065  12.056   8.582 -0.2587 -0.3391 -0.0612
  307loPI   C2B 4910  14.083  11.879   8.194  0.1191  0.0122  0.0005
  307loPI   C3B 4911  14.235  11.795   7.783  0.2644  0.2376 -0.1898
  307loPI   C4B 4912  14.561  11.526   7.551  0.1057 -0.0094  0.0763
  308loPI    C1 4913  17.477   2.242   9.660  0.0575 -0.0137 -0.0531
  308loPI    C2 4914  17.393   2.386  10.023  0.1924 -0.1648  0.0396
  308loPI    C3 4915  17.269   2.020   9.920 -0.3548  0.0969 -0.2797
  308loPI   PO4 4916  17.450   2.303   9.455  0.0789 -0.1331 -0.0903
  308loPI   GL1 4917  17.477   2.080   9.124  0.1874  0.1392 -0.0281
  308loPI   GL2 4918  17.258   2.215   8.992  0.1208  0.1425  0.0498
  308loPI   C1A 4919  17.760   2.069   8.819 -0.1549 -0.0079 -0.1644
  308loPI   C2A 4920  17.900   2.153   8.442  0.1135 -0.3111 -0.1104
  308loPI   C3A 4921  18.035   2.357   8.023 -0.0740  0.0464 -0.0765
  308loPI   C4A 4922  18.019   2.607   7.826  0.1406  0.2173  0.4149
  308loPI   C5A 4923  17.669   2.959   7.843  0.0528  0.0370  0.2822
  308loPI   C6A 4924  17.719   3.391   7.644  0.2165 -0.2145  0.2399
  308loPI   C1B 4925  16.947   2.150   8.687 -0.2945  0.1368 -0.3662
  308loPI   C2B 4926  16.678   2.133   8.285  0.2933 -0.1472 -0.1073
  308loPI   C3B 4927  16.645   1.895   7.839 -0.0059 -0.1082  0.0900
  308loPI   C4B 4928  16.868   1.849   7.473 -0.1237  0.2084  0.2335
  309loPI    C1 4929  15.684  12.456  10.049 -0.0082 -0.0894  0.1657
  309loPI    C2 4930  15.752  12.833  10.163  0.1958 -0.1263  0.1693
  309loPI    C3 4931  15.570  12.579  10.412 -0.2577  0.0610  0.0393
  309loPI   PO4 4932  15.918  12.431   9.878  0.0575 -0.2501 -0.0260
  309loPI   GL1 4933  15.878  12.206   9.523 -0.1480  0.4644  0.4892
  309loPI   GL2 4934  16.010  12.446   9.349 -0.2378 -0.1442 -0.0190
  309loPI   C1A 4935  15.975  11.983   8.999 -0.1734 -0.0930  0.1092
  309loPI   C2A 4936  15.847  11.872   8.550 -0.0800 -0.0905 -0.2182
  309loPI   C3A 4937  15.993  11.855   8.141 -0.0280 -0.2571 -0.3405
  309loPI   C4A 4938  16.082  11.812   7.630 -0.2032 -0.1277 -0.1239
  309loPI   C5A 4939  16.260  11.664   7.278 -0.0953 -0.0881  0.2230
  309loPI   C6A 4940  16.493  11.467   7.151 -0.0521  0.0030  0.1124
  309loPI   C1B 4941  15.747  12.659   8.984 -0.0503 -0.2800  0.1243
  309loPI   C2B 4942  15.834  12.719   8.515  0.2803 -0.1341  0.0215
  309loPI   C3B 4943  16.125  12.951   8.225 -0.2857 -0.2478  0.1961
  309loPI   C4B 4944  16.472  13.228   8.127 -0.0930 -0.3878  0.0252
  310loPI    C1 4945   5.500  18.640   9.626 -0.0464 -0.0236 -0.0317
  310loPI    C2 4946   5.336  18.616   9.990  0.2349 -0.0886  0.0929
  310loPI    C3 4947   5.668  18.832   9.934  0.0653  0.1078 -0.1737
  310loPI   PO4 4948   5.277  18.726   9.470 -0.2332  0.2410  0.0384
  310loPI   GL1 4949   5.136  18.460   9.189 -0.1241 -0.1418 -0.1082
  310loPI   GL2 4950   5.476  18.327   9.253  0.0949  0.2253 -0.1177
  310loPI   C1A 4951   5.050  18.220   8.848  0.1846 -0.1270  0.0212
  310loPI   C2A 4952   5.038  18.028   8.402  0.1729  0.2940 -0.4318
  310loPI   C3A 4953   4.914  18.135   8.062  0.1117 -0.0620  0.0637
  310loPI   C4A 4954   4.616  17.908   7.671  0.0818  0.1987 -0.1000
  310loPI   C5A 4955   4.237  17.827   7.453 -0.1302 -0.3503 -0.4456
  310loPI   C6A 4956   4.083  17.633   7.127  0.0748  0.2683 -0.0944
  310loPI   C1B 4957   5.518  18.277   8.815 -0.1451 -0.1125  0.0145
  310loPI   C2B 4958   5.466  17.873   8.637 -0.3087  0.4778 -0.1131
  310loPI   C3B 4959   5.251  17.522   8.399 -0.0993  0.0723  0.7026
  310loPI   C4B 4960   5.193  17.160   8.131  0.0769 -0.0485 -0.0896
  311loPI    C1 4961   1.698   2.748   9.787 -0.0484 -0.1755 -0.0506
  311loPI    C2 4962   1.713   2.367   9.908  0.0891 -0.1855 -0.0979
  311loPI    C3 4963   1.840   2.659  10.151 -0.2501 -0.1460  0.0363
  311loPI   PO4 4964   1.646   2.766   9.519  0.0574  0.1498  0.2481
  311loPI   GL1 4965   1.314   2.716   9.183 -0.2418  0.1677 -0.0114
  311loPI   GL2 4966   1.129   2.452   9.120 -0.1852  0.1886  0.0172
  311loPI   C1A 4967   1.463   2.639   8.761 -0.1125  0.1281  0.0953
  311loPI   C2A 4968   1.344   2.803   8.340 -0.1322 -0.0966 -0.2538
  311loPI   C3A 4969   1.137   2.845   7.954 -0.0244  0.0025 -0.0291
  311loPI   C4A 4970   1.080   3.264   7.659 -0.0657 -0.0562 -0.2232
  311loPI   C5A 4971   1.176   3.676   7.476  0.2785 -0.3335  0.2637
  311loPI   C6A 4972   0.833   3.911   7.359 -0.0679 -0.1848  0.1587
  311loPI   C1B 4973   0.943   2.810   8.832 -0.0090 -0.1133 -0.0359
  311loPI   C2B 4974   1.006   3.133   8.513  0.0891 -0.1789 -0.1526
  311loPI   C3B 4975   1.062   3.360   8.108  0.0375 -0.0338  0.0683
  311loPI   C4B 4976   1.370   3.667   7.925  0.1284  0.3230 -0.1966
  312loPI    C1 4977  16.797  17.156   9.490  0.1975  0.0227  0.0774
  312loPI    C2 4978  16.555  17.160   9.809  0.1540  0.1255  0.0434
  312loPI    C3 4979  16.451  16.955   9.482  0.1632  0.0817  0.0679
  312loPI   PO4 4980  16.824  17.380   9.360  0.1662  0.0175  0.2820
  312loPI   GL1 4981  16.919  17.582   9.013  0.1860  0.2370 -0.1472
  312loPI   GL2 4982  16.979  17.981   8.873 -0.0269  0.3383 -0.0647
  312loPI   C1A 4983  17.022  17.507   8.528 -0.1490 -0.0338  0.0550
  312loPI   C2A 4984  17.136  17.213   8.176 -0.0168 -0.1422  0.1625
  312loPI   C3A 4985  17.194  17.152   7.780 -0.1419  0.1506 -0.2761
  312loPI   C4A 4986  17.099  17.551   7.498  0.2832  0.3885 -0.1510
  312loPI   C5A 4987  16.709  17.649   7.423  0.0285  0.4481 -0.4057
  312loPI   C6A 4988  16.320  17.589   7.658  0.1397 -0.0500 -0.6669
  312loPI   C1B 4989  16.752  17.998   8.397 -0.0966 -0.2079  0.0575
  312loPI   C2B 4990  16.322  17.964   8.039 -0.0165 -0.1562 -0.0616
  312loPI   C3B 4991  15.970  18.087   7.859  0.0333 -0.2843  0.4642
  312loPI   C4B 4992  15.596  17.972   7.651  0.0832  0.0604 -0.1126
  313loPI    C1 4993  16.039   5.219   9.572 -0.1377  0.1311  0.0734
  313loPI    C2 4994  15.844   4.881   9.481 -0.0716  0.0919  0.0771
  313loPI    C3 4995  16.194   4.865   9.675 -0.1494  0.1696  0.2268
  313loPI   PO4 4996  16.143   5.358   9.240  0.0445  0.1802  0.2628
  313loPI   GL1 4997  16.326   5.408   8.863 -0.0692 -0.1443  0.1892
  313loPI   GL2 4998  16.109   5.674   8.802 -0.0671 -0.0436  0.1527
  313loPI   C1A 4999  16.346   5.027   8.544  0.2145 -0.0831  0.3095
  313loPI   C2A 5000  16.310   4.943   8.146  0.0122  0.1768  0.1694
  313loPI   C3A 5001  16.490   4.954   7.747  0.0085 -0.2030  0.1089
  313loPI   C4A 5002  16.668   4.869   7.361  0.2551 -0.1362  0.1642
  313loPI   C5A 5003  16.903   4.594   7.060  0.0494  0.0727  0.0387
  313loPI   C6A 5004  17.090   4.340   6.752 -0.3370 -0.1069 -0.1159
  313loPI   C1B 5005  15.960   5.790   8.488  0.0437  0.0227 -0.4434
  313loPI   C2B 5006  16.306   5.957   8.085  0.0365 -0.0649 -0.0501
  313loPI   C3B 5007  16.331   5.984   7.706  0.0175 -0.3841  0.0054
  313loPI   C4B 5008  16.436   5.958   7.294  0.1208  0.4642  0.3652
  314loPI    C1 5009  17.578   7.149   9.513 -0.2100  0.0317 -0.2720
  314loPI    C2 5010  17.371   6.943   9.240 -0.1561 -0.1230 -0.1976
  314loPI    C3 5011  17.580   6.749   9.520 -0.1743  0.0341 -0.0737
  314loPI   PO4 5012  17.643   7.318   9.391  0.3106  0.0071 -0.4279
  314loPI   GL1 5013  17.808   7.362   9.064  0.3276 -0.0682 -0.0807
  314loPI   GL2 5014  18.145   7.294   8.970  0.0844  0.1473  0.0994
  314loPI   C1A 5015  17.534   7.079   8.804 -0.1773  0.0193 -0.0571
  314loPI   C2A 5016  17.351   6.853   8.437  0.1665 -0.0488 -0.1516
  314loPI   C3A 5017  17.260   6.620   8.038 -0.2259  0.2526 -0.3466
  314loPI   C4A 5018  17.058   6.389   7.752  0.0594  0.1830 -0.1090
  314loPI   C5A 5019  17.088   6.297   7.335  0.1852 -0.0655 -0.0624
  314loPI   C6A 5020  16.848   6.034   6.925  0.0829  0.2907  0.0790
  314loPI   C1B 5021  18.074   7.008   8.676  0.0389 -0.3245  0.0673
  314loPI   C2B 5022  17.782   7.053   8.317 -0.2989  0.3047 -0.1150
  314loPI   C3B 5023  17.442   7.065   7.996  0.2266 -0.3609  0.0434
  314loPI   C4B 5024  17.449   7.026   7.606 -0.0922  0.0197  0.4891
  315loPI    C1 5025  16.839   8.574   9.786  0.0005  0.0759  0.1894
  315loPI    C2 5026  16.818   8.678  10.172 -0.0445 -0.0549  0.2227
  315loPI    C3 5027  16.641   8.343  10.045 -0.1260  0.0458  0.0668
  315loPI   PO4 5028  16.735   8.838   9.531  0.0429  0.0417 -0.2211
  315loPI   GL1 5029  16.950   8.767   9.114  0.1974  0.1742  0.1053
  315loPI   GL2 5030  17.075   8.463   9.150 -0.1303  0.0476  0.1660
  315loPI   C1A 5031  16.746   8.896   8.726 -0.0565  0.1970 -0.0146
  315loPI   C2A 5032  16.779   8.914   8.317  0.1754 -0.0465 -0.1891
  315loPI   C3A 5033  16.771   8.688   7.966 -0.1577 -0.0306  0.0106
  315loPI   C4A 5034  16.703   8.782   7.548  0.0342 -0.0224  0.3175
  315loPI   C5A 5035  16.720   9.122   7.234  0.1923 -0.2488  0.1158
  315loPI   C6A 5036  16.460   9.321   6.934 -0.0772  0.1134 -0.0976
  315loPI   C1B 5037  17.131   8.610   8.688 -0.1687  0.2274 -0.0736
  315loPI   C2B 5038  17.283   8.415   8.369 -0.0455  0.1577  0.1143
  315loPI   C3B 5039  17.190   8.397   7.977 -0.1936 -0.2216  0.2365
  315loPI   C4B 5040  17.291   8.178   7.588 -0.1480 -0.1581  0.2417
  316loPI    C1 5041  13.209   2.331   9.453  0.0569  0.2493 -0.0540
  316loPI    C2 5042  13.028   2.123   9.743  0.1238  0.2566 -0.0070
  316loPI    C3 5043  13.409   2.044   9.648  0.0358  0.1044 -0.2422
  316loPI   PO4 5044  13.031   2.267   9.214 -0.2627  0.0710 -0.0382
  316loPI   GL1 5045  13.215   2.187   8.776 -0.1829 -0.1252 -0.3476
  316loPI   GL2 5046  12.899   2.238   8.742  0.1772 -0.1883  0.1417
  316loPI   C1A 5047  13.337   2.131   8.341  0.2011 -0.1083 -0.3430
  316loPI   C2A 5048  13.202   2.195   7.933  0.1491 -0.3526  0.0460
  316loPI   C3A 5049  13.418   2.214   7.463  0.0288  0.1606 -0.1426
  316loPI   C4A 5050  13.662   2.411   7.183  0.3300 -0.1540  0.0250
  316loPI   C5A 5051  13.945   2.559   6.860 -0.0844  0.3524  0.3876
  316loPI   C6A 5052  14.229   2.368   6.434 -0.0614 -0.1202  0.0376
  316loPI   C1B 5053  12.841   2.398   8.342  0.2001 -0.2121 -0.1594
  316loPI   C2B 5054  12.754   2.464   7.927 -0.1553 -0.1651  0.0683
  316loPI   C3B 5055  12.902   2.449   7.512  0.0813 -0.0161 -0.1841
  316loPI   C4B 5056  13.041   2.331   7.108 -0.2275  0.1632 -0.0936
  317loPI    C1 5057   9.371   5.109   9.492 -0.2000  0.1501  0.1627
  317loPI    C2 5058   9.527   4.867   9.770 -0.0529  0.0029 -0.0451
  317loPI    C3 5059   9.247   4.730   9.518 -0.1742  0.1310  0.0183
  317loPI   PO4 5060   9.615   5.237   9.395  0.1888 -0.0290 -0.1737
  317loPI   GL1 5061   9.635   5.157   8.899  0.0593 -0.0034 -0.3051
  317loPI   GL2 5062   9.883   4.882   8.768 -0.0074  0.0900 -0.1863
  317loPI   C1A 5063   9.659   5.161   8.378  0.2410 -0.2739 -0.0098
  317loPI   C2A 5064   9.574   5.186   7.966  0.0256  0.3538  0.2113
  317loPI   C3A 5065   9.502   5.228   7.538  0.1389  0.2944  0.1252
  317loPI   C4A 5066   9.526   4.893   7.182 -0.1706 -0.2224 -0.0068
  317loPI   C5A 5067   9.693   4.431   7.139 -0.2928  0.2854 -0.3596
  317loPI   C6A 5068   9.958   4.268   7.485  0.0746  0.0401 -0.3069
  317loPI   C1B 5069  10.212   4.957   8.425  0.1083  0.1862  0.0595
  317loPI   C2B 5070  10.204   4.923   7.931  0.1962 -0.0116 -0.4773
  317loPI   C3B 5071  10.224   5.156   7.582  0.0567  0.2069 -0.3275
  317loPI   C4B 5072   9.967   5.210   7.177 -0.1116 -0.0919 -0.0055
  318loPI    C1 5073   2.125   5.279  10.001  0.0991  0.1682  0.2674
  318loPI    C2 5074   1.735   5.228   9.925  0.1268  0.0892  0.1754
  318loPI    C3 5075   1.865   5.572  10.083  0.0812  0.3058 -0.2436
  318loPI   PO4 5076   2.215   5.262   9.856 -0.0415  0.1226  0.0165
  318loPI   GL1 5077   2.027   5.275   9.448 -0.1789 -0.0326  0.4731
  318loPI   GL2 5078   2.185   5.221   9.117  0.1737 -0.0795 -0.2248
  318loPI   C1A 5079   1.628   5.072   9.318  0.1669  0.0488 -0.2786
  318loPI   C2A 5080   1.432   5.026   8.985 -0.0695 -0.0085 -0.0100
  318loPI   C3A 5081   1.423   4.784   8.601  0.0222 -0.0078  0.1597
  318loPI   C4A 5082   1.645   4.670   8.285 -0.0071  0.4261  0.2463
  318loPI   C5A 5083   1.765   4.639   7.873 -0.0100  0.0122 -0.3879
  318loPI   C6A 5084   1.721   4.400   7.538  0.0899  0.2059 -0.0462
  318loPI   C1B 5085   1.780   5.398   9.016 -0.0897  0.4192 -0.0516
  318loPI   C2B 5086   1.497   5.633   8.777  0.0738 -0.1819  0.1024
  318loPI   C3B 5087   1.575   5.683   8.266  0.3043 -0.0562  0.4033
  318loPI   C4B 5088   1.551   5.581   7.918  0.1776  0.0516  0.3308
  319loPI    C1 5089   4.847  10.558  10.062 -0.1844  0.0168 -0.0523
  319loPI    C2 5090   4.661  10.243  10.225 -0.0891  0.0000  0.0258
  319loPI    C3 5091   4.496  10.607  10.248 -0.0170  0.0189  0.2716
  319loPI   PO4 5092   4.888  10.563   9.776 -0.1317  0.0298  0.0518
  319loPI   GL1 5093   4.879  10.616   9.314 -0.1459  0.0044 -0.1233
  319loPI   GL2 5094   4.554  10.491   9.252 -0.1742 -0.2072  0.1862
  319loPI   C1A 5095   5.196  10.415   9.040  0.2751 -0.2313 -0.2611
  319loPI   C2A 5096   5.270  10.461   8.629  0.0939  0.0614 -0.1240
  319loPI   C3A 5097   5.260  10.539   8.104 -0.1377  0.0543  0.0372
  319loPI   C4A 5098   5.368  10.434   7.621 -0.3917  0.2402 -0.1179
  319loPI   C5A 5099   5.667  10.408   7.452  0.0988 -0.0882 -0.2285
  319loPI   C6A 5100   6.068  10.341   7.259  0.0361  0.0779  0.1212
  319loPI   C1B 5101   4.372  10.457   8.801  0.1429  0.0225 -0.0513
  319loPI   C2B 5102   4.215  10.557   8.306 -0.2391 -0.0895 -0.0164
  319loPI   C3B 5103   4.144  10.196   8.082 -0.1614  0.0164  0.2464
  319loPI   C4B 5104   4.054   9.881   7.774 -0.0238 -0.1304  0.2064
  320loPI    C1 5105  13.342  11.325   9.567  0.2165  0.1113  0.0350
  320loPI    C2 5106  13.192  10.955   9.544 -0.1316  0.2202  0.4223
  320loPI    C3 5107  13.587  11.009   9.579 -0.0491 -0.0975  0.0518
  320loPI   PO4 5108  13.200  11.497   9.315  0.0527 -0.3753 -0.1673
  320loPI   GL1 5109  13.320  11.383   8.890  0.2099  0.1596 -0.1277
  320loPI   GL2 5110  13.467  11.109   9.071  0.0503 -0.1389  0.1384
  320loPI   C1A 5111  12.970  11.189   8.628 -0.1663 -0.2947  0.1338
  320loPI   C2A 5112  12.689  11.087   8.293 -0.1762 -0.2665 -0.0827
  320loPI   C3A 5113  12.717  10.924   7.844 -0.1229 -0.0440 -0.2014
  320loPI   C4A 5114  12.812  10.869   7.406 -0.1997  0.4840  0.3191
  320loPI   C5A 5115  13.042  10.483   7.365  0.1236  0.0299  0.2861
  320loPI   C6A 5116  13.133   9.993   7.334  0.1079 -0.0945  0.0079
  320loPI   C1B 5117  13.221  10.811   8.871 -0.2417  0.0505  0.2370
  320loPI   C2B 5118  13.382  10.641   8.492  0.2847 -0.1353  0.1693
  320loPI   C3B 5119  13.579  10.284   8.477 -0.0420 -0.1059  0.1992
  320loPI   C4B 5120  13.452   9.871   8.669 -0.1185 -0.0491  0.3473
  321loPI    C1 5121   1.929  18.777   9.874  0.1009 -0.0577  0.1933
  321loPI    C2 5122   1.698  18.840  10.194 -0.1251 -0.1667  0.0543
  321loPI    C3 5123   2.038  18.634  10.231 -0.0602 -0.0266  0.2562
  321loPI   PO4 5124   1.789  18.741   9.679 -0.3199  0.0708 -0.1531
  321loPI   GL1 5125   1.964  18.662   9.226 -0.0534  0.0248 -0.1435
  321loPI   GL2 5126   1.683  18.806   9.141  0.0198 -0.0282 -0.0455
  321loPI   C1A 5127   2.032  18.465   8.839 -0.0829 -0.0212  0.1591
  321loPI   C2A 5128   1.924  18.217   8.390  0.1476 -0.2707  0.0879
  321loPI   C3A 5129   2.011  18.096   7.936 -0.3117  0.3694 -0.3275
  321loPI   C4A 5130   2.111  18.210   7.592 -0.0830  0.0915  0.0885
  321loPI   C5A 5131   1.868  18.250   7.279  0.2213  0.4823 -0.2027
  321loPI   C6A 5132   1.477  18.281   7.063  0.0308 -0.3424 -0.1066
  321loPI   C1B 5133   1.740  18.969   8.742 -0.1758  0.0797 -0.0734
  321loPI   C2B 5134   1.647  19.166   8.318 -0.2074  0.3732 -0.0180
  321loPI   C3B 5135   1.623  18.927   7.960  0.1320 -0.0298  0.4518
  321loPI   C4B 5136   1.808  18.931   7.576  0.2687  0.1242  0.3082
  322loPI    C1 5137  14.253  19.795   9.197  0.0447  0.0772 -0.0851
  322loPI    C2 5138  14.309  19.609   9.547  0.0898 -0.1406 -0.2063
  322loPI    C3 5139  13.959  19.786   9.468  0.1725  0.1480  0.0575
  322loPI   PO4 5140  14.295  19.605   9.011 -0.0397 -0.0871 -0.1663
  322loPI   GL1 5141  14.163  19.632   8.579  0.0785 -0.2578 -0.0556
  322loPI   GL2 5142  13.929  19.384   8.705 -0.1603 -0.0617 -0.2453
  322loPI   C1A 5143  14.200  19.588   8.145 -0.2458  0.2159 -0.2506
  322loPI   C2A 5144  14.365  19.559   7.802  0.1846  0.1175 -0.0973
  322loPI   C3A 5145  14.284  19.678   7.434  0.3632 -0.5726 -0.3451
  322loPI   C4A 5146  14.292  19.931   7.088 -0.1656  0.0175 -0.1233
  322loPI   C5A 5147  14.403  19.888   6.589 -0.1275  0.1537  0.0159
  322loPI   C6A 5148  14.411  20.091   6.375 -0.1530  0.0714  0.0323
  322loPI   C1B 5149  13.888  19.224   8.332 -0.0339 -0.1602  0.1681
  322loPI   C2B 5150  13.975  19.225   7.888 -0.1155  0.0623  0.1229
  322loPI   C3B 5151  13.835  19.344   7.532 -0.0093 -0.0709  0.0376
  322loPI   C4B 5152  14.007  19.156   7.070 -0.4412  0.3521 -0.3186
  323loPI    C1 5153  10.128   5.062   9.449 -0.2803 -0.2931  0.1185
  323loPI    C2 5154   9.991   5.367   9.668 -0.0431 -0.0556 -0.0578
  323loPI    C3 5155  10.291   5.140   9.806 -0.0486 -0.0503 -0.0370
  323loPI   PO4 5156  10.160   5.176   9.228 -0.2419  0.2096  0.3623
  323loPI   GL1 5157  10.144   5.567   8.950  0.0025  0.2879  0.1212
  323loPI   GL2 5158   9.825   5.649   9.042 -0.2466  0.1352  0.1169
  323loPI   C1A 5159  10.063   5.451   8.547 -0.0631  0.0680 -0.0406
  323loPI   C2A 5160  10.060   5.375   8.023  0.1862 -0.0449 -0.0741
  323loPI   C3A 5161   9.877   5.571   7.690  0.0337  0.1251 -0.2151
  323loPI   C4A 5162   9.812   5.638   7.263 -0.1384  0.0340  0.1506
  323loPI   C5A 5163   9.796   5.600   6.834 -0.0774 -0.3467  0.0728
  323loPI   C6A 5164   9.420   5.611   6.615 -0.1178  0.2389  0.1102
  323loPI   C1B 5165   9.890   5.934   8.748 -0.0313 -0.2469  0.3737
  323loPI   C2B 5166  10.117   5.845   8.299 -0.4252  0.0677 -0.0233
  323loPI   C3B 5167  10.348   5.766   7.917  0.3885 -0.5392  0.2348
  323loPI   C4B 5168  10.252   5.778   7.453  0.2060  0.0746 -0.0078
  324loPI    C1 5169   5.978  13.315  10.033 -0.0758 -0.2657  0.0186
  324loPI    C2 5170   5.685  13.158  10.255  0.2051 -0.1769  0.4669
  324loPI    C3 5171   5.901  12.923  10.014 -0.1607 -0.2593  0.2099
  324loPI   PO4 5172   5.833  13.537   9.865  0.2142 -0.0078  0.1063
  324loPI   GL1 5173   5.896  13.818   9.675  0.1937 -0.1161  0.0425
  324loPI   GL2 5174   6.045  13.911   9.421 -0.1902 -0.1279 -0.1203
  324loPI   C1A 5175   6.166  13.482   9.311  0.4298  0.1252 -0.3048
  324loPI   C2A 5176   6.246  13.421   8.894  0.1095 -0.0285 -0.3110
  324loPI   C3A 5177   6.284  13.238   8.400  0.2630 -0.1460  0.1035
  324loPI   C4A 5178   6.287  13.236   7.959  0.1254 -0.1252  0.2094
  324loPI   C5A 5179   6.603  13.214   7.686 -0.0184 -0.0721  0.0556
  324loPI   C6A 5180   6.931  13.066   7.553  0.1196  0.0208  0.2185
  324loPI   C1B 5181   6.047  13.929   9.045 -0.3371 -0.1467  0.4833
  324loPI   C2B 5182   5.976  13.826   8.570  0.0641  0.1094 -0.0457
  324loPI   C3B 5183   5.841  13.629   8.210 -0.0005  0.1831 -0.2687
  324loPI   C4B 5184   6.042  13.810   7.958  0.0869  0.0055  0.0321
  325loPI    C1 5185  16.687  11.956   9.946  0.0240  0.1295  0.0792
  325loPI    C2 5186  16.621  11.609  10.135 -0.1422  0.0570 -0.1091
  325loPI    C3 5187  16.744  11.928  10.341 -0.0213 -0.1040  0.0711
  325loPI   PO4 5188  16.721  11.819   9.680 -0.0529 -0.2975  0.0378
  325loPI   GL1 5189  16.733  11.873   9.158 -0.0518  0.0579  0.1235
  325loPI   GL2 5190  17.043  11.996   9.167  0.1366 -0.2141 -0.1048
  325loPI   C1A 5191  16.458  11.892   8.813  0.0510 -0.1188  0.0235
  325loPI   C2A 5192  16.350  12.027   8.441  0.0714  0.0108  0.2345
  325loPI   C3A 5193  16.418  12.122   8.012  0.0387 -0.3392  0.0133
  325loPI   C4A 5194  16.678  12.283   7.635 -0.0797 -0.3467 -0.2869
  325loPI   C5A 5195  16.635  12.093   7.294  0.1733 -0.1302  0.2553
  325loPI   C6A 5196  16.549  12.000   6.877  0.1201 -0.1521 -0.1296
  325loPI   C1B 5197  17.222  11.888   8.728  0.0857 -0.1241  0.0831
  325loPI   C2B 5198  17.277  11.981   8.305  0.2209  0.0919  0.0659
  325loPI   C3B 5199  17.399  12.125   7.870 -0.0548 -0.4534  0.1152
  325loPI   C4B 5200  17.523  12.094   7.393  0.1275  0.1385 -0.3277
  326loPI    C1 5201  10.482   6.506   9.727  0.2575 -0.0071 -0.1377
  326loPI    C2 5202  10.476   6.459  10.124 -0.0073 -0.0457 -0.1439
  326loPI    C3 5203  10.687   6.757   9.960 -0.1232  0.1426  0.0448
  326loPI   PO4 5204  10.215   6.462   9.631 -0.0740 -0.0808 -0.0054
  326loPI   GL1 5205  10.279   6.542   9.265 -0.0852 -0.0210  0.1167
  326loPI   GL2 5206  10.506   6.663   9.076 -0.0618 -0.0530  0.1570
  326loPI   C1A 5207  10.387   6.275   8.871  0.0614  0.0295  0.2359
  326loPI   C2A 5208  10.416   6.211   8.515  0.0172  0.2488 -0.0850
  326loPI   C3A 5209  10.284   6.332   8.137  0.4768 -0.1527  0.0604
  326loPI   C4A 5210  10.366   6.643   7.782  0.1577 -0.0945 -0.2748
  326loPI   C5A 5211  10.053   7.008   7.542 -0.3717  0.2362  0.0044
  326loPI   C6A 5212  10.292   7.407   7.427  0.0417 -0.2328  0.1748
  326loPI   C1B 5213  10.651   6.992   8.742  0.2326  0.0295  0.1508
  326loPI   C2B 5214  11.078   7.004   8.542  0.2055  0.0660  0.0635
  326loPI   C3B 5215  11.514   7.033   8.511  0.2490 -0.1942 -0.1344
  326loPI   C4B 5216  11.848   7.029   8.275 -0.6291 -0.2832 -0.2671
  327loPI    C1 5217   8.849   0.151   9.595 -0.2099  0.4963 -0.3695
  327loPI    C2 5218   8.834   0.320   9.958  0.0591  0.1366 -0.1843
  327loPI    C3 5219   8.498   0.193   9.782 -0.0480  0.0995  0.0437
  327loPI   PO4 5220   9.033   0.282   9.405 -0.0158  0.0687 -0.1254
  327loPI   GL1 5221   9.086   0.447   9.062  0.4066 -0.0119 -0.4072
  327loPI   GL2 5222   8.768   0.639   8.960 -0.0644 -0.1627 -0.0424
  327loPI   C1A 5223   9.351   0.553   8.710  0.3630  0.0892  0.0938
  327loPI   C2A 5224   9.317   0.682   8.366 -0.4630 -0.1338  0.2733
  327loPI   C3A 5225   9.394   0.558   7.986  0.2576  0.0643  0.1171
  327loPI   C4A 5226   9.397   0.543   7.605  0.2757 -0.0038  0.0288
  327loPI   C5A 5227   9.067   0.271   7.373 -0.0887 -0.3653 -0.0198
  327loPI   C6A 5228   9.035   0.070   7.023 -0.1162 -0.0623  0.4773
  327loPI   C1B 5229   8.826   0.617   8.583  0.0904  0.3113  0.3757
  327loPI   C2B 5230   8.792   0.649   8.129 -0.0322  0.0347 -0.3421
  327loPI   C3B 5231   8.926   0.793   7.697  0.1427  0.0309 -0.1190
  327loPI   C4B 5232   9.009   0.910   7.276 -0.2258 -0.2128  0.2059
  328loPI    C1 5233   6.120   8.100  10.100  0.0713  0.0179  0.2259
  328loPI    C2 5234   6.460   7.890  10.121 -0.0023 -0.1325 -0.0409
  328loPI    C3 5235   6.165   7.821  10.383  0.0773 -0.1736  0.0384
  328loPI   PO4 5236   6.084   8.156   9.886 -0.0385 -0.2952 -0.4483
  328loPI   GL1 5237   5.852   8.152   9.597 -0.4954  0.4183  0.1260
  328loPI   GL2 5238   5.646   8.051   9.535  0.0447 -0.0627  0.0028
  328loPI   C1A 5239   5.882   8.256   9.152 -0.5156 -0.0393 -0.0544
  328loPI   C2A 5240   5.944   8.292   8.706 -0.1258 -0.1437 -0.0388
  328loPI   C3A 5241   5.615   8.169   8.324  0.2036 -0.0201  0.1583
  328loPI   C4A 5242   5.484   8.179   7.879 -0.2796  0.1730 -0.2231
  328loPI   C5A 5243   5.031   8.018   7.616  0.1953  0.2084 -0.2210
  328loPI   C6A 5244   5.040   8.050   7.191  0.0741  0.1410 -0.0329
  328loPI   C1B 5245   5.614   7.812   9.110  0.2172  0.1359 -0.0675
  328loPI   C2B 5246   5.489   7.742   8.742 -0.0769  0.3861  0.1155
  328loPI   C3B 5247   5.636   7.662   8.450 -0.0732  0.2300 -0.0122
  328loPI   C4B 5248   5.497   7.688   8.021 -0.3025  0.2525 -0.2886
  329loPI    C1 5249  16.477   4.238   9.639  0.1043 -0.0331 -0.2155
  329loPI    C2 5250  16.428   4.335  10.024  0.1060  0.1750 -0.2663
  329loPI    C3 5251  16.159   4.102   9.840  0.1347  0.0288 -0.1252
  329loPI   PO4 5252  16.466   4.526   9.399 -0.1153  0.3151 -0.1815
  329loPI   GL1 5253  16.213   4.827   9.115 -0.0430  0.2478  0.0771
  329loPI   GL2 5254  15.989   5.055   8.895  0.1741  0.0679 -0.1077
  329loPI   C1A 5255  16.279   4.572   8.739  0.3432 -0.4199 -0.0622
  329loPI   C2A 5256  16.377   4.421   8.337 -0.0706  0.1450  0.3498
  329loPI   C3A 5257  16.439   4.474   7.928 -0.0143  0.0538  0.1757
  329loPI   C4A 5258  16.607   4.409   7.489 -0.0601  0.1535  0.1036
  329loPI   C5A 5259  16.523   4.024   7.323 -0.2728 -0.3896  0.0236
  329loPI   C6A 5260  16.254   3.688   7.242  0.3109  0.0796  0.3070
  329loPI   C1B 5261  15.913   5.232   8.430 -0.1721  0.1113  0.0570
  329loPI   C2B 5262  15.860   5.093   7.966 -0.1060  0.0409 -0.0747
  329loPI   C3B 5263  16.025   5.215   7.575  0.0230  0.1201 -0.2679
  329loPI   C4B 5264  16.169   5.033   7.223  0.0880  0.0123  0.0214
  330loPI    C1 5265   9.418  11.841  10.026  0.0640  0.0587  0.0556
  330loPI    C2 5266   9.514  12.170  10.233 -0.0117  0.0286  0.1393
  330loPI    C3 5267   9.752  11.849  10.247  0.0638  0.0804  0.0552
  330loPI   PO4 5268   9.400  11.956   9.762  0.1733 -0.1338 -0.0997
  330loPI   GL1 5269   9.632  12.126   9.417  0.4534 -0.3185 -0.1790
  330loPI   GL2 5270   9.762  12.502   9.393  0.0237  0.1856 -0.0292
  330loPI   C1A 5271   9.637  11.792   9.082  0.4162 -0.0541  0.2956
  330loPI   C2A 5272   9.632  11.463   8.766  0.0930  0.0177 -0.3410
  330loPI   C3A 5273   9.703  11.082   8.452  0.0889  0.0923  0.1312
  330loPI   C4A 5274   9.747  10.765   8.196 -0.0938 -0.0708 -0.0438
  330loPI   C5A 5275   9.639  10.878   7.767 -0.0530  0.3330 -0.1589
  330loPI   C6A 5276   9.515  10.823   7.389 -0.3919 -0.2370  0.1192
  330loPI   C1B 5277   9.684  12.490   9.054  0.0274  0.1956 -0.3008
  330loPI   C2B 5278   9.879  12.564   8.634  0.1301  0.0499 -0.1253
  330loPI   C3B 5279   9.690  12.283   8.298 -0.2081 -0.2768  0.1625
  330loPI   C4B 5280   9.555  11.904   8.170 -0.0912  0.0710  0.0418
  331loPI    C1 5281   0.406   6.154   9.812 -0.0896  0.0265  0.0602
  331loPI    C2 5282   0.687   5.870   9.801 -0.0604  0.0598 -0.0666
  331loPI    C3 5283   0.579   6.031  10.151  0.0971  0.0655 -0.0199
  331loPI   PO4 5284   0.493   6.305   9.669  0.0330  0.1367  0.2788
  331loPI   GL1 5285   0.585   5.989   9.316 -0.3147  0.0370 -0.1024
  331loPI   GL2 5286   0.615   5.663   9.175  0.1870  0.2858 -0.0368
  331loPI   C1A 5287   0.609   6.286   8.970 -0.2573 -0.2766 -0.0115
  331loPI   C2A 5288   0.750   6.592   8.690  0.2707  0.1134 -0.0771
  331loPI   C3A 5289   0.757   6.414   8.214 -0.0583  0.3716  0.1278
  331loPI   C4A 5290   0.853   6.292   7.836  0.1356  0.3500 -0.1216
  331loPI   C5A 5291   0.798   6.196   7.501  0.0748  0.2036  0.2931
  331loPI   C6A 5292   0.464   6.266   7.230 -0.0823 -0.1581  0.2341
  331loPI   C1B 5293   0.516   5.304   8.922  0.0710  0.0419 -0.0839
  331loPI   C2B 5294   0.456   5.020   8.569  0.0356 -0.1023 -0.0434
  331loPI   C3B 5295   0.497   5.040   8.180 -0.0135  0.0131  0.1445
  331loPI   C4B 5296   0.517   4.999   7.797 -0.3303  0.1432  0.1017
  332loPI    C1 5297  15.791   3.086  10.099 -0.0997 -0.3034 -0.2421
  332loPI    C2 5298  15.760   2.965  10.479  0.0290 -0.0025 -0.1328
  332loPI    C3 5299  15.442   2.947  10.237 -0.0409 -0.2401 -0.0261
  332loPI   PO4 5300  16.026   2.953  10.027  0.0335  0.0764  0.1561
  332loPI   GL1 5301  16.221   2.886   9.489  0.0108  0.1107  0.0178
  332loPI   GL2 5302  15.884   3.075   9.514 -0.0248 -0.0898  0.2301
  332loPI   C1A 5303  16.417   2.901   9.052 -0.0493 -0.1847 -0.0212
  332loPI   C2A 5304  16.420   2.817   8.553  0.0805 -0.0559 -0.1956
  332loPI   C3A 5305  16.197   2.940   8.219  0.2398  0.1841 -0.1765
  332loPI   C4A 5306  15.823   3.145   8.025 -0.0758  0.1371 -0.0510
  332loPI   C5A 5307  15.637   3.311   7.646  0.0091 -0.1219 -0.3056
  332loPI   C6A 5308  15.675   3.650   7.300  0.1205 -0.0583 -0.1709
  332loPI   C1B 5309  15.918   3.007   9.080 -0.1113 -0.0193  0.1920
  332loPI   C2B 5310  16.180   3.303   8.776 -0.0435  0.3175  0.1091
  332loPI   C3B 5311  16.528   3.446   8.516 -0.1426  0.0047 -0.4460
  332loPI   C4B 5312  16.438   3.375   8.143 -0.3874  0.2306  0.1461
  333loPI    C1 5313  18.399   4.937   9.877 -0.0965  0.2236 -0.0053
  333loPI    C2 5314  18.196   5.161  10.140  0.0053  0.1998  0.0940
  333loPI    C3 5315  18.348   4.808  10.252  0.1624  0.2494  0.0406
  333loPI   PO4 5316  18.313   4.976   9.652  0.3025 -0.2439 -0.0880
  333loPI   GL1 5317  18.414   5.238   9.301 -0.1752 -0.1822  0.0053
  333loPI   GL2 5318  18.419   5.578   9.118 -0.0228 -0.3349 -0.2466
  333loPI   C1A 5319  18.701   5.146   9.015  0.1791 -0.2558 -0.1016
  333loPI   C2A 5320  18.680   5.095   8.643  0.2011  0.2098  0.0929
  333loPI   C3A 5321  18.785   5.219   8.245  0.1753  0.0564  0.1213
  333loPI   C4A 5322  18.753   5.619   8.192  0.0356  0.3013  0.1188
  333loPI   C5A 5323  18.840   5.906   7.810 -0.1972 -0.1650 -0.3316
  333loPI   C6A 5324  18.624   6.171   7.660 -0.1264 -0.2200 -0.0513
  333loPI   C1B 5325  18.256   5.391   8.778  0.0560 -0.1057  0.0929
  333loPI   C2B 5326  18.142   5.303   8.354 -0.1680 -0.1431  0.0408
  333loPI   C3B 5327  18.042   5.061   8.027  0.0581  0.0777 -0.1368
  333loPI   C4B 5328  18.162   5.160   7.632 -0.4335  0.3783 -0.0629
  334loPI    C1 5329   5.818  12.012  10.194 -0.1182 -0.1421  0.0441
  334loPI    C2 5330   5.818  12.273  10.497 -0.1345  0.1142 -0.1724
  334loPI    C3 5331   5.482  12.078  10.401 -0.1741  0.1659 -0.1392
  334loPI   PO4 5332   5.958  12.035  10.019 -0.4783  0.0321  0.0452
  334loPI   GL1 5333   6.110  12.222   9.552 -0.3064  0.1237 -0.2132
  334loPI   GL2 5334   6.321  12.050   9.370  0.2059 -0.1533  0.0477
  334loPI   C1A 5335   5.892  12.157   9.232 -0.0884 -0.4268  0.1613
  334loPI   C2A 5336   5.699  12.018   8.796  0.0917 -0.3099  0.2253
  334loPI   C3A 5337   5.857  11.687   8.426  0.4162  0.1154 -0.0693
  334loPI   C4A 5338   5.844  11.584   8.056 -0.3610  0.0405  0.0242
  334loPI   C5A 5339   5.667  11.404   7.778 -0.0591  0.0660  0.0136
  334loPI   C6A 5340   5.555  11.019   7.872 -0.0884  0.2576 -0.2015
  334loPI   C1B 5341   6.612  12.086   9.003 -0.3624  0.2357 -0.0955
  334loPI   C2B 5342   6.815  12.069   8.771  0.2232  0.0882 -0.0360
  334loPI   C3B 5343   6.995  12.066   8.377 -0.2154 -0.5366  0.0667
  334loPI   C4B 5344   6.865  12.247   7.959  0.0566  0.3078 -0.1243
  335loPI    C1 5345  18.163  17.905   9.657  0.1438 -0.2226 -0.2043
  335loPI    C2 5346  18.502  18.106   9.589 -0.0056  0.1396  0.0862
  335loPI    C3 5347  18.342  18.102   9.955 -0.3184 -0.0243 -0.0485
  335loPI   PO4 5348  17.994  17.989   9.359  0.1659 -0.0431  0.2028
  335loPI   GL1 5349  17.756  18.186   8.896  0.1561  0.0659  0.0026
  335loPI   GL2 5350  17.753  18.573   8.995 -0.1564 -0.0215 -0.1998
  335loPI   C1A 5351  17.586  18.091   8.557 -0.0978  0.2018  0.3162
  335loPI   C2A 5352  17.721  18.172   8.151 -0.0475 -0.1258 -0.2182
  335loPI   C3A 5353  17.811  18.430   7.940  0.0151  0.2479  0.1035
  335loPI   C4A 5354  17.973  18.783   7.624 -0.1624 -0.0390  0.3931
  335loPI   C5A 5355  18.328  18.929   7.359 -0.0699 -0.0785 -0.0722
  335loPI   C6A 5356  18.607  19.174   7.080 -0.0143  0.1228  0.0620
  335loPI   C1B 5357  17.701  18.733   8.623  0.2067 -0.0479  0.0756
  335loPI   C2B 5358  17.448  18.683   8.273  0.2399 -0.0421  0.1105
  335loPI   C3B 5359  17.424  18.699   7.759 -0.0585 -0.1087  0.0014
  335loPI   C4B 5360  17.488  18.505   7.402  0.0886  0.2027  0.3214
  336loPI    C1 5361   3.936   6.753   9.902 -0.0463 -0.1296  0.0396
  336loPI    C2 5362   3.922   7.146   9.976 -0.0064 -0.1134 -0.0374
  336loPI    C3 5363   3.671   6.897  10.164  0.1118 -0.0764  0.1717
  336loPI   PO4 5364   3.884   6.744   9.622  0.0798  0.4489 -0.0649
  336loPI   GL1 5365   3.719   6.786   9.234 -0.3830  0.1551 -0.0490
  336loPI   GL2 5366   3.967   6.965   9.103  0.0339 -0.0413 -0.0769
  336loPI   C1A 5367   3.813   6.526   8.881 -0.0254  0.0271 -0.1424
  336loPI   C2A 5368   4.026   6.574   8.447  0.2568 -0.0964  0.2986
  336loPI   C3A 5369   3.966   6.445   8.020 -0.1755 -0.2196  0.1152
  336loPI   C4A 5370   4.171   6.137   7.751  0.0404 -0.0592  0.0715
  336loPI   C5A 5371   4.583   6.044   7.453 -0.1966 -0.0602  0.1681
  336loPI   C6A 5372   4.499   6.194   7.075  0.1251  0.1250  0.0730
  336loPI   C1B 5373   4.238   6.881   8.788 -0.2238  0.1136  0.0694
  336loPI   C2B 5374   4.513   6.768   8.395  0.1684  0.0826  0.2061
  336loPI   C3B 5375   4.884   6.644   8.150 -0.1682 -0.1471 -0.0246
  336loPI   C4B 5376   4.858   6.384   7.716 -0.0501  0.0589 -0.0135
  337loPI    C1 5377  13.724  17.179   9.675 -0.0642  0.0314 -0.0942
  337loPI    C2 5378  13.439  17.263   9.942  0.0866  0.0858  0.0518
  337loPI    C3 5379  13.766  17.064  10.056  0.0727 -0.0444 -0.1313
  337loPI   PO4 5380  13.742  17.134   9.480  0.1501  0.2802 -0.0795
  337loPI   GL1 5381  13.549  17.157   9.072 -0.1646  0.0529 -0.1077
  337loPI   GL2 5382  13.889  17.334   8.862 -0.1867  0.1758 -0.0222
  337loPI   C1A 5383  13.447  17.445   8.747 -0.1798  0.4425  0.0589
  337loPI   C2A 5384  13.460  17.481   8.289  0.1822  0.1513 -0.0367
  337loPI   C3A 5385  13.466  17.447   7.859 -0.0316  0.2207  0.4277
  337loPI   C4A 5386  13.296  17.274   7.511 -0.1528 -0.1177 -0.3389
  337loPI   C5A 5387  13.081  17.320   7.142 -0.2742  0.0594  0.1965
  337loPI   C6A 5388  12.868  17.418   6.672 -0.0961 -0.2997 -0.0976
  337loPI   C1B 5389  13.919  17.234   8.462 -0.0098 -0.0194 -0.0797
  337loPI   C2B 5390  13.954  17.296   7.952 -0.0051  0.1922 -0.0730
  337loPI   C3B 5391  14.196  17.248   7.469  0.0080 -0.0528 -0.0278
  337loPI   C4B 5392  14.110  17.306   7.154 -0.0128 -0.2271  0.0621
  338loPI    C1 5393  11.272  11.414   9.874 -0.0131 -0.0145  0.0753
  338loPI    C2 5394  11.447  11.731  10.044 -0.0070 -0.1102  0.2501
  338loPI    C3 5395  11.084  11.615  10.164 -0.0200 -0.1544  0.1688
  338loPI   PO4 5396  11.295  11.531   9.523  0.0213 -0.0618 -0.2133
  338loPI   GL1 5397  11.025  11.674   9.367  0.1000  0.1031 -0.3634
  338loPI   GL2 5398  11.019  11.461   9.122  0.0777  0.1276 -0.1047
  338loPI   C1A 5399  10.970  11.863   8.924 -0.3852 -0.2452  0.3554
  338loPI   C2A 5400  11.013  11.703   8.518  0.0172  0.0895  0.3452
  338loPI   C3A 5401  10.971  11.546   8.094 -0.0658  0.2847 -0.2575
  338loPI   C4A 5402  10.940  11.187   7.740  0.2882 -0.2388 -0.0501
  338loPI   C5A 5403  10.840  10.938   7.219  0.2698  0.0363 -0.1185
  338loPI   C6A 5404  10.509  10.999   6.842 -0.2732  0.0071 -0.1168
  338loPI   C1B 5405  11.135  11.258   8.789 -0.1167 -0.1426 -0.0797
  338loPI   C2B 5406  11.029  11.060   8.368  0.0577 -0.0888 -0.2200
  338loPI   C3B 5407  11.117  10.815   8.080 -0.1822  0.0777  0.2544
  338loPI   C4B 5408  11.390  10.746   7.727  0.1983 -0.1375 -0.1915
  339loPI    C1 5409   4.440  12.173  10.065 -0.1449 -0.1133  0.1284
  339loPI    C2 5410   4.327  12.462  10.318 -0.0078  0.0795 -0.0275
  339loPI    C3 5411   4.596  12.190  10.433 -0.1663 -0.0117  0.1332
  339loPI   PO4 5412   4.600  12.251   9.765  0.1967  0.1056  0.2983
  339loPI   GL1 5413   4.296  12.516   9.405 -0.1804 -0.0094  0.3190
  339loPI   GL2 5414   4.412  12.174   9.258 -0.0929 -0.1305 -0.0953
  339loPI   C1A 5415   4.058  12.654   9.032  0.2364  0.2274 -0.2068
  339loPI   C2A 5416   3.972  12.562   8.604 -0.0263 -0.0905 -0.2550
  339loPI   C3A 5417   3.734  12.408   8.213 -0.0170  0.3724 -0.1159
  339loPI   C4A 5418   3.522  12.198   7.948  0.0100  0.0616  0.1363
  339loPI   C5A 5419   3.512  12.131   7.487  0.1987 -0.3452 -0.2317
  339loPI   C6A 5420   3.487  12.350   7.154 -0.0963 -0.3133  0.1145
  339loPI   C1B 5421   4.342  12.219   8.772 -0.2512  0.2341  0.0148
  339loPI   C2B 5422   4.198  12.083   8.389  0.0199 -0.1077 -0.1134
  339loPI   C3B 5423   4.000  12.140   7.917  0.4820  0.1349 -0.1431
  339loPI   C4B 5424   3.987  12.321   7.517  0.0480 -0.1386 -0.3282
  340loPI    C1 5425  11.685   9.194   9.773 -0.2272  0.1921  0.0550
  340loPI    C2 5426  12.063   9.319   9.805 -0.1514 -0.0028 -0.0584
  340loPI    C3 5427  11.764   9.550   9.937  0.0027  0.1757 -0.0171
  340loPI   PO4 5428  11.628   8.911   9.719  0.0281 -0.0296 -0.2490
  340loPI   GL1 5429  11.693   8.696   9.313  0.0133  0.0799 -0.1721
  340loPI   GL2 5430  12.003   8.721   9.474  0.0008  0.0674 -0.0276
  340loPI   C1A 5431  11.682   8.737   8.885 -0.0142 -0.2232 -0.0415
  340loPI   C2A 5432  11.441   8.850   8.607  0.1323 -0.0764  0.2327
  340loPI   C3A 5433  11.426   8.961   8.153 -0.0187  0.0137  0.2213
  340loPI   C4A 5434  11.424   9.086   7.719 -0.4297  0.1056  0.0438
  340loPI   C5A 5435  11.826   9.079   7.373  0.3672  0.4754  0.0862
  340loPI   C6A 5436  11.790   8.948   6.914  0.0428 -0.0697 -0.0279
  340loPI   C1B 5437  11.958   9.087   9.102 -0.0785  0.2667  0.1366
  340loPI   C2B 5438  12.366   9.247   8.952 -0.0289  0.2381 -0.0105
  340loPI   C3B 5439  12.795   9.281   8.816 -0.0082  0.1821 -0.0568
  340loPI   C4B 5440  12.893   9.225   8.418 -0.0030  0.0703  0.2691
  341loPI    C1 5441   7.517   6.478   9.712 -0.0959  0.1160  0.0980
  341loPI    C2 5442   7.605   6.103   9.819 -0.3089 -0.0109 -0.1590
  341loPI    C3 5443   7.832   6.292   9.550 -0.1218  0.0965  0.0700
  341loPI   PO4 5444   7.202   6.497   9.590  0.1698  0.2594  0.0337
  341loPI   GL1 5445   7.050   6.519   9.129  0.0594  0.2871 -0.0938
  341loPI   GL2 5446   7.195   6.663   8.952 -0.0229 -0.1177 -0.0100
  341loPI   C1A 5447   7.286   6.237   8.788  0.0943 -0.1203  0.2333
  341loPI   C2A 5448   7.527   6.312   8.361 -0.0182 -0.0407  0.1022
  341loPI   C3A 5449   7.455   6.145   7.893 -0.0433 -0.1624  0.0954
  341loPI   C4A 5450   7.086   5.916   7.647 -0.2220  0.0866  0.1671
  341loPI   C5A 5451   6.714   6.196   7.626 -0.1911  0.1749  0.0701
  341loPI   C6A 5452   6.485   6.304   7.285  0.0148  0.0355  0.2935
  341loPI   C1B 5453   7.284   6.710   8.552 -0.1328  0.6300 -0.0617
  341loPI   C2B 5454   7.186   6.588   8.055 -0.2573 -0.0737  0.1024
  341loPI   C3B 5455   7.080   6.587   7.574 -0.1229 -0.0408  0.1159
  341loPI   C4B 5456   7.294   6.726   7.252 -0.0519 -0.0483  0.0668
  342loPI    C1 5457   6.650  16.735   9.702 -0.0449 -0.1450 -0.1047
  342loPI    C2 5458   6.842  16.786  10.049 -0.1539 -0.0885 -0.0520
  342loPI    C3 5459   6.461  16.900  10.014 -0.0959  0.0516 -0.2380
  342loPI   PO4 5460   6.758  16.795   9.560  0.0873  0.0428  0.1425
  342loPI   GL1 5461   6.627  17.038   9.287 -0.1801 -0.0328 -0.0214
  342loPI   GL2 5462   6.723  17.305   9.262 -0.1615 -0.1358  0.2267
  342loPI   C1A 5463   6.561  17.064   8.712 -0.4616 -0.0256 -0.1047
  342loPI   C2A 5464   6.446  17.162   8.323 -0.0837 -0.0650 -0.0247
  342loPI   C3A 5465   6.465  17.004   7.980  0.2973  0.3841  0.1574
  342loPI   C4A 5466   6.440  16.998   7.549 -0.0490  0.2617  0.1670
  342loPI   C5A 5467   6.436  17.404   7.263 -0.0039  0.2243 -0.0543
  342loPI   C6A 5468   6.633  17.626   6.788  0.0062  0.2741 -0.1223
  342loPI   C1B 5469   6.605  17.746   9.072  0.2075  0.1442  0.2411
  342loPI   C2B 5470   6.655  17.893   8.665 -0.1159 -0.0426  0.0153
  342loPI   C3B 5471   6.924  18.062   8.398  0.0989 -0.0368 -0.1560
  342loPI   C4B 5472   6.913  18.346   8.082  0.0838 -0.0385 -0.2717
  343loPI    C1 5473   7.368  18.427   9.828 -0.0630  0.0327 -0.2492
  343loPI    C2 5474   7.149  18.142  10.003 -0.0669  0.0753 -0.1843
  343loPI    C3 5475   7.048  18.527  10.046  0.3178  0.1330  0.2820
  343loPI   PO4 5476   7.558  18.179   9.620 -0.0143  0.1809  0.0677
  343loPI   GL1 5477   7.604  18.356   9.177 -0.0644  0.0468 -0.0206
  343loPI   GL2 5478   7.848  18.021   9.168  0.0564 -0.2675  0.0314
  343loPI   C1A 5479   7.704  18.148   8.672  0.0195 -0.1586  0.2715
  343loPI   C2A 5480   8.008  18.263   8.281 -0.2112  0.0246 -0.1535
  343loPI   C3A 5481   8.107  18.321   7.862 -0.3394  0.0810 -0.2266
  343loPI   C4A 5482   8.271  18.249   7.452  0.3423  0.0660  0.0529
  343loPI   C5A 5483   8.252  18.130   7.007  0.0518  0.1700 -0.1638
  343loPI   C6A 5484   8.448  18.110   6.655 -0.2189 -0.0705 -0.1900
  343loPI   C1B 5485   8.133  17.990   8.778  0.2835  0.1853  0.0215
  343loPI   C2B 5486   8.443  18.137   8.510  0.0913 -0.0338 -0.1233
  343loPI   C3B 5487   8.715  18.416   8.411  0.0757  0.0781 -0.0171
  343loPI   C4B 5488   8.685  18.433   7.869  0.3662 -0.0866 -0.0983
  344loPI    C1 5489   5.535  19.259   9.646  0.0658 -0.0817 -0.0621
  344loPI    C2 5490   5.436  19.437   9.990 -0.1306  0.1631 -0.2413
  344loPI    C3 5491   5.271  19.086   9.891  0.0573  0.0060 -0.0091
  344loPI   PO4 5492   5.580  19.634   9.355 -0.3811  0.0085 -0.0412
  344loPI   GL1 5493   5.578  19.687   8.872  0.1147 -0.1221  0.0814
  344loPI   GL2 5494   5.333  19.472   8.781  0.0952  0.1242 -0.0473
  344loPI   C1A 5495   5.546  20.056   8.562 -0.0076  0.0412  0.0263
  344loPI   C2A 5496   5.799  20.254   8.309  0.1229  0.0584  0.1499
  344loPI   C3A 5497   6.154  20.302   7.977  0.0928  0.0219 -0.1660
  344loPI   C4A 5498   6.207  20.393   7.601 -0.1487 -0.0784  0.0535
  344loPI   C5A 5499   6.059  20.175   7.228 -0.1741 -0.0577  0.0986
  344loPI   C6A 5500   6.000  19.931   6.891  0.1301  0.1327 -0.1866
  344loPI   C1B 5501   5.155  19.582   8.440  0.2404  0.3521  0.2099
  344loPI   C2B 5502   5.319  19.475   8.032  0.2444  0.0384  0.1947
  344loPI   C3B 5503   5.506  19.757   7.682  0.3182 -0.0481 -0.3767
  344loPI   C4B 5504   5.834  20.025   7.660 -0.0621 -0.0903 -0.0764
  345loPI    C1 5505  12.300   5.734   9.893 -0.1167 -0.3048 -0.0754
  345loPI    C2 5506  12.675   5.658  10.010 -0.0510 -0.0883 -0.1411
  345loPI    C3 5507  12.367   5.548  10.241  0.0550 -0.1995 -0.0511
  345loPI   PO4 5508  12.377   5.780   9.663 -0.0541 -0.0798  0.0237
  345loPI   GL1 5509  12.375   5.754   9.312 -0.0318 -0.1126  0.4225
  345loPI   GL2 5510  12.693   5.920   9.260 -0.0164 -0.1110  0.2419
  345loPI   C1A 5511  12.416   5.575   8.876  0.1414 -0.0187 -0.1273
  345loPI   C2A 5512  12.389   5.367   8.550 -0.2200 -0.0822  0.0891
  345loPI   C3A 5513  12.495   5.311   8.089 -0.0767  0.1185 -0.1477
  345loPI   C4A 5514  12.640   4.964   7.981 -0.0306 -0.5166 -0.0800
  345loPI   C5A 5515  12.937   4.872   7.505 -0.3205  0.0720 -0.1041
  345loPI   C6A 5516  13.108   4.750   7.164  0.0835  0.2151  0.0996
  345loPI   C1B 5517  12.771   6.176   8.958  0.1333  0.1977 -0.1546
  345loPI   C2B 5518  12.568   6.442   8.646 -0.0107 -0.0408 -0.0774
  345loPI   C3B 5519  12.365   6.626   8.214  0.1039 -0.0120 -0.1421
  345loPI   C4B 5520  12.027   6.765   7.862  0.3165 -0.1953  0.1210
  346loPI    C1 5521   7.795   3.296   9.876 -0.1536 -0.1234 -0.0141
  346loPI    C2 5522   7.813   3.320  10.275 -0.2883 -0.0429 -0.0120
  346loPI    C3 5523   8.092   3.115  10.073 -0.0448  0.1733  0.0999
  346loPI   PO4 5524   7.651   3.518   9.785 -0.2661  0.1451  0.0204
  346loPI   GL1 5525   7.652   3.764   9.443 -0.1507 -0.0187  0.2692
  346loPI   GL2 5526   7.390   3.453   9.375  0.0775  0.0869 -0.3751
  346loPI   C1A 5527   7.667   3.905   9.031  0.2549  0.2336  0.1802
  346loPI   C2A 5528   7.491   4.153   8.618 -0.3125  0.1271  0.0729
  346loPI   C3A 5529   7.251   4.245   8.341 -0.0507  0.0378  0.1444
  346loPI   C4A 5530   7.434   4.380   7.958 -0.1352 -0.0535  0.3073
  346loPI   C5A 5531   7.446   4.521   7.653 -0.0518 -0.0289  0.1751
  346loPI   C6A 5532   7.441   4.802   7.270 -0.0190 -0.2961  0.1511
  346loPI   C1B 5533   7.628   3.427   9.016 -0.3433 -0.1896 -0.2008
  346loPI   C2B 5534   7.631   3.636   8.576 -0.1824 -0.2019 -0.0792
  346loPI   C3B 5535   7.625   3.509   8.155  0.2909  0.0349  0.2001
  346loPI   C4B 5536   7.730   3.120   8.027  0.0518 -0.0807 -0.4242
  347loPI    C1 5537   9.790   6.176   9.642  0.0763 -0.0316 -0.2018
  347loPI    C2 5538  10.062   5.940   9.817  0.1494  0.2015  0.0042
  347loPI    C3 5539   9.891   6.237  10.024 -0.3051  0.0246 -0.1056
  347loPI   PO4 5540   9.840   6.155   9.386  0.1052 -0.4414  0.0298
  347loPI   GL1 5541   9.825   6.329   9.096  0.1839  0.0834  0.0709
  347loPI   GL2 5542   9.867   6.640   9.057  0.1400  0.1270 -0.1526
  347loPI   C1A 5543   9.663   6.435   8.639  0.2275 -0.1324 -0.2119
  347loPI   C2A 5544   9.714   6.329   8.194  0.1742 -0.0684 -0.0403
  347loPI   C3A 5545   9.969   6.149   7.782  0.1027 -0.2859  0.1218
  347loPI   C4A 5546   9.670   6.138   7.357  0.4484  0.0751 -0.0706
  347loPI   C5A 5547   9.668   6.428   6.925 -0.3684 -0.2516 -0.1081
  347loPI   C6A 5548   9.668   6.574   6.487  0.2194  0.3716 -0.0555
  347loPI   C1B 5549  10.133   6.689   8.713 -0.1539  0.0066 -0.1964
  347loPI   C2B 5550  10.169   6.738   8.334  0.2029  0.2127 -0.0653
  347loPI   C3B 5551   9.856   6.743   8.011  0.0608 -0.3297 -0.0970
  347loPI   C4B 5552   9.602   6.955   7.725  0.3003 -0.0944 -0.1098
  348loPI    C1 5553  19.098  -0.070   9.727  0.2366 -0.1874  0.1710
  348loPI    C2 5554  19.000  -0.110  10.112 -0.0393 -0.0902  0.1134
  348loPI    C3 5555  19.004   0.253   9.944  0.0753 -0.1329  0.0226
  348loPI   PO4 5556  18.893  -0.222   9.607 -0.0369 -0.0196 -0.0255
  348loPI   GL1 5557  18.816  -0.259   9.253  0.2111 -0.0269 -0.3513
  348loPI   GL2 5558  19.010  -0.495   9.210 -0.1068  0.0737 -0.1010
  348loPI   C1A 5559  18.956   0.004   8.889  0.1178 -0.2989  0.3606
  348loPI   C2A 5560  18.934  -0.129   8.486  0.1388  0.2323  0.1538
  348loPI   C3A 5561  18.949  -0.075   8.038  0.0390  0.0157 -0.1351
  348loPI   C4A 5562  19.168   0.230   7.773 -0.2101  0.1037  0.0144
  348loPI   C5A 5563  19.158   0.315   7.326 -0.1239  0.0026 -0.0761
  348loPI   C6A 5564  18.814   0.315   7.048 -0.0699  0.1989 -0.0247
  348loPI   C1B 5565  19.005  -0.544   8.787 -0.1267 -0.2450  0.1277
  348loPI   C2B 5566  19.030  -0.642   8.420  0.0992 -0.1568 -0.2185
  348loPI   C3B 5567  18.930  -0.646   8.026  0.1598 -0.1158 -0.3251
  348loPI   C4B 5568  18.692  -0.893   7.730 -0.0081 -0.2782  0.0352
  349loPI    C1 5569  12.124   4.888   9.438  0.1615  0.2039 -0.2299
  349loPI    C2 5570  11.817   4.696   9.607  0.2582  0.0753 -0.1990
  349loPI    C3 5571  12.067   4.912   9.833  0.3908 -0.1012 -0.1746
  349loPI   PO4 5572  11.980   5.023   9.197 -0.1804 -0.2467 -0.0510
  349loPI   GL1 5573  11.932   5.124   8.778 -0.0797 -0.1478 -0.1699
  349loPI   GL2 5574  11.861   4.850   8.768  0.0285 -0.3956 -0.0538
  349loPI   C1A 5575  11.960   5.339   8.325 -0.1003  0.0449  0.1416
  349loPI   C2A 5576  11.959   5.527   7.944  0.2885  0.0196 -0.0819
  349loPI   C3A 5577  12.060   5.781   7.660 -0.4753 -0.2194 -0.0638
  349loPI   C4A 5578  12.104   6.011   7.267 -0.1482  0.0367  0.1606
  349loPI   C5A 5579  12.449   6.230   7.204  0.1500  0.4607 -0.1893
  349loPI   C6A 5580  12.648   6.514   6.960 -0.0625  0.1236  0.0771
  349loPI   C1B 5581  11.698   4.579   8.516  0.2118  0.1182  0.0470
  349loPI   C2B 5582  11.681   4.514   8.052 -0.1126  0.0948  0.0100
  349loPI   C3B 5583  11.792   4.661   7.687  0.1483  0.1105  0.0392
  349loPI   C4B 5584  11.904   5.015   7.401  0.2062  0.3186 -0.1873
  350loPI    C1 5585   5.716   6.301   9.833 -0.0300  0.1580 -0.0910
  350loPI    C2 5586   5.672   6.647  10.029 -0.0323  0.1164 -0.0178
  350loPI    C3 5587   5.364   6.490   9.827 -0.0125  0.1901 -0.1058
  350loPI   PO4 5588   5.863   6.111   9.930 -0.1964  0.1083  0.3116
  350loPI   GL1 5589   5.714   5.857   9.557 -0.1729 -0.0192 -0.0132
  350loPI   GL2 5590   5.376   5.947   9.634  0.0050 -0.1212 -0.0545
  350loPI   C1A 5591   5.881   5.964   9.168 -0.0912 -0.0143  0.2652
  350loPI   C2A 5592   6.168   6.082   8.887 -0.0108  0.0100  0.0159
  350loPI   C3A 5593   6.249   6.414   8.530  0.4901 -0.0380 -0.0982
  350loPI   C4A 5594   6.251   6.559   8.112  0.0430 -0.0617 -0.4644
  350loPI   C5A 5595   6.258   6.342   7.696  0.3496 -0.0680 -0.2262
  350loPI   C6A 5596   6.148   5.975   7.429  0.0488  0.0785  0.1986
  350loPI   C1B 5597   5.546   6.286   9.267  0.3970  0.2713  0.1013
  350loPI   C2B 5598   5.741   6.394   8.811 -0.1816  0.0559 -0.4241
  350loPI   C3B 5599   5.749   6.313   8.335  0.2181  0.0238  0.1724
  350loPI   C4B 5600   5.843   6.124   7.937  0.1860 -0.0298  0.2790
  351loPI    C1 5601   2.217  12.790   9.708  0.0682 -0.0677  0.0543
  351loPI    C2 5602   2.165  13.182   9.648 -0.0433 -0.1199 -0.2042
  351loPI    C3 5603   2.232  13.043  10.017  0.2632  0.1704 -0.1457
  351loPI   PO4 5604   2.035  12.668   9.568  0.2431  0.0940 -0.1639
  351loPI   GL1 5605   1.858  12.497   9.119  0.2441 -0.1119 -0.4824
  351loPI   GL2 5606   1.536  12.680   9.233 -0.0875 -0.0606  0.1133
  351loPI   C1A 5607   1.973  12.642   8.754 -0.1715 -0.0806 -0.2233
  351loPI   C2A 5608   2.162  12.684   8.323  0.1078 -0.1877  0.1063
  351loPI   C3A 5609   2.449  12.720   7.958  0.3016 -0.1082  0.4068
  351loPI   C4A 5610   2.452  12.462   7.611  0.0244  0.0355 -0.1008
  351loPI   C5A 5611   2.317  12.205   7.287 -0.0741 -0.3489  0.1208
  351loPI   C6A 5612   1.938  12.142   7.228 -0.0197 -0.1258 -0.0200
  351loPI   C1B 5613   1.188  12.632   8.949 -0.2355 -0.0838 -0.2629
  351loPI   C2B 5614   1.142  12.447   8.465  0.1877  0.0556 -0.2358
  351loPI   C3B 5615   1.274  12.075   8.409 -0.0782  0.0876  0.0702
  351loPI   C4B 5616   1.039  11.781   8.057 -0.0013 -0.2469 -0.1678
  352loPI    C1 5617   3.561   2.952   9.838  0.2811  0.2223  0.1417
  352loPI    C2 5618   3.470   2.563   9.817  0.1183  0.2665  0.0042
  352loPI    C3 5619   3.525   2.736  10.173  0.1233  0.1335  0.0686
  352loPI   PO4 5620   3.526   3.014   9.576  0.1069 -0.2444  0.0898
  352loPI   GL1 5621   3.530   3.085   9.214 -0.1035 -0.0930  0.0216
  352loPI   GL2 5622   3.232   2.954   9.073 -0.2730 -0.1324 -0.0470
  352loPI   C1A 5623   3.642   3.265   8.844  0.0947 -0.2958  0.0196
  352loPI   C2A 5624   3.494   3.619   8.618  0.2428 -0.3021  0.2093
  352loPI   C3A 5625   3.201   3.839   8.323 -0.1770  0.2392  0.1224
  352loPI   C4A 5626   2.838   3.762   8.158 -0.0054 -0.3131 -0.0977
  352loPI   C5A 5627   2.358   3.680   8.263  0.0071  0.1342 -0.1114
  352loPI   C6A 5628   1.882   3.672   8.244  0.1247  0.0574  0.0428
  352loPI   C1B 5629   3.364   2.904   8.588  0.0354  0.1491  0.1679
  352loPI   C2B 5630   3.523   2.959   8.081 -0.0329  0.1684  0.0165
  352loPI   C3B 5631   3.105   3.220   7.757 -0.0380 -0.2727 -0.0677
  352loPI   C4B 5632   2.935   3.575   7.705  0.1963 -0.0568  0.0670
  353loPI    C1 5633   5.567  12.695  10.295 -0.0640 -0.0472 -0.2095
  353loPI    C2 5634   5.330  12.522  10.566  0.0363  0.0692 -0.0457
  353loPI    C3 5635   5.512  12.868  10.651  0.1228  0.0721 -0.2368
  353loPI   PO4 5636   5.527  12.476  10.087  0.1048  0.2897 -0.0196
  353loPI   GL1 5637   5.600  12.370   9.699 -0.1318 -0.1351  0.0019
  353loPI   GL2 5638   5.415  12.166   9.487 -0.0652  0.1801  0.1985
  353loPI   C1A 5639   5.708  12.727   9.371 -0.3091 -0.0954  0.0492
  353loPI   C2A 5640   5.826  12.583   8.967  0.3243 -0.0766  0.3316
  353loPI   C3A 5641   5.756  12.484   8.529 -0.0275 -0.0516  0.1167
  353loPI   C4A 5642   5.726  12.431   8.132  0.0917 -0.2692  0.0653
  353loPI   C5A 5643   5.530  12.322   7.680  0.1800 -0.2381  0.0111
  353loPI   C6A 5644   5.252  12.015   7.439  0.0613  0.1574  0.0401
  353loPI   C1B 5645   5.353  12.050   9.183  0.2044 -0.3070 -0.0541
  353loPI   C2B 5646   5.227  11.953   8.700  0.0001  0.1579  0.0103
  353loPI   C3B 5647   5.411  11.958   8.379 -0.1275  0.1324 -0.2286
  353loPI   C4B 5648   5.427  11.897   7.973  0.4758 -0.1794 -0.0432
  354loPI    C1 5649  10.159   4.366   9.322 -0.2430 -0.3599  0.0812
  354loPI    C2 5650  10.406   4.673   9.390 -0.3284 -0.2499 -0.1001
  354loPI    C3 5651  10.553   4.323   9.266 -0.2562 -0.2059 -0.1391
  354loPI   PO4 5652   9.948   4.400   9.059  0.1874  0.2098 -0.0516
  354loPI   GL1 5653   9.973   4.351   8.604  0.0028 -0.0705  0.0480
  354loPI   GL2 5654   9.697   4.600   8.415 -0.0914  0.1840  0.0454
  354loPI   C1A 5655  10.211   4.434   8.312 -0.0057  0.4025  0.0753
  354loPI   C2A 5656  10.211   4.367   7.915  0.0176  0.0920 -0.4170
  354loPI   C3A 5657  10.383   4.555   7.613  0.0990  0.0054 -0.1415
  354loPI   C4A 5658  10.634   4.705   7.253  0.1227  0.1189 -0.0334
  354loPI   C5A 5659  10.498   4.733   6.833 -0.1047 -0.1452 -0.0879
  354loPI   C6A 5660  10.261   4.972   6.472  0.2245 -0.3542 -0.0280
  354loPI   C1B 5661   9.740   4.659   8.090 -0.2260  0.0875  0.0227
  354loPI   C2B 5662   9.653   4.716   7.697  0.3595  0.1542  0.1656
  354loPI   C3B 5663  10.012   4.766   7.372 -0.0482 -0.1164  0.1704
  354loPI   C4B 5664  10.143   4.489   7.062  0.3095  0.0182 -0.1025
  355loPI    C1 5665  12.523   4.836   9.812  0.0912 -0.0196 -0.0984
  355loPI    C2 5666  12.483   5.234   9.829  0.1775 -0.0219  0.2233
  355loPI    C3 5667  12.549   5.025  10.164 -0.0633 -0.3296  0.0837
  355loPI   PO4 5668  12.713   4.838   9.511  0.2119  0.1528 -0.0457
  355loPI   GL1 5669  12.773   4.834   9.031 -0.0198  0.1396  0.1060
  355loPI   GL2 5670  12.384   4.858   8.922  0.2146 -0.0975  0.0567
  355loPI   C1A 5671  12.737   5.051   8.658  0.1165 -0.0849  0.0413
  355loPI   C2A 5672  12.875   5.383   8.421 -0.0043  0.0003  0.2200
  355loPI   C3A 5673  12.995   5.332   7.982 -0.1532  0.2212 -0.0728
  355loPI   C4A 5674  12.905   5.416   7.581 -0.0404 -0.2622  0.0413
  355loPI   C5A 5675  13.092   5.622   7.112  0.1332 -0.1032 -0.0687
  355loPI   C6A 5676  13.518   5.566   7.006  0.0534  0.2906 -0.2392
  355loPI   C1B 5677  12.269   4.867   8.505 -0.0444  0.3374 -0.2134
  355loPI   C2B 5678  12.046   4.838   8.239  0.0374 -0.4344 -0.0922
  355loPI   C3B 5679  12.114   5.026   7.904  0.0339 -0.2035  0.0212
  355loPI   C4B 5680  12.393   5.232   7.554  0.2346 -0.2367  0.0060
  356loPI    C1 5681   8.723  13.611  10.151  0.0665  0.0549 -0.0905
  356loPI    C2 5682   8.840  13.982  10.062  0.1295  0.0427 -0.0592
  356loPI    C3 5683   8.550  13.924  10.331 -0.0029  0.0760 -0.1933
  356loPI   PO4 5684   8.773  13.511   9.898  0.2870  0.1961  0.1344
  356loPI   GL1 5685   8.788  13.684   9.475 -0.0831 -0.0584 -0.1636
  356loPI   GL2 5686   8.758  14.051   9.320 -0.1997 -0.1642 -0.1101
  356loPI   C1A 5687   8.679  13.642   9.044  0.1219  0.3385  0.0102
  356loPI   C2A 5688   8.702  13.494   8.628 -0.3079  0.3314  0.0004
  356loPI   C3A 5689   8.375  13.115   8.439 -0.3082 -0.0737  0.0590
  356loPI   C4A 5690   8.425  12.771   8.409 -0.1409 -0.0610 -0.0387
  356loPI   C5A 5691   8.734  12.562   8.172  0.2223 -0.2103  0.1349
  356loPI   C6A 5692   8.934  12.189   8.171  0.0014 -0.1659  0.0446
  356loPI   C1B 5693   8.733  14.099   8.877 -0.0886  0.2644 -0.0286
  356loPI   C2B 5694   8.550  13.938   8.415 -0.0745 -0.0204 -0.3066
  356loPI   C3B 5695   8.667  13.552   8.116  0.2462  0.1323  0.4103
  356loPI   C4B 5696   8.764  13.339   7.820  0.0379 -0.1161 -0.0125
  357loPI    C1 5697   2.401  16.939   9.365 -0.1949 -0.0535  0.0339
  357loPI    C2 5698   2.477  17.305   9.510 -0.2232 -0.0649  0.0780
  357loPI    C3 5699   2.396  17.003   9.760 -0.0657 -0.1324  0.0489
  357loPI   PO4 5700   2.652  16.957   9.193 -0.4206  0.0188 -0.1155
  357loPI   GL1 5701   2.718  16.745   8.778  0.3167  0.2809  0.1320
  357loPI   GL2 5702   2.948  16.861   8.408  0.3550 -0.1673 -0.0156
  357loPI   C1A 5703   2.277  16.897   8.651 -0.0223  0.2306  0.0194
  357loPI   C2A 5704   2.189  16.863   8.151 -0.1488  0.0490 -0.0430
  357loPI   C3A 5705   1.843  16.900   7.864  0.3996 -0.1406 -0.0701
  357loPI   C4A 5706   1.553  16.748   7.521 -0.1141  0.0280 -0.0694
  357loPI   C5A 5707   1.371  16.716   7.178  0.0033  0.1647 -0.2278
  357loPI   C6A 5708   1.040  16.499   6.990  0.1213 -0.1736 -0.1667
  357loPI   C1B 5709   2.647  16.606   8.290 -0.2888 -0.0113  0.1222
  357loPI   C2B 5710   2.441  16.445   7.999 -0.0697  0.0367 -0.0500
  357loPI   C3B 5711   2.371  16.214   7.637  0.0190 -0.2062 -0.0065
  357loPI   C4B 5712   2.305  16.123   7.214  0.2849 -0.2157  0.0264
  358loPI    C1 5713   4.880   4.363   9.703 -0.0913 -0.0363  0.0618
  358loPI    C2 5714   4.810   3.980   9.795 -0.1694 -0.0429 -0.0238
  358loPI    C3 5715   5.143   4.159   9.926 -0.0740 -0.1749 -0.0837
  358loPI   PO4 5716   4.838   4.351   9.464 -0.0152 -0.1728 -0.0393
  358loPI   GL1 5717   4.863   4.407   9.035 -0.2107  0.2360 -0.0299
  358loPI   GL2 5718   5.069   4.252   9.018  0.0379 -0.0753  0.0931
  358loPI   C1A 5719   5.273   4.662   8.838  0.1801  0.2940 -0.1605
  358loPI   C2A 5720   5.185   5.035   8.490 -0.1061  0.0988 -0.2688
  358loPI   C3A 5721   5.415   5.069   8.137  0.0534  0.0074  0.1695
  358loPI   C4A 5722   5.774   4.968   7.865 -0.0728 -0.0856 -0.0403
  358loPI   C5A 5723   5.735   4.645   7.535  0.0574 -0.0483 -0.2062
  358loPI   C6A 5724   5.729   4.189   7.425  0.2442  0.0853 -0.0449
  358loPI   C1B 5725   5.329   4.045   8.746 -0.0837  0.0463  0.0402
  358loPI   C2B 5726   5.393   4.108   8.324  0.0230  0.3718  0.0546
  358loPI   C3B 5727   5.525   4.382   7.950 -0.2412  0.1797  0.4640
  358loPI   C4B 5728   5.236   4.620   7.771 -0.1540  0.1461 -0.0596
  359loPI    C1 5729  19.839  10.894   9.654 -0.3125 -0.0520 -0.3148
  359loPI    C2 5730  19.542  10.953   9.916 -0.1285 -0.1762 -0.0747
  359loPI    C3 5731  19.788  10.640   9.959  0.0835 -0.0337 -0.2276
  359loPI   PO4 5732  19.968  11.169   9.624 -0.0314  0.0994  0.2081
  359loPI   GL1 5733  19.930  11.067   9.176 -0.0126 -0.1575 -0.3979
  359loPI   GL2 5734  19.613  10.857   9.135 -0.1274  0.0402  0.0840
  359loPI   C1A 5735  20.124  11.083   8.930 -0.0200 -0.0618 -0.2271
  359loPI   C2A 5736  20.378  11.041   8.549 -0.3065  0.3949  0.0011
  359loPI   C3A 5737  20.747  11.239   8.493 -0.4209 -0.3932  0.2285
  359loPI   C4A 5738  20.905  11.636   8.606  0.1627  0.0902 -0.1401
  359loPI   C5A 5739  21.107  11.677   8.976  0.3217 -0.2002  0.2721
  359loPI   C6A 5740  21.481  11.370   9.096 -0.0950  0.2034 -0.0772
  359loPI   C1B 5741  19.634  11.034   8.730 -0.0671 -0.2106 -0.0954
  359loPI   C2B 5742  19.409  10.950   8.417  0.4217 -0.1845 -0.1149
  359loPI   C3B 5743  19.270  11.035   8.033  0.0341 -0.0054 -0.0965
  359loPI   C4B 5744  19.325  10.930   7.657 -0.0313  0.0434 -0.0552
  360loPI    C1 5745  15.584   8.491   9.334 -0.3289  0.0319 -0.0735
  360loPI    C2 5746  15.842   8.796   9.346 -0.3344  0.0398 -0.1538
  360loPI    C3 5747  15.744   8.604   9.683 -0.0401 -0.1177 -0.1547
  360loPI   PO4 5748  15.344   8.569   9.261  0.2230  0.0386  0.2308
  360loPI   GL1 5749  15.166   8.917   9.046 -0.1644  0.2104 -0.1822
  360loPI   GL2 5750  15.523   9.038   9.030 -0.2003  0.2050  0.1382
  360loPI   C1A 5751  15.155   9.020   8.640 -0.1281  0.2243 -0.1201
  360loPI   C2A 5752  15.067   9.171   8.195 -0.0273 -0.0742  0.1785
  360loPI   C3A 5753  15.036   8.974   7.790  0.1271  0.3051 -0.0368
  360loPI   C4A 5754  14.866   8.993   7.394 -0.0713 -0.0095 -0.0819
  360loPI   C5A 5755  14.566   9.265   7.281 -0.2445 -0.1103 -0.3590
  360loPI   C6A 5756  14.588   9.568   7.009  0.3812 -0.2269 -0.0538
  360loPI   C1B 5757  15.903   8.720   8.856 -0.2554  0.0976 -0.3513
  360loPI   C2B 5758  16.237   8.739   8.608 -0.0564 -0.0592 -0.1804
  360loPI   C3B 5759  16.273   8.873   8.199 -0.1813  0.1938  0.0263
  360loPI   C4B 5760  16.523   9.229   8.054  0.0251  0.0164 -0.1603
  361loPI    C1 5761  11.729   2.267   9.643 -0.2133  0.1683  0.0294
  361loPI    C2 5762  11.899   2.626   9.590 -0.1038  0.1003 -0.0845
  361loPI    C3 5763  11.925   2.442   9.945 -0.2261  0.2388 -0.0029
  361loPI   PO4 5764  11.783   2.123   9.394 -0.1103  0.0035 -0.4094
  361loPI   GL1 5765  12.074   1.937   9.065 -0.2304  0.2474 -0.1657
  361loPI   GL2 5766  12.287   1.774   9.015  0.0885  0.0232  0.0184
  361loPI   C1A 5767  11.965   1.879   8.659  0.1287 -0.2559  0.0136
  361loPI   C2A 5768  11.748   2.129   8.392 -0.0566  0.3329 -0.2558
  361loPI   C3A 5769  11.287   2.039   8.187  0.2615  0.1026 -0.1881
  361loPI   C4A 5770  11.256   2.002   7.803  0.1374  0.2135  0.0624
  361loPI   C5A 5771  11.507   1.808   7.556  0.0767  0.0223 -0.3252
  361loPI   C6A 5772  11.708   1.959   7.177 -0.1287 -0.1584  0.3526
  361loPI   C1B 5773  12.571   1.737   8.677  0.0482 -0.3283 -0.3200
  361loPI   C2B 5774  12.767   1.938   8.352 -0.3048  0.3783  0.0258
  361loPI   C3B 5775  12.850   1.895   7.909  0.2907  0.1010 -0.2943
  361loPI   C4B 5776  12.991   1.952   7.435  0.0570 -0.0300 -0.2134
  362loPI    C1 5777   6.307  16.396   9.799  0.2494 -0.0508 -0.0574
  362loPI    C2 5778   6.293  16.081  10.045  0.0684 -0.0390 -0.0515
  362loPI    C3 5779   6.623  16.306  10.027  0.0830 -0.0397  0.1808
  362loPI   PO4 5780   6.220  16.280   9.557 -0.1569 -0.0522  0.2127
  362loPI   GL1 5781   6.192  16.257   9.115 -0.0724  0.0648 -0.3046
  362loPI   GL2 5782   6.377  16.580   9.195 -0.0402 -0.0184  0.2917
  362loPI   C1A 5783   6.145  16.137   8.744  0.0013  0.1418  0.0055
  362loPI   C2A 5784   6.185  16.095   8.263 -0.0205 -0.0268  0.1658
  362loPI   C3A 5785   6.163  16.048   7.828 -0.0179 -0.1753 -0.2621
  362loPI   C4A 5786   6.078  16.026   7.360  0.0096 -0.0561 -0.2687
  362loPI   C5A 5787   5.864  16.069   7.025  0.1032 -0.1324 -0.4460
  362loPI   C6A 5788   5.517  16.125   6.757 -0.0362 -0.1698 -0.1528
  362loPI   C1B 5789   6.675  16.637   8.898  0.2689  0.0612  0.2471
  362loPI   C2B 5790   6.644  16.700   8.413 -0.1592 -0.1527  0.3123
  362loPI   C3B 5791   6.549  16.518   8.064 -0.0038 -0.2641 -0.1675
  362loPI   C4B 5792   6.483  16.465   7.662 -0.0069  0.5401  0.2764
  363loPI    C1 5793  11.898   0.216   9.464 -0.2081  0.0355  0.2546
  363loPI    C2 5794  12.061   0.330   9.811  0.0353  0.0411  0.1408
  363loPI    C3 5795  11.753   0.075   9.809  0.1638 -0.1188  0.3530
  363loPI   PO4 5796  12.105   0.227   9.333  0.0809 -0.0342 -0.3361
  363loPI   GL1 5797  12.334  -0.006   9.084 -0.0434 -0.3918  0.0622
  363loPI   GL2 5798  12.592   0.020   8.756 -0.3036 -0.1638 -0.2517
  363loPI   C1A 5799  12.148  -0.154   8.705  0.0239  0.2583 -0.3424
  363loPI   C2A 5800  12.069  -0.253   8.330 -0.1442 -0.2339  0.0030
  363loPI   C3A 5801  11.973  -0.323   7.824  0.0008  0.1086  0.3738
  363loPI   C4A 5802  12.036  -0.542   7.403 -0.0018 -0.0524 -0.1134
  363loPI   C5A 5803  11.795  -0.455   7.070 -0.0656 -0.0839 -0.1313
  363loPI   C6A 5804  11.498  -0.199   6.834  0.0523  0.2728  0.0504
  363loPI   C1B 5805  12.522  -0.291   8.427  0.1034 -0.2734  0.2982
  363loPI   C2B 5806  12.576  -0.299   8.042 -0.1497 -0.0913 -0.2896
  363loPI   C3B 5807  12.469  -0.426   7.599  0.2469  0.0681 -0.0526
  363loPI   C4B 5808  12.438  -0.531   7.097 -0.0640 -0.0313  0.1274
  364loPI    C1 5809  12.943  18.565   9.827 -0.1749 -0.0952  0.0804
  364loPI    C2 5810  13.324  18.581   9.707 -0.2229 -0.0287 -0.0662
  364loPI    C3 5811  13.136  18.916   9.818 -0.2652 -0.0485 -0.0778
  364loPI   PO4 5812  12.838  18.349   9.583  0.1504  0.2170  0.1311
  364loPI   GL1 5813  12.971  18.291   9.168  0.0337 -0.3029 -0.1986
  364loPI   GL2 5814  13.193  18.407   8.956  0.0080 -0.1372  0.0937
  364loPI   C1A 5815  12.758  18.292   8.757 -0.0765 -0.1484  0.0093
  364loPI   C2A 5816  12.734  18.229   8.282  0.0177 -0.1339 -0.2287
  364loPI   C3A 5817  12.761  18.228   7.876 -0.0400  0.0108  0.3174
  364loPI   C4A 5818  12.730  18.238   7.440 -0.0274 -0.0480  0.2287
  364loPI   C5A 5819  12.473  18.302   7.129  0.1163 -0.0117  0.1431
  364loPI   C6A 5820  12.120  18.349   6.849  0.0009  0.0139  0.2704
  364loPI   C1B 5821  13.081  18.667   8.541 -0.0703  0.1790  0.0334
  364loPI   C2B 5822  13.069  18.550   8.137 -0.0602  0.1098  0.1313
  364loPI   C3B 5823  13.129  18.578   7.652 -0.1433 -0.1668 -0.1696
  364loPI   C4B 5824  13.437  18.632   7.245  0.0265 -0.4052  0.2261
  365loPI    C1 5825  10.265  18.091   9.755 -0.0422 -0.2114  0.0017
  365loPI    C2 5826  10.369  18.046  10.139 -0.0455 -0.0260  0.0254
  365loPI    C3 5827  10.343  17.727   9.900 -0.0264 -0.1406  0.1749
  365loPI   PO4 5828  10.388  18.357   9.648  0.3273 -0.0299 -0.1030
  365loPI   GL1 5829  10.548  18.398   9.197  0.0615  0.0648 -0.0775
  365loPI   GL2 5830  10.608  18.105   9.237 -0.1161  0.2707 -0.1926
  365loPI   C1A 5831  10.234  18.314   8.957  0.2412  0.2009  0.0509
  365loPI   C2A 5832  10.231  18.119   8.557 -0.0560 -0.3630 -0.0711
  365loPI   C3A 5833  10.035  17.992   8.080 -0.1350 -0.2583  0.0393
  365loPI   C4A 5834  10.056  17.887   7.592  0.3663 -0.2231 -0.1245
  365loPI   C5A 5835  10.198  17.773   7.193 -0.0356  0.3290 -0.1648
  365loPI   C6A 5836  10.000  17.906   6.907 -0.1757  0.1190  0.0516
  365loPI   C1B 5837  10.688  18.178   8.801 -0.1152  0.0631 -0.1406
  365loPI   C2B 5838  10.667  18.094   8.236 -0.0809 -0.0793  0.2931
  365loPI   C3B 5839  10.488  18.077   7.839 -0.0260  0.0787  0.1134
  365loPI   C4B 5840  10.555  17.726   7.550  0.1232  0.1670  0.3589
  366loPI    C1 5841  13.869   6.925   9.627  0.1945 -0.2522  0.1264
  366loPI    C2 5842  14.218   7.091   9.523  0.0985 -0.1860 -0.0965
  366loPI    C3 5843  14.151   6.989   9.904  0.0924  0.4530  0.0857
  366loPI   PO4 5844  13.807   6.763   9.453  0.2350  0.0169 -0.0140
  366loPI   GL1 5845  13.815   6.934   8.998  0.1141  0.0588 -0.0331
  366loPI   GL2 5846  13.871   7.262   9.138  0.0492 -0.1498  0.0486
  366loPI   C1A 5847  13.800   6.862   8.470 -0.1180  0.0241 -0.1473
  366loPI   C2A 5848  13.922   6.724   8.066 -0.2666 -0.2190 -0.0944
  366loPI   C3A 5849  14.091   6.651   7.697 -0.1539  0.1304  0.2706
  366loPI   C4A 5850  14.410   6.351   7.616  0.1572  0.0484  0.2223
  366loPI   C5A 5851  14.399   6.170   7.243 -0.1273  0.1994 -0.1519
  366loPI   C6A 5852  14.426   5.912   6.928  0.2468  0.0164  0.1108
  366loPI   C1B 5853  14.058   7.322   8.757 -0.0205  0.0549  0.0721
  366loPI   C2B 5854  14.103   7.251   8.386 -0.2210  0.0850  0.0196
  366loPI   C3B 5855  14.063   7.182   7.887  0.1372  0.0186  0.1469
  366loPI   C4B 5856  13.784   7.031   7.538 -0.0845  0.2246  0.1586
  367loPI    C1 5857   7.779   6.886   9.754  0.0315  0.0641 -0.2346
  367loPI    C2 5858   7.698   7.241   9.920 -0.3304 -0.1648  0.0968
  367loPI    C3 5859   7.435   6.941   9.951 -0.0741 -0.4365 -0.2654
  367loPI   PO4 5860   7.814   6.923   9.546  0.1571 -0.1739 -0.0756
  367loPI   GL1 5861   7.617   6.669   9.226  0.2208  0.1144 -0.0424
  367loPI   GL2 5862   7.551   6.409   9.150  0.1952 -0.1970 -0.1101
  367loPI   C1A 5863   7.548   7.040   9.003  0.1328  0.1634  0.2169
  367loPI   C2A 5864   7.378   7.199   8.598 -0.4135 -0.0071  0.0642
  367loPI   C3A 5865   7.308   7.193   8.167  0.1122  0.1371 -0.2254
  367loPI   C4A 5866   7.311   7.058   7.717 -0.0071  0.1657 -0.1439
  367loPI   C5A 5867   7.637   7.017   7.444  0.1302 -0.1704 -0.2065
  367loPI   C6A 5868   7.808   6.939   7.095  0.3190  0.2237  0.1301
  367loPI   C1B 5869   7.791   6.466   8.807 -0.0583 -0.0002  0.0913
  367loPI   C2B 5870   8.017   6.372   8.416  0.0359  0.1735  0.0712
  367loPI   C3B 5871   7.975   6.412   7.887  0.2358  0.1840  0.4119
  367loPI   C4B 5872   7.758   6.146   7.540  0.3279  0.1924 -0.1889
  368loPI    C1 5873   4.712   3.339   9.745  0.1415 -0.1614  0.0610
  368loPI    C2 5874   4.625   3.598  10.037  0.0801 -0.1596  0.0412
  368loPI    C3 5875   4.386   3.285   9.969 -0.0990  0.0323 -0.2338
  368loPI   PO4 5876   4.842   3.493   9.538 -0.2378  0.0030 -0.1512
  368loPI   GL1 5877   4.720   3.467   9.125 -0.1110 -0.2150 -0.4793
  368loPI   GL2 5878   5.020   3.707   9.036 -0.0727 -0.1438  0.1949
  368loPI   C1A 5879   4.576   3.418   8.670 -0.2001  0.0651  0.2240
  368loPI   C2A 5880   4.509   3.583   8.329  0.0873 -0.2593  0.0712
  368loPI   C3A 5881   4.585   3.694   7.843 -0.0472  0.4480 -0.4117
  368loPI   C4A 5882   4.643   3.787   7.401  0.2863 -0.2254  0.0204
  368loPI   C5A 5883   4.309   3.885   7.184  0.1473 -0.2441 -0.0117
  368loPI   C6A 5884   3.891   4.057   7.226  0.0427  0.3320 -0.0180
  368loPI   C1B 5885   4.942   3.800   8.592 -0.2021  0.0794  0.3960
  368loPI   C2B 5886   5.090   3.742   8.095  0.0382 -0.0200  0.0366
  368loPI   C3B 5887   5.246   3.881   7.696 -0.1905  0.0895  0.1709
  368loPI   C4B 5888   5.067   4.192   7.544  0.1322 -0.2331 -0.2770
  369loPI    C1 5889   8.846  15.320   9.507  0.1448  0.0255  0.0216
  369loPI    C2 5890   8.810  15.399   9.897 -0.0055 -0.1586  0.0461
  369loPI    C3 5891   8.495  15.441   9.654  0.0712 -0.1056 -0.0447
  369loPI   PO4 5892   9.125  15.295   9.461 -0.2347  0.1765  0.0886
  369loPI   GL1 5893   9.159  15.484   9.000 -0.0003 -0.1572  0.0509
  369loPI   GL2 5894   8.990  15.135   8.988 -0.5357 -0.3354  0.1999
  369loPI   C1A 5895   9.090  15.627   8.564 -0.2459 -0.1881 -0.3675
  369loPI   C2A 5896   8.893  15.987   8.306  0.2399 -0.2136 -0.0587
  369loPI   C3A 5897   8.606  16.101   8.037  0.0351 -0.1302  0.0144
  369loPI   C4A 5898   8.681  16.161   7.655 -0.0016  0.1733  0.0599
  369loPI   C5A 5899   8.562  16.344   7.243  0.1809 -0.4282 -0.3343
  369loPI   C6A 5900   8.406  16.610   6.832  0.1832 -0.1486 -0.1168
  369loPI   C1B 5901   8.898  15.116   8.611 -0.1348  0.0205 -0.2315
  369loPI   C2B 5902   9.096  15.297   8.248  0.2528  0.0325  0.1223
  369loPI   C3B 5903   9.184  15.691   7.945 -0.2097 -0.3466  0.1048
  369loPI   C4B 5904   9.137  16.175   7.787 -0.1295 -0.0042 -0.1939
  370loPI    C1 5905  17.352  10.684   9.657 -0.0116 -0.0024 -0.0593
  370loPI    C2 5906  17.481  10.461   9.963  0.0404  0.1231  0.0108
  370loPI    C3 5907  17.094  10.458   9.863  0.0551 -0.0669 -0.0458
  370loPI   PO4 5908  17.496  10.650   9.414  0.2133  0.2556  0.1055
  370loPI   GL1 5909  17.555  10.449   8.980 -0.1231 -0.0710 -0.0957
  370loPI   GL2 5910  17.541  10.119   8.990  0.3590  0.0474 -0.0213
  370loPI   C1A 5911  17.263  10.395   8.604  0.3001  0.2742  0.0098
  370loPI   C2A 5912  17.148  10.239   8.099 -0.0018 -0.0267 -0.0627
  370loPI   C3A 5913  17.166  10.470   7.793  0.0958 -0.0575 -0.0209
  370loPI   C4A 5914  17.454  10.690   7.644  0.2357 -0.1236 -0.3330
  370loPI   C5A 5915  17.502  11.119   7.357  0.2179 -0.2038 -0.1290
  370loPI   C6A 5916  17.450  11.571   7.277  0.0605 -0.1202 -0.0814
  370loPI   C1B 5917  17.725  10.106   8.650 -0.4000  0.0071 -0.2423
  370loPI   C2B 5918  17.660  10.082   8.143  0.1581 -0.0699  0.1882
  370loPI   C3B 5919  17.559  10.087   7.743 -0.1105 -0.0008  0.3454
  370loPI   C4B 5920  17.370  10.250   7.400 -0.0303 -0.1427  0.0094
  371loPI    C1 5921  11.013  19.233   9.840 -0.0941 -0.1619  0.1291
  371loPI    C2 5922  11.190  19.585   9.906 -0.2845 -0.0408  0.0051
  371loPI    C3 5923  11.330  19.254  10.083 -0.0252  0.0749  0.0212
  371loPI   PO4 5924  10.987  19.183   9.521 -0.1760  0.2763  0.1135
  371loPI   GL1 5925  11.051  19.422   9.137  0.0297  0.0423 -0.1478
  371loPI   GL2 5926  11.274  19.644   8.963  0.1029  0.0054 -0.1105
  371loPI   C1A 5927  11.229  19.156   8.941 -0.1156  0.1153  0.0719
  371loPI   C2A 5928  11.242  19.067   8.437 -0.0920 -0.0288  0.2151
  371loPI   C3A 5929  11.110  19.192   8.064  0.2819  0.0688 -0.1404
  371loPI   C4A 5930  11.015  19.371   7.707 -0.1728  0.4679 -0.0278
  371loPI   C5A 5931  10.798  19.201   7.315 -0.0667 -0.0096 -0.1523
  371loPI   C6A 5932  10.436  19.244   7.121 -0.2083 -0.2456  0.1165
  371loPI   C1B 5933  11.016  19.547   8.630  0.1689  0.1953  0.3666
  371loPI   C2B 5934  10.919  19.627   8.240 -0.1122  0.0538  0.3563
  371loPI   C3B 5935  10.911  19.845   7.906 -0.0955  0.3228  0.0995
  371loPI   C4B 5936  10.973  20.219   7.757 -0.0771  0.2102  0.2674
  372loPI    C1 5937  -0.093  15.168   9.769  0.0884  0.1482  0.1235
  372loPI    C2 5938   0.122  15.133   9.434 -0.0846  0.0876  0.0178
  372loPI    C3 5939   0.169  14.868   9.730  0.0488  0.1256  0.0312
  372loPI   PO4 5940  -0.377  15.166   9.580  0.1295 -0.1151  0.1611
  372loPI   GL1 5941  -0.376  15.206   9.128 -0.0161 -0.0069 -0.0507
  372loPI   GL2 5942  -0.601  15.232   8.992 -0.0352  0.0333 -0.0487
  372loPI   C1A 5943  -0.076  15.320   8.763 -0.0263  0.3983 -0.0096
  372loPI   C2A 5944   0.342  15.438   8.535 -0.1852  0.2415 -0.3392
  372loPI   C3A 5945   0.631  15.348   8.275 -0.0586  0.0926 -0.0506
  372loPI   C4A 5946   0.902  15.333   7.949 -0.1231 -0.0972 -0.0523
  372loPI   C5A 5947   1.112  15.458   7.631  0.0510 -0.0820  0.1114
  372loPI   C6A 5948   1.378  15.570   7.219 -0.1084  0.2308 -0.1860
  372loPI   C1B 5949  -0.511  15.069   8.666 -0.1159  0.2068 -0.1281
  372loPI   C2B 5950  -0.312  14.707   8.502  0.0524  0.0400  0.1048
  372loPI   C3B 5951  -0.036  14.455   8.464 -0.2211  0.1306 -0.0304
  372loPI   C4B 5952   0.034  14.039   8.663 -0.3286  0.1717  0.4754
  373loPI    C1 5953   3.195   6.074   9.952 -0.0650 -0.1671 -0.0932
  373loPI    C2 5954   2.832   5.998  10.102 -0.0980 -0.0566 -0.1165
  373loPI    C3 5955   2.925   6.368   9.980 -0.0541 -0.1333 -0.3203
  373loPI   PO4 5956   3.263   6.002   9.782  0.3899 -0.4536  0.0734
  373loPI   GL1 5957   3.292   5.606   9.417 -0.0477 -0.1520  0.0147
  373loPI   GL2 5958   3.157   5.809   9.218 -0.0805  0.1843 -0.0985
  373loPI   C1A 5959   3.410   5.399   8.997  0.3442 -0.1773  0.1224
  373loPI   C2A 5960   3.470   5.302   8.612 -0.0736 -0.1690  0.2851
  373loPI   C3A 5961   3.784   5.162   8.191  0.0085 -0.0760 -0.2308
  373loPI   C4A 5962   4.074   5.112   7.787  0.1099 -0.0555 -0.0473
  373loPI   C5A 5963   4.102   4.854   7.393  0.2392 -0.0480  0.0086
  373loPI   C6A 5964   4.456   4.967   7.205  0.0277 -0.1375  0.3072
  373loPI   C1B 5965   3.054   6.149   8.975  0.3834 -0.2298 -0.1413
  373loPI   C2B 5966   3.226   6.603   8.942  0.1396 -0.1760 -0.0342
  373loPI   C3B 5967   3.410   6.755   8.534 -0.0524 -0.2048 -0.0238
  373loPI   C4B 5968   3.544   7.042   8.210 -0.1098  0.1049 -0.2860
  374loPI    C1 5969  17.414  20.003   9.726 -0.0664  0.0966  0.0845
  374loPI    C2 5970  17.586  19.654   9.820  0.1598  0.1696 -0.0493
  374loPI    C3 5971  17.191  19.672   9.756  0.1176 -0.0235  0.1445
  374loPI   PO4 5972  17.525  20.052   9.509 -0.2130  0.1133 -0.4282
  374loPI   GL1 5973  17.716  19.843   9.137  0.0904 -0.4743  0.0285
  374loPI   GL2 5974  17.437  20.066   8.948 -0.1808  0.2044  0.0265
  374loPI   C1A 5975  17.964  20.059   8.836  0.0666  0.1592  0.1966
  374loPI   C2A 5976  18.089  20.086   8.384  0.1789  0.2132  0.2299
  374loPI   C3A 5977  18.063  20.028   7.949  0.1126 -0.0486 -0.3646
  374loPI   C4A 5978  17.767  19.789   7.634  0.0209 -0.1608  0.1383
  374loPI   C5A 5979  17.784  19.706   7.239 -0.4525  0.2802  0.0652
  374loPI   C6A 5980  17.441  19.746   6.889 -0.1253  0.2011 -0.1186
  374loPI   C1B 5981  17.535  20.262   8.545  0.1425  0.1214 -0.6670
  374loPI   C2B 5982  17.320  20.640   8.396 -0.2501  0.1021  0.0723
  374loPI   C3B 5983  17.288  21.093   8.211 -0.3091  0.0402 -0.0285
  374loPI   C4B 5984  17.233  21.510   8.034  0.2325 -0.0430 -0.1153
  375loPI    C1 5985   5.541   9.965   9.850 -0.1077 -0.0037 -0.1434
  375loPI    C2 5986   5.607   9.731  10.167  0.4700 -0.1372 -0.3499
  375loPI    C3 5987   5.565  10.125  10.216  0.1471 -0.2007 -0.0709
  375loPI   PO4 5988   5.657   9.911   9.605 -0.1732  0.1428  0.0294
  375loPI   GL1 5989   5.573   9.713   9.340  0.1860 -0.3153 -0.0858
  375loPI   GL2 5990   5.572   9.426   9.122 -0.2832 -0.1736  0.0582
  375loPI   C1A 5991   5.199   9.746   9.051 -0.1571 -0.3279 -0.1516
  375loPI   C2A 5992   5.092   9.771   8.583 -0.4951 -0.2298 -0.0947
  375loPI   C3A 5993   5.053  10.093   8.326 -0.0340 -0.0297  0.3561
  375loPI   C4A 5994   5.006  10.152   7.908 -0.1107 -0.3812 -0.1058
  375loPI   C5A 5995   4.939  10.176   7.388  0.1023  0.2120  0.1412
  375loPI   C6A 5996   5.350  10.391   7.085  0.0145  0.0268 -0.2204
  375loPI   C1B 5997   5.767   9.297   8.739  0.0676  0.1435  0.0207
  375loPI   C2B 5998   5.848   9.233   8.279  0.0908  0.4993  0.0308
  375loPI   C3B 5999   5.616   9.134   7.871  0.6406 -0.2436 -0.1681
  375loPI   C4B 6000   5.427   8.847   7.575 -0.0989  0.0201 -0.0628
  376loPI    C1 6001   6.126   1.801   9.873 -0.0843  0.2851 -0.1483
  376loPI    C2 6002   5.879   1.512   9.748 -0.0073  0.1746 -0.0466
  376loPI    C3 6003   5.888   1.614  10.134 -0.0449  0.3237 -0.0847
  376loPI   PO4 6004   6.073   2.026   9.633  0.3116 -0.0650 -0.0678
  376loPI   GL1 6005   5.955   2.152   9.168 -0.0041 -0.3263  0.1644
  376loPI   GL2 6006   6.202   2.139   8.960  0.3447 -0.1880  0.1561
  376loPI   C1A 6007   5.723   2.154   8.722  0.0402  0.0774  0.0741
  376loPI   C2A 6008   5.819   2.208   8.414  0.1374 -0.0888 -0.0638
  376loPI   C3A 6009   5.786   2.104   7.929 -0.2008 -0.1114  0.1328
  376loPI   C4A 6010   5.726   2.174   7.515  0.2021  0.1909 -0.2395
  376loPI   C5A 6011   5.664   2.340   7.124  0.3046  0.1431 -0.0372
  376loPI   C6A 6012   5.902   2.298   6.792 -0.0364  0.1067  0.1177
  376loPI   C1B 6013   6.344   2.134   8.510 -0.0240  0.0989 -0.0128
  376loPI   C2B 6014   6.549   1.998   8.078 -0.1141  0.0355 -0.0290
  376loPI   C3B 6015   6.692   2.238   7.770 -0.0746  0.0129 -0.0334
  376loPI   C4B 6016   6.654   2.321   7.349  0.0684  0.0408 -0.0493
  377loPI    C1 6017  12.854  15.474   9.877 -0.1389 -0.0261 -0.0274
  377loPI    C2 6018  12.492  15.339   9.977 -0.0294 -0.3001  0.0075
  377loPI    C3 6019  12.818  15.185  10.150  0.0898  0.1790  0.2260
  377loPI   PO4 6020  12.871  15.402   9.566  0.2328 -0.1494  0.2337
  377loPI   GL1 6021  12.716  15.594   9.128 -0.0350  0.4748 -0.0451
  377loPI   GL2 6022  12.549  15.354   9.124  0.0161 -0.3688  0.3992
  377loPI   C1A 6023  12.838  15.902   8.751  0.0240 -0.1584  0.1202
  377loPI   C2A 6024  12.747  16.198   8.433 -0.2675 -0.3185  0.1162
  377loPI   C3A 6025  12.813  16.191   8.028 -0.0029  0.0394 -0.1485
  377loPI   C4A 6026  12.749  16.464   7.588  0.1317 -0.0034  0.0140
  377loPI   C5A 6027  12.709  16.576   7.182  0.1693  0.1604 -0.0740
  377loPI   C6A 6028  12.369  16.433   6.913  0.4331  0.0067  0.0744
  377loPI   C1B 6029  12.723  15.373   8.670  0.1549  0.1122  0.2767
  377loPI   C2B 6030  12.670  15.330   8.218 -0.0693  0.0383 -0.1753
  377loPI   C3B 6031  12.769  15.204   7.827  0.1855  0.0486 -0.0995
  377loPI   C4B 6032  12.698  15.218   7.517  0.0611 -0.0883  0.2395
  378loPI    C1 6033   5.075  14.908   9.852  0.0304 -0.0360  0.0559
  378loPI    C2 6034   5.216  14.948  10.224 -0.0706  0.0955  0.0804
  378loPI    C3 6035   4.822  14.914  10.162 -0.0404 -0.1249  0.0004
  378loPI   PO4 6036   5.246  15.128   9.740 -0.2504  0.3698 -0.3800
  378loPI   GL1 6037   5.365  15.379   9.483 -0.0015 -0.2753  0.1426
  378loPI   GL2 6038   5.684  15.353   9.486 -0.0392 -0.2081  0.1947
  378loPI   C1A 6039   5.118  15.443   9.174  0.0769  0.0573  0.3151
  378loPI   C2A 6040   4.768  15.387   8.958  0.1218  0.1476  0.0239
  378loPI   C3A 6041   4.704  15.109   8.630 -0.0052  0.0530 -0.2777
  378loPI   C4A 6042   4.637  15.125   8.164 -0.0154  0.1338 -0.0570
  378loPI   C5A 6043   4.719  15.140   7.662 -0.1024  0.1064  0.0798
  378loPI   C6A 6044   5.008  14.978   7.381  0.1701 -0.0699 -0.2504
  378loPI   C1B 6045   5.659  15.540   9.038 -0.1863  0.0092  0.1493
  378loPI   C2B 6046   5.842  15.356   8.607 -0.3131 -0.1629  0.0109
  378loPI   C3B 6047   6.026  15.112   8.237 -0.1235 -0.2452 -0.0403
  378loPI   C4B 6048   5.964  15.035   7.765  0.0942  0.1870 -0.1393
  379loPI    C1 6049  11.908  12.904   9.879  0.1172  0.0067 -0.0331
  379loPI    C2 6050  12.104  13.102  10.166 -0.1464  0.0759  0.1024
  379loPI    C3 6051  12.145  12.705  10.132  0.0606  0.0973  0.0924
  379loPI   PO4 6052  12.012  12.885   9.646  0.2497  0.0236 -0.1666
  379loPI   GL1 6053  12.386  13.002   9.341 -0.1180 -0.1149  0.0899
  379loPI   GL2 6054  12.612  13.034   9.089 -0.1374 -0.0086 -0.1974
  379loPI   C1A 6055  12.093  12.957   8.992 -0.4196 -0.0697 -0.2870
  379loPI   C2A 6056  12.065  13.136   8.544 -0.0816  0.0560  0.0823
  379loPI   C3A 6057  12.100  13.479   8.285  0.3845  0.0572 -0.0621
  379loPI   C4A 6058  11.821  13.636   7.847  0.1358 -0.1314  0.1203
  379loPI   C5A 6059  11.513  13.898   7.761 -0.0894 -0.1188  0.2099
  379loPI   C6A 6060  11.309  14.030   7.439  0.0199 -0.1363 -0.0633
  379loPI   C1B 6061  12.604  12.946   8.667 -0.2026  0.3374  0.2025
  379loPI   C2B 6062  12.482  13.112   8.272 -0.1434  0.3009  0.2269
  379loPI   C3B 6063  12.437  13.318   7.937  0.1502 -0.4996  0.0867
  379loPI   C4B 6064  12.651  13.563   7.631 -0.1158  0.0896 -0.1155
  380loPI    C1 6065   9.216  12.874   9.831 -0.1553  0.0944  0.0883
  380loPI    C2 6066   9.310  12.488   9.874 -0.2763  0.0408 -0.1173
  380loPI    C3 6067   9.304  12.728  10.193  0.0945 -0.0583 -0.0309
  380loPI   PO4 6068   9.002  12.887   9.618  0.2274  0.0593 -0.3148
  380loPI   GL1 6069   9.067  12.965   9.250  0.1483  0.0636 -0.1587
  380loPI   GL2 6070   9.032  13.305   9.130  0.1450  0.0637  0.2764
  380loPI   C1A 6071   9.058  12.668   8.935  0.1421 -0.2939 -0.0516
  380loPI   C2A 6072   9.236  12.576   8.490  0.2650 -0.1272  0.0061
  380loPI   C3A 6073   9.310  12.525   8.072 -0.3928  0.4407  0.1738
  380loPI   C4A 6074   9.246  12.224   7.718  0.0616  0.1012 -0.2546
  380loPI   C5A 6075   9.498  12.175   7.346 -0.0551 -0.2598 -0.0960
  380loPI   C6A 6076   9.542  12.025   6.913 -0.2308 -0.3694  0.1403
  380loPI   C1B 6077   9.175  13.342   8.840  0.2190  0.1437 -0.1686
  380loPI   C2B 6078   9.171  13.439   8.341  0.0762 -0.0789  0.3561
  380loPI   C3B 6079   9.309  13.492   7.902 -0.0419 -0.1418  0.2636
  380loPI   C4B 6080   9.155  13.704   7.527  0.0145 -0.0591 -0.1649
  381loPI    C1 6081   2.454   9.938  10.274  0.0905  0.1456  0.0015
  381loPI    C2 6082   2.735   9.656  10.315 -0.0253  0.0403  0.0818
  381loPI    C3 6083   2.801  10.026  10.453  0.0626  0.0090  0.1249
  381loPI   PO4 6084   2.371   9.886   9.869  0.1216  0.2768  0.0863
  381loPI   GL1 6085   2.511   9.750   9.487  0.1328  0.1735  0.1673
  381loPI   GL2 6086   2.192   9.826   9.343  0.0988 -0.1140  0.2171
  381loPI   C1A 6087   2.628   9.736   9.009 -0.1143 -0.1964 -0.2670
  381loPI   C2A 6088   2.608   9.722   8.533 -0.0096 -0.0627  0.0195
  381loPI   C3A 6089   2.591   9.963   8.142  0.1314  0.3476 -0.1411
  381loPI   C4A 6090   2.631   9.969   7.644  0.1167 -0.1296 -0.1842
  381loPI   C5A 6091   2.213  10.011   7.323  0.0817 -0.3448  0.0085
  381loPI   C6A 6092   1.774   9.904   7.077  0.0622 -0.0049  0.0370
  381loPI   C1B 6093   2.176   9.895   8.868  0.0784 -0.0999  0.3312
  381loPI   C2B 6094   2.092   9.896   8.389 -0.1979  0.1848  0.1133
  381loPI   C3B 6095   1.833   9.578   8.016 -0.1525 -0.3281  0.0315
  381loPI   C4B 6096   1.876   9.670   7.554  0.1420 -0.1085  0.0224
  382loPI    C1 6097  15.418  13.427   9.674 -0.0600 -0.1720  0.1098
  382loPI    C2 6098  15.703  13.320   9.934  0.1469 -0.0890 -0.0799
  382loPI    C3 6099  15.550  13.690   9.945  0.0957 -0.1118 -0.0226
  382loPI   PO4 6100  15.458  13.340   9.478 -0.1487  0.3907  0.0601
  382loPI   GL1 6101  15.352  13.287   9.124 -0.0609 -0.0193 -0.0158
  382loPI   GL2 6102  15.581  13.677   9.038  0.1935  0.2549 -0.0331
  382loPI   C1A 6103  15.353  13.040   8.780 -0.0473  0.1598 -0.0053
  382loPI   C2A 6104  15.103  12.994   8.414 -0.4028 -0.1065 -0.2381
  382loPI   C3A 6105  15.035  13.017   7.944  0.2132 -0.2579 -0.2142
  382loPI   C4A 6106  15.215  13.211   7.648 -0.0025 -0.2679 -0.1257
  382loPI   C5A 6107  15.586  13.255   7.404  0.4890 -0.2149 -0.0648
  382loPI   C6A 6108  15.829  13.401   6.973 -0.0072 -0.3481 -0.0470
  382loPI   C1B 6109  15.386  13.513   8.669  0.0920  0.1453  0.0971
  382loPI   C2B 6110  15.143  13.488   8.229 -0.0229  0.2204 -0.1670
  382loPI   C3B 6111  15.054  13.629   7.842 -0.1242 -0.2439  0.2794
  382loPI   C4B 6112  15.176  13.797   7.379 -0.0663 -0.0678  0.3596
  383loPI    C1 6113   2.607   6.803  10.385 -0.1486  0.0461 -0.0577
  383loPI    C2 6114   2.290   7.009  10.515 -0.1274 -0.0485  0.1469
  383loPI    C3 6115   2.549   6.853  10.777  0.3146  0.3757 -0.0230
  383loPI   PO4 6116   2.557   6.650  10.236 -0.0876  0.0677  0.1493
  383loPI   GL1 6117   2.613   6.633   9.700 -0.2715 -0.2478 -0.0134
  383loPI   GL2 6118   2.358   6.629   9.562  0.3816  0.1514 -0.2310
  383loPI   C1A 6119   2.805   6.698   9.244  0.0325  0.0546  0.0253
  383loPI   C2A 6120   2.725   6.659   8.813 -0.0698  0.3665  0.1231
  383loPI   C3A 6121   2.994   6.370   8.514 -0.1005 -0.0114  0.0185
  383loPI   C4A 6122   2.897   6.085   8.169  0.1129  0.0050 -0.0798
  383loPI   C5A 6123   2.931   6.103   7.734  0.1384  0.1839 -0.3304
  383loPI   C6A 6124   3.131   6.419   7.591 -0.0086 -0.1429 -0.1139
  383loPI   C1B 6125   2.291   6.727   9.179  0.0166  0.0987 -0.0352
  383loPI   C2B 6126   2.330   6.917   8.859 -0.0939 -0.1998 -0.3525
  383loPI   C3B 6127   2.530   6.980   8.411  0.3146  0.1100 -0.0287
  383loPI   C4B 6128   2.616   7.124   8.037  0.1408 -0.0561 -0.0288
  384loPI    C1 6129  16.031   0.270   9.593 -0.0583 -0.0964  0.0089
  384loPI    C2 6130  16.026   0.591   9.354  0.0090 -0.1348 -0.0443
  384loPI    C3 6131  16.125   0.630   9.740 -0.4913 -0.0065  0.0775
  384loPI   PO4 6132  16.169   0.095   9.361 -0.2548  0.0436 -0.0781
  384loPI   GL1 6133  16.362   0.034   9.025 -0.0206 -0.1496  0.0127
  384loPI   GL2 6134  16.207   0.312   8.875  0.1177  0.0048 -0.1244
  384loPI   C1A 6135  16.568   0.194   8.575  0.3081  0.1723 -0.0061
  384loPI   C2A 6136  16.718   0.068   8.161 -0.0682 -0.0975 -0.2206
  384loPI   C3A 6137  16.791  -0.006   7.726 -0.1895  0.1163 -0.0040
  384loPI   C4A 6138  17.047  -0.260   7.443 -0.3909  0.1956  0.1772
  384loPI   C5A 6139  17.273  -0.413   7.127 -0.3064  0.0367 -0.3779
  384loPI   C6A 6140  17.671  -0.494   6.846 -0.1493 -0.0905 -0.1119
  384loPI   C1B 6141  16.024   0.239   8.501  0.0614 -0.1370 -0.0282
  384loPI   C2B 6142  16.274   0.256   8.105  0.1377 -0.1905 -0.2915
  384loPI   C3B 6143  16.385   0.246   7.633 -0.4085 -0.0247  0.4668
  384loPI   C4B 6144  16.564   0.258   7.316 -0.2468 -0.2057 -0.0537
  385loPI    C1 6145   8.114  17.306   9.862  0.1571 -0.0264  0.3289
  385loPI    C2 6146   8.161  16.910   9.890 -0.2149 -0.1014 -0.0066
  385loPI    C3 6147   8.036  17.120  10.207 -0.3186 -0.2984  0.0849
  385loPI   PO4 6148   8.061  17.277   9.536  0.1145 -0.1451  0.0733
  385loPI   GL1 6149   7.786  17.231   9.194  0.0702  0.0343 -0.2935
  385loPI   GL2 6150   7.854  17.000   8.939  0.2004 -0.0232 -0.1794
  385loPI   C1A 6151   7.927  17.511   8.916  0.3091 -0.0051 -0.0542
  385loPI   C2A 6152   7.856  17.699   8.448 -0.0765  0.3221 -0.2424
  385loPI   C3A 6153   8.079  17.843   8.082 -0.0313 -0.1125 -0.3118
  385loPI   C4A 6154   8.437  18.029   8.036 -0.1344 -0.0409 -0.1179
  385loPI   C5A 6155   8.676  18.049   7.526 -0.1123  0.0337  0.1171
  385loPI   C6A 6156   8.959  17.948   7.187  0.1143  0.1579  0.2202
  385loPI   C1B 6157   7.903  17.119   8.520 -0.1149 -0.1002  0.0593
  385loPI   C2B 6158   8.073  17.196   8.100 -0.2380 -0.2530  0.1755
  385loPI   C3B 6159   8.167  17.209   7.639  0.1190  0.1259 -0.0982
  385loPI   C4B 6160   8.421  17.302   7.290 -0.0263 -0.0350  0.0909
  386loPI    C1 6161   2.812  16.381   9.247  0.2156  0.1572  0.1547
  386loPI    C2 6162   2.763  16.152   9.571 -0.0103  0.1321  0.1045
  386loPI    C3 6163   2.609  16.037   9.220  0.0625  0.2554  0.0315
  386loPI   PO4 6164   3.122  16.508   9.285 -0.0225  0.0583 -0.1528
  386loPI   GL1 6165   3.476  16.597   9.002 -0.1137  0.0767 -0.1442
  386loPI   GL2 6166   3.253  16.722   8.806 -0.1504 -0.0890 -0.1127
  386loPI   C1A 6167   3.585  16.297   8.663 -0.0034 -0.0545 -0.0354
  386loPI   C2A 6168   3.607  16.155   8.280 -0.0342  0.1404  0.1680
  386loPI   C3A 6169   3.905  15.655   8.324  0.1368 -0.1958  0.3790
  386loPI   C4A 6170   3.882  15.368   8.005 -0.1267 -0.2010 -0.1650
  386loPI   C5A 6171   3.944  15.090   7.638 -0.0935  0.1275 -0.1192
  386loPI   C6A 6172   3.915  14.728   7.286 -0.0088  0.3516 -0.1866
  386loPI   C1B 6173   3.075  16.375   8.577  0.2009 -0.0038 -0.0256
  386loPI   C2B 6174   2.902  16.243   8.116  0.2016  0.1895 -0.2135
  386loPI   C3B 6175   2.886  16.126   7.698  0.0844 -0.2276 -0.1228
  386loPI   C4B 6176   2.964  16.277   7.172  0.3912 -0.3150  0.2590
  387loPI    C1 6177   5.472   8.673  10.259 -0.0014 -0.0463  0.0730
  387loPI    C2 6178   5.430   8.548  10.637  0.1182 -0.0933  0.0710
  387loPI    C3 6179   5.641   8.879  10.557  0.0801 -0.0748  0.0466
  387loPI   PO4 6180   5.289   8.544  10.145  0.1959 -0.0890 -0.0624
  387loPI   GL1 6181   5.030   8.476   9.694 -0.0896  0.0723 -0.0336
  387loPI   GL2 6182   5.126   8.180   9.812 -0.3536  0.1995 -0.5262
  387loPI   C1A 6183   5.110   8.353   9.313 -0.1258  0.0372  0.1093
  387loPI   C2A 6184   5.392   8.308   9.017 -0.3771  0.2015 -0.5168
  387loPI   C3A 6185   5.361   8.440   8.695  0.3590 -0.0790 -0.1148
  387loPI   C4A 6186   5.194   8.416   8.254 -0.0449 -0.0318  0.0783
  387loPI   C5A 6187   5.014   8.522   7.803  0.0699  0.0900  0.2085
  387loPI   C6A 6188   5.010   8.521   7.431 -0.0707  0.1722 -0.2793
  387loPI   C1B 6189   4.938   7.882   9.444  0.2123 -0.5298 -0.2690
  387loPI   C2B 6190   5.124   7.682   9.120  0.3750 -0.1288 -0.2161
  387loPI   C3B 6191   5.002   7.537   8.700  0.1815 -0.1416 -0.1635
  387loPI   C4B 6192   5.106   7.554   8.311  0.1287 -0.0001  0.0138
  388loPI    C1 6193  15.871  16.599   9.680  0.0493 -0.0374  0.2271
  388loPI    C2 6194  15.871  16.264   9.460 -0.1198 -0.0089  0.1818
  388loPI    C3 6195  16.009  16.257   9.835  0.0996 -0.0747  0.1015
  388loPI   PO4 6196  15.947  16.737   9.526  0.0750 -0.2963  0.0807
  388loPI   GL1 6197  16.161  16.677   9.144 -0.1808  0.0191  0.0792
  388loPI   GL2 6198  16.323  16.319   9.013  0.0518  0.1932 -0.2032
  388loPI   C1A 6199  16.101  16.708   8.656  0.0162 -0.1633  0.1342
  388loPI   C2A 6200  16.159  16.583   8.222 -0.2400 -0.1490  0.0118
  388loPI   C3A 6201  16.069  16.678   7.813 -0.2287 -0.0636  0.3396
  388loPI   C4A 6202  15.791  16.860   7.360 -0.0436  0.0246 -0.0425
  388loPI   C5A 6203  15.691  17.184   7.082  0.2229  0.0684 -0.1696
  388loPI   C6A 6204  15.573  17.610   7.256  0.1921  0.4598  0.3042
  388loPI   C1B 6205  16.396  16.278   8.579  0.0579  0.4343 -0.0085
  388loPI   C2B 6206  16.671  16.037   8.365 -0.0251  0.0134  0.0349
  388loPI   C3B 6207  16.576  15.725   8.016 -0.3400 -0.0547 -0.0494
  388loPI   C4B 6208  16.842  15.600   7.738 -0.3897  0.2345 -0.2303
  389loPI    C1 6209   0.919  12.125   9.990 -0.1252  0.0838 -0.1325
  389loPI    C2 6210   0.584  12.291  10.131  0.0201  0.0336  0.2867
  389loPI    C3 6211   0.658  11.904  10.197  0.1108  0.0179  0.0996
  389loPI   PO4 6212   1.023  12.279   9.760 -0.1011 -0.1582  0.3145
  389loPI   GL1 6213   1.384  12.231   9.445  0.1338  0.4169  0.0846
  389loPI   GL2 6214   1.122  11.950   9.340 -0.2290  0.2076 -0.0434
  389loPI   C1A 6215   1.540  12.140   9.060  0.0776  0.0570 -0.5025
  389loPI   C2A 6216   1.577  12.212   8.756 -0.0009  0.1041 -0.1305
  389loPI   C3A 6217   1.712  12.537   8.379 -0.3393  0.3065  0.0100
  389loPI   C4A 6218   1.755  12.753   8.007  0.0353 -0.0982  0.2903
  389loPI   C5A 6219   2.043  12.950   7.790 -0.1340 -0.1423 -0.0974
  389loPI   C6A 6220   2.376  13.107   7.588 -0.2299 -0.1862 -0.1391
  389loPI   C1B 6221   1.076  12.094   8.854 -0.0650 -0.2950  0.0800
  389loPI   C2B 6222   0.794  12.066   8.394 -0.0083  0.1373 -0.1297
  389loPI   C3B 6223   0.435  12.138   8.112 -0.0154 -0.0721 -0.3013
  389loPI   C4B 6224   0.262  12.260   7.722 -0.0284  0.1766 -0.2475
  390loPI    C1 6225   5.178  11.445  10.139  0.0673  0.1926  0.1922
  390loPI    C2 6226   5.078  11.058  10.136  0.1772  0.1646  0.0528
  390loPI    C3 6227   4.926  11.301  10.415 -0.0183  0.0550  0.0440
  390loPI   PO4 6228   5.232  11.450   9.857  0.0244 -0.3950  0.1987
  390loPI   GL1 6229   5.118  11.736   9.587 -0.0413 -0.0762  0.1170
  390loPI   GL2 6230   4.931  12.010   9.512  0.0578 -0.1726  0.0388
  390loPI   C1A 6231   5.117  11.612   9.187  0.0347  0.3807  0.0637
  390loPI   C2A 6232   5.017  11.473   8.769 -0.2710 -0.2591  0.0803
  390loPI   C3A 6233   5.097  11.021   8.501  0.3519  0.1132 -0.1093
  390loPI   C4A 6234   4.969  10.946   8.106 -0.4200 -0.0300 -0.0679
  390loPI   C5A 6235   4.904  10.807   7.714 -0.0388 -0.3487  0.3537
  390loPI   C6A 6236   4.614  10.633   7.320  0.0718 -0.1460  0.1236
  390loPI   C1B 6237   4.854  12.213   9.083  0.1876  0.2276 -0.0527
  390loPI   C2B 6238   4.802  12.317   8.609 -0.2157  0.1472 -0.0370
  390loPI   C3B 6239   4.888  12.026   8.273 -0.0566  0.0799 -0.1345
  390loPI   C4B 6240   4.894  11.915   7.804 -0.0357  0.0553 -0.1001
  391loPI    C1 6241  16.335  15.909   9.596 -0.0032  0.1714  0.0320
  391loPI    C2 6242  16.489  15.570   9.742 -0.0185  0.0955 -0.1250
  391loPI    C3 6243  16.465  15.895   9.974  0.0680  0.0121  0.0027
  391loPI   PO4 6244  16.356  15.906   9.336 -0.3633 -0.3607  0.1453
  391loPI   GL1 6245  16.180  15.756   8.993 -0.1506  0.0902  0.1904
  391loPI   GL2 6246  15.940  15.943   9.047  0.0444 -0.0727 -0.2025
  391loPI   C1A 6247  15.919  15.506   8.652  0.1741  0.0162 -0.1750
  391loPI   C2A 6248  15.804  15.083   8.505  0.2986 -0.2156  0.2008
  391loPI   C3A 6249  15.824  14.955   8.059 -0.0834 -0.3461 -0.1407
  391loPI   C4A 6250  15.886  15.113   7.678 -0.1421  0.0238 -0.2935
  391loPI   C5A 6251  15.885  15.523   7.415 -0.0735  0.1156 -0.0240
  391loPI   C6A 6252  16.197  15.745   7.274 -0.0366 -0.0310  0.2544
  391loPI   C1B 6253  15.893  16.237   8.701  0.2308  0.3719  0.1116
  391loPI   C2B 6254  15.718  16.377   8.309 -0.0200  0.2971 -0.1716
  391loPI   C3B 6255  15.688  16.377   7.916 -0.2790 -0.0189  0.2844
  391loPI   C4B 6256  15.678  16.355   7.531 -0.2423 -0.1244  0.0194
  392loPI    C1 6257   7.921   8.314  10.227  0.0875 -0.0675 -0.2045
  392loPI    C2 6258   8.214   8.179  10.463 -0.0619 -0.0255  0.0074
  392loPI    C3 6259   8.226   8.553  10.324  0.1133 -0.1043 -0.1942
  392loPI   PO4 6260   7.835   8.104   9.979  0.3343 -0.0183  0.0537
  392loPI   GL1 6261   7.927   8.175   9.619  0.0070 -0.1835  0.0636
  392loPI   GL2 6262   7.681   8.094   9.506 -0.1295  0.2307 -0.2071
  392loPI   C1A 6263   7.795   8.464   9.155 -0.0195  0.1551  0.0659
  392loPI   C2A 6264   7.610   8.326   8.829  0.0290  0.1010  0.0607
  392loPI   C3A 6265   7.516   8.194   8.379  0.1893 -0.2424  0.1260
  392loPI   C4A 6266   7.692   8.304   7.982 -0.2506 -0.0885  0.1086
  392loPI   C5A 6267   7.866   8.395   7.586 -0.2110  0.0492  0.1658
  392loPI   C6A 6268   8.060   8.735   7.520 -0.1997 -0.2580  0.0791
  392loPI   C1B 6269   7.378   7.986   9.177  0.1721 -0.2443  0.2896
  392loPI   C2B 6270   7.410   7.829   8.755  0.0900 -0.0069  0.0561
  392loPI   C3B 6271   7.460   7.673   8.314 -0.0933 -0.1559  0.1204
  392loPI   C4B 6272   7.443   7.821   8.013 -0.2353 -0.1099  0.0243
  393loPI    C1 6273  13.707  14.423   9.646  0.2101 -0.0460 -0.0340
  393loPI    C2 6274  13.781  14.648   9.968  0.0021  0.0424 -0.0466
  393loPI    C3 6275  14.032  14.353   9.868 -0.1158 -0.2195  0.4026
  393loPI   PO4 6276  13.730  14.431   9.353  0.2890 -0.4079 -0.0495
  393loPI   GL1 6277  13.594  14.468   8.907  0.0610  0.0212 -0.2381
  393loPI   GL2 6278  13.504  14.754   8.966 -0.1870  0.2004  0.0486
  393loPI   C1A 6279  13.397  14.273   8.670 -0.0226  0.4260  0.2749
  393loPI   C2A 6280  13.409  14.002   8.290  0.1963 -0.0652  0.0162
  393loPI   C3A 6281  13.484  14.090   7.850 -0.1571  0.2789 -0.0485
  393loPI   C4A 6282  13.448  14.077   7.536  0.0968  0.5929  0.2443
  393loPI   C5A 6283  13.111  14.270   7.275 -0.4044  0.3363 -0.0568
  393loPI   C6A 6284  12.711  14.391   7.114 -0.0949 -0.2180  0.2324
  393loPI   C1B 6285  13.547  15.019   8.569 -0.0262  0.2557 -0.1858
  393loPI   C2B 6286  13.562  15.404   8.303  0.0341  0.2966 -0.0117
  393loPI   C3B 6287  13.489  15.524   7.931  0.3480 -0.0204 -0.2357
  393loPI   C4B 6288  13.541  15.639   7.517  0.3985  0.0571 -0.2306
  394loPI    C1 6289   4.406  14.839   9.767 -0.2398 -0.1807 -0.1099
  394loPI    C2 6290   4.257  15.210   9.786  0.2101  0.0115 -0.2043
  394loPI    C3 6291   4.297  14.993  10.120  0.0433  0.0864 -0.1347
  394loPI   PO4 6292   4.580  14.906   9.532  0.3967  0.0547 -0.2726
  394loPI   GL1 6293   4.640  14.897   9.124  0.0662 -0.1018 -0.0590
  394loPI   GL2 6294   5.005  14.919   9.120 -0.0035  0.4870  0.3211
  394loPI   C1A 6295   4.360  14.789   8.769 -0.5067  0.0285 -0.1157
  394loPI   C2A 6296   4.555  14.702   8.357 -0.1237 -0.0032  0.0358
  394loPI   C3A 6297   4.608  14.628   7.973 -0.2017  0.1815 -0.1588
  394loPI   C4A 6298   4.372  14.817   7.613 -0.0320  0.0661  0.0408
  394loPI   C5A 6299   4.488  14.930   7.175  0.0439 -0.1395  0.0225
  394loPI   C6A 6300   4.361  14.993   6.793  0.0083 -0.1304  0.2918
  394loPI   C1B 6301   4.913  14.675   8.755 -0.1030  0.0658 -0.0918
  394loPI   C2B 6302   5.035  14.854   8.369 -0.1773  0.1422 -0.0504
  394loPI   C3B 6303   5.120  14.975   8.023 -0.1116  0.0496  0.1877
  394loPI   C4B 6304   5.281  15.245   7.725  0.1218  0.0244 -0.1883
  395loPI    C1 6305  11.562  10.127  10.135  0.0458  0.1091  0.0237
  395loPI    C2 6306  11.711   9.840  10.370  0.2110  0.0355 -0.1686
  395loPI    C3 6307  11.927  10.168  10.295  0.0274  0.2064  0.0413
  395loPI   PO4 6308  11.447  10.032   9.991 -0.1176  0.0267  0.0664
  395loPI   GL1 6309  11.364  10.003   9.442  0.1679  0.2105 -0.0661
  395loPI   GL2 6310  11.409   9.740   9.289 -0.1218 -0.3238  0.1430
  395loPI   C1A 6311  11.009  10.062   9.067  0.2208 -0.2587 -0.1593
  395loPI   C2A 6312  11.018   9.990   8.571  0.1289 -0.1138 -0.1093
  395loPI   C3A 6313  10.900   9.880   8.093  0.0274  0.0793  0.1925
  395loPI   C4A 6314  10.995   9.640   7.678 -0.0176  0.2163  0.0451
  395loPI   C5A 6315  11.019   9.264   7.419  0.2218  0.2923 -0.0674
  395loPI   C6A 6316  11.038   8.904   7.133 -0.0348  0.0902 -0.3676
  395loPI   C1B 6317  11.445   9.796   8.873  0.0868 -0.2701 -0.0005
  395loPI   C2B 6318  11.525  10.019   8.433 -0.1065 -0.0949  0.0011
  395loPI   C3B 6319  11.907  10.355   8.180 -0.0899  0.1904 -0.3012
  395loPI   C4B 6320  12.334  10.553   8.322  0.1933  0.2374 -0.0066
  396loPI    C1 6321  11.121  14.019   9.760  0.0605 -0.0124 -0.0179
  396loPI    C2 6322  11.144  13.967  10.155  0.1826  0.0228 -0.0196
  396loPI    C3 6323  11.208  13.658   9.909  0.1951  0.0208 -0.0140
  396loPI   PO4 6324  11.204  14.229   9.711 -0.2440 -0.3448  0.1104
  396loPI   GL1 6325  11.398  14.475   9.461  0.3029  0.1075 -0.1361
  396loPI   GL2 6326  11.661  14.443   9.201  0.2096  0.1060  0.2103
  396loPI   C1A 6327  11.148  14.496   9.147  0.0787  0.1746  0.0067
  396loPI   C2A 6328  11.050  14.652   8.707  0.2763  0.1551  0.1993
  396loPI   C3A 6329  11.237  14.722   8.345  0.1616 -0.0091  0.1034
  396loPI   C4A 6330  10.954  14.873   7.956  0.2158 -0.4278 -0.1910
  396loPI   C5A 6331  11.055  15.161   7.624  0.1590 -0.2711 -0.1980
  396loPI   C6A 6332  11.187  15.299   7.238 -0.2300  0.2266 -0.3226
  396loPI   C1B 6333  11.551  14.477   8.813 -0.0791 -0.4999  0.0376
  396loPI   C2B 6334  11.594  14.347   8.459  0.2352 -0.2260  0.0662
  396loPI   C3B 6335  11.438  14.152   8.126  0.2948 -0.3950 -0.0548
  396loPI   C4B 6336  11.232  14.436   7.756 -0.0069 -0.0887  0.1973
  397loPI    C1 6337  19.244   6.171  10.022  0.0566 -0.0492  0.2791
  397loPI    C2 6338  18.964   6.353  10.242  0.0263  0.1016  0.1176
  397loPI    C3 6339  19.273   6.173  10.421 -0.2524 -0.2003  0.3053
  397loPI   PO4 6340  18.946   6.192   9.759 -0.0571  0.1880  0.0214
  397loPI   GL1 6341  18.854   6.408   9.396  0.1215 -0.3342 -0.2700
  397loPI   GL2 6342  18.909   6.799   9.364 -0.0241 -0.0853  0.0249
  397loPI   C1A 6343  18.966   6.190   8.966 -0.1695 -0.1724 -0.3723
  397loPI   C2A 6344  19.079   6.299   8.505 -0.0354  0.0928  0.2437
  397loPI   C3A 6345  18.992   6.325   8.043  0.1847  0.1729 -0.0989
  397loPI   C4A 6346  19.158   6.371   7.695 -0.0279 -0.2335 -0.1349
  397loPI   C5A 6347  19.542   6.384   7.564 -0.0111 -0.1898  0.0520
  397loPI   C6A 6348  19.851   6.147   7.587 -0.0812  0.0508  0.0349
  397loPI   C1B 6349  19.012   6.888   8.955  0.0134 -0.1820  0.0086
  397loPI   C2B 6350  19.116   6.734   8.570  0.0572  0.0751 -0.0364
  397loPI   C3B 6351  19.252   6.770   8.049  0.0635  0.1049 -0.1377
  397loPI   C4B 6352  19.689   6.747   7.868  0.0953  0.2175 -0.0015
  398loPI    C1 6353  14.481  13.201   9.961  0.3597 -0.0386  0.2001
  398loPI    C2 6354  14.146  13.411  10.022  0.2085 -0.1441 -0.2283
  398loPI    C3 6355  14.213  13.077  10.231 -0.0548 -0.2332 -0.2827
  398loPI   PO4 6356  14.522  13.148   9.793  0.0289 -0.0790 -0.1383
  398loPI   GL1 6357  14.478  13.082   9.233  0.2064 -0.0058  0.3608
  398loPI   GL2 6358  14.298  12.865   9.370  0.2395 -0.3231 -0.0291
  398loPI   C1A 6359  14.346  13.233   8.852 -0.1252  0.1836  0.1949
  398loPI   C2A 6360  14.133  13.103   8.457  0.1927  0.1986 -0.1488
  398loPI   C3A 6361  14.117  13.214   7.969  0.0903  0.4964 -0.1566
  398loPI   C4A 6362  14.223  13.598   7.631 -0.1462  0.0964  0.1699
  398loPI   C5A 6363  13.931  13.850   7.401 -0.2275 -0.0491  0.3157
  398loPI   C6A 6364  13.929  14.093   7.000 -0.3506 -0.1907 -0.0353
  398loPI   C1B 6365  14.573  12.623   9.115  0.1237 -0.1386 -0.0148
  398loPI   C2B 6366  14.718  12.518   8.702  0.1876  0.1595  0.1758
  398loPI   C3B 6367  14.796  12.374   8.318  0.5595 -0.1484 -0.2187
  398loPI   C4B 6368  14.906  12.529   7.888  0.3127  0.3107 -0.0730
  399loPI    C1 6369   8.546  19.528   9.507  0.1885 -0.1880  0.2000
  399loPI    C2 6370   8.438  19.144   9.484  0.3425 -0.2250  0.0634
  399loPI    C3 6371   8.505  19.312   9.841  0.2430 -0.3150  0.1254
  399loPI   PO4 6372   8.492  19.618   9.343  0.1480 -0.0594  0.2952
  399loPI   GL1 6373   8.688  19.762   9.065  0.0786  0.1672  0.2194
  399loPI   GL2 6374   8.502  20.001   8.840  0.0553  0.0446 -0.0514
  399loPI   C1A 6375   8.687  19.628   8.634  0.0103 -0.2424  0.1395
  399loPI   C2A 6376   8.520  19.655   8.142 -0.0564  0.2348  0.1739
  399loPI   C3A 6377   8.627  19.436   7.801 -0.0116 -0.0819  0.2644
  399loPI   C4A 6378   8.561  19.180   7.396  0.1064 -0.3367  0.0662
  399loPI   C5A 6379   8.536  18.730   7.427 -0.0950  0.1772 -0.0413
  399loPI   C6A 6380   8.654  18.399   7.142  0.2289 -0.2951 -0.1202
  399loPI   C1B 6381   8.460  20.087   8.368  0.0064  0.3424  0.3712
  399loPI   C2B 6382   8.186  20.131   8.017 -0.4146  0.2167 -0.0003
  399loPI   C3B 6383   8.302  19.834   7.683  0.1533 -0.3927  0.0768
  399loPI   C4B 6384   8.693  19.738   7.342 -0.0113 -0.1109 -0.1218
  400loPI    C1 6385   6.461  15.862   9.576  0.0204  0.1331 -0.1173
  400loPI    C2 6386   6.789  15.862   9.804 -0.1201  0.2117  0.0875
  400loPI    C3 6387   6.471  15.644   9.911 -0.1154  0.0907 -0.1404
  400loPI   PO4 6388   6.525  15.838   9.372  0.0441  0.2318 -0.1494
  400loPI   GL1 6389   6.666  16.036   9.020  0.4141 -0.1910  0.1289
  400loPI   GL2 6390   6.667  15.711   8.924  0.3002  0.0336  0.1056
  400loPI   C1A 6391   6.612  16.211   8.604 -0.1459 -0.1700 -0.1011
  400loPI   C2A 6392   6.668  15.957   8.268 -0.3897  0.0843 -0.1528
  400loPI   C3A 6393   6.721  15.959   7.839  0.0410  0.0351  0.1239
  400loPI   C4A 6394   6.609  16.049   7.408  0.3259 -0.1828  0.2252
  400loPI   C5A 6395   6.390  16.451   7.187 -0.2621 -0.0085 -0.2289
  400loPI   C6A 6396   6.012  16.517   7.412 -0.2818 -0.0241 -0.1234
  400loPI   C1B 6397   6.824  15.531   8.642  0.2409 -0.0328 -0.3093
  400loPI   C2B 6398   6.908  15.560   8.388 -0.1929  0.0746  0.1365
  400loPI   C3B 6399   6.998  15.529   7.936 -0.0082 -0.0529  0.2325
  400loPI   C4B 6400   7.122  15.837   7.626 -0.3153 -0.2380  0.1471
  401loPI    C1 6401  13.504   5.924   9.577 -0.0766  0.2384  0.0389
  401loPI    C2 6402  13.501   5.865   9.972  0.1724 -0.1660 -0.0137
  401loPI    C3 6403  13.305   5.613   9.730 -0.0335  0.1169 -0.1479
  401loPI   PO4 6404  13.364   6.145   9.470  0.0692 -0.1973  0.0112
  401loPI   GL1 6405  13.269   6.291   9.102 -0.1818 -0.1664  0.1044
  401loPI   GL2 6406  13.596   6.443   9.111  0.1144  0.2524  0.2932
  401loPI   C1A 6407  13.174   6.345   8.630  0.2476  0.0087 -0.2867
  401loPI   C2A 6408  12.903   6.579   8.320 -0.0575  0.1451  0.0121
  401loPI   C3A 6409  12.830   6.745   7.956  0.0402  0.2720  0.1378
  401loPI   C4A 6410  12.512   6.738   7.701  0.0295  0.3648 -0.3031
  401loPI   C5A 6411  12.186   6.604   7.331 -0.2012  0.2063 -0.2513
  401loPI   C6A 6412  11.864   6.408   7.333 -0.0056  0.1040 -0.0079
  401loPI   C1B 6413  13.903   6.488   8.773 -0.0731  0.1394  0.1186
  401loPI   C2B 6414  14.159   6.419   8.411 -0.0119  0.0966 -0.0099
  401loPI   C3B 6415  14.200   6.236   8.087  0.0839  0.0919  0.2043
  401loPI   C4B 6416  13.962   6.114   7.641  0.0781  0.1441  0.1227
  402loPI    C1 6417  12.625  16.659  10.018  0.1206 -0.1989 -0.4442
  402loPI    C2 6418  12.644  16.271  10.112  0.0748 -0.0723  0.1263
  402loPI    C3 6419  12.974  16.465   9.995  0.1703 -0.2015  0.1793
  402loPI   PO4 6420  12.363  16.635   9.922 -0.1844  0.3246 -0.2244
  402loPI   GL1 6421  12.288  16.681   9.449  0.5938  0.2348  0.1031
  402loPI   GL2 6422  12.573  16.657   9.338 -0.0293  0.0579 -0.1349
  402loPI   C1A 6423  12.184  16.652   8.984  0.0669  0.1046 -0.2268
  402loPI   C2A 6424  12.126  16.870   8.600 -0.0513  0.2402  0.1808
  402loPI   C3A 6425  11.856  16.713   8.337  0.0981  0.1429 -0.1645
  402loPI   C4A 6426  11.673  16.522   8.036  0.1260  0.2765  0.0571
  402loPI   C5A 6427  11.385  16.601   7.646 -0.2320  0.1771  0.1556
  402loPI   C6A 6428  11.159  16.681   7.355 -0.1729  0.2236 -0.0326
  402loPI   C1B 6429  12.859  16.560   8.998 -0.0082  0.4550 -0.0453
  402loPI   C2B 6430  13.170  16.612   8.557  0.2662  0.1089 -0.2397
  402loPI   C3B 6431  13.183  16.585   8.147 -0.3754  0.1191  0.0216
  402loPI   C4B 6432  13.304  16.562   7.659  0.0530  0.2696 -0.0425
  403loPI    C1 6433   2.689  15.413   9.911 -0.0934 -0.2588  0.1210
  403loPI    C2 6434   2.925  15.697   9.759 -0.4638 -0.1119 -0.1955
  403loPI    C3 6435   2.689  15.779  10.071 -0.1304 -0.2497  0.1001
  403loPI   PO4 6436   2.702  15.277   9.631  0.0764 -0.1583 -0.1044
  403loPI   GL1 6437   2.716  15.355   9.165  0.0739  0.1835 -0.0769
  403loPI   GL2 6438   2.894  15.627   9.220  0.1446  0.1084 -0.1940
  403loPI   C1A 6439   2.803  15.399   8.680  0.0019  0.3333  0.1572
  403loPI   C2A 6440   2.687  15.400   8.240 -0.0796  0.2862  0.0018
  403loPI   C3A 6441   2.662  15.219   7.810  0.1793 -0.1005 -0.1013
  403loPI   C4A 6442   2.771  15.231   7.373 -0.0157  0.0055 -0.2803
  403loPI   C5A 6443   3.147  15.267   7.187 -0.0104 -0.3456  0.1044
  403loPI   C6A 6444   3.626  15.261   7.167 -0.1658 -0.2660 -0.0060
  403loPI   C1B 6445   2.732  15.854   8.827  0.1527  0.0772 -0.1584
  403loPI   C2B 6446   2.922  15.872   8.535  0.1069 -0.2079 -0.4766
  403loPI   C3B 6447   3.037  15.690   8.064 -0.1381 -0.2534  0.1806
  403loPI   C4B 6448   2.913  15.635   7.633 -0.2691 -0.2326 -0.3836
  404loPI    C1 6449  12.596   6.609   9.391 -0.3707 -0.2443 -0.2063
  404loPI    C2 6450  12.520   6.254   9.559  0.1137 -0.2102  0.1053
  404loPI    C3 6451  12.898   6.367   9.492 -0.0410  0.1787 -0.1489
  404loPI   PO4 6452  12.415   6.763   9.403 -0.2346 -0.1125  0.0903
  404loPI   GL1 6453  12.406   6.899   9.053 -0.2923  0.0330  0.0222
  404loPI   GL2 6454  12.651   7.086   9.045 -0.1493  0.0769 -0.3412
  404loPI   C1A 6455  12.442   6.937   8.593  0.1309  0.0780  0.0208
  404loPI   C2A 6456  12.526   7.106   8.183  0.0311 -0.1768 -0.2876
  404loPI   C3A 6457  12.467   7.182   7.831  0.5767 -0.1108 -0.0716
  404loPI   C4A 6458  12.640   7.083   7.397 -0.4669 -0.0150  0.0546
  404loPI   C5A 6459  12.583   7.052   6.989  0.2505 -0.2541  0.0703
  404loPI   C6A 6460  12.339   6.755   6.677  0.2836 -0.0383 -0.1422
  404loPI   C1B 6461  12.861   7.386   9.000 -0.2629 -0.2607  0.1161
  404loPI   C2B 6462  13.130   7.556   8.752 -0.1318 -0.1876  0.0395
  404loPI   C3B 6463  13.427   7.596   8.379  0.0876  0.1214  0.0467
  404loPI   C4B 6464  13.810   7.589   8.129 -0.1256  0.2204  0.0822
  405loPI    C1 6465   1.884   1.791   9.552 -0.1053 -0.4816 -0.2410
  405loPI    C2 6466   1.817   1.827   9.945  0.3872  0.1273 -0.1975
  405loPI    C3 6467   1.973   1.489   9.799  0.2871 -0.0694  0.1395
  405loPI   PO4 6468   1.969   1.977   9.520 -0.0226  0.1652 -0.2566
  405loPI   GL1 6469   2.175   2.094   9.123 -0.1109 -0.0774  0.0057
  405loPI   GL2 6470   2.335   2.340   9.070  0.0927  0.2601 -0.0580
  405loPI   C1A 6471   2.194   1.758   8.807  0.0004 -0.1875  0.1806
  405loPI   C2A 6472   2.035   1.905   8.353  0.0445  0.1630 -0.3241
  405loPI   C3A 6473   1.978   1.746   7.943 -0.1817  0.1399  0.0027
  405loPI   C4A 6474   2.043   1.612   7.596  0.2470  0.1243  0.0171
  405loPI   C5A 6475   1.966   1.761   7.267  0.0509 -0.0492  0.0754
  405loPI   C6A 6476   1.890   2.000   6.895  0.0809 -0.0348  0.1785
  405loPI   C1B 6477   2.115   2.348   8.729 -0.2719 -0.1021 -0.0492
  405loPI   C2B 6478   2.190   2.400   8.328  0.1698 -0.2344 -0.1191
  405loPI   C3B 6479   2.070   2.375   7.964 -0.0181 -0.0608 -0.0666
  405loPI   C4B 6480   1.837   2.154   7.597 -0.0371  0.2665 -0.1330
  406loPI    C1 6481  19.277   5.783   9.668 -0.0653  0.1327  0.0554
  406loPI    C2 6482  19.441   5.651  10.008 -0.2725  0.1311  0.1562
  406loPI    C3 6483  19.645   5.899   9.770  0.0543 -0.2302  0.0505
  406loPI   PO4 6484  19.193   5.561   9.558  0.0613 -0.0952 -0.0976
  406loPI   GL1 6485  19.253   5.496   9.119  0.1326  0.2649  0.3893
  406loPI   GL2 6486  18.895   5.579   9.092 -0.0118 -0.1507  0.1583
  406loPI   C1A 6487  19.231   5.150   8.989 -0.1133 -0.1511  0.0834
  406loPI   C2A 6488  19.247   5.043   8.576  0.1417  0.3509  0.1057
  406loPI   C3A 6489  19.385   5.097   8.141  0.2775  0.2415 -0.1293
  406loPI   C4A 6490  19.667   5.257   8.050 -0.3376 -0.0190  0.0445
  406loPI   C5A 6491  19.718   5.466   7.647  0.1894 -0.0491 -0.3368
  406loPI   C6A 6492  19.800   5.378   7.106  0.1036  0.2241 -0.0115
  406loPI   C1B 6493  18.992   5.523   8.640  0.0507 -0.0236 -0.0103
  406loPI   C2B 6494  19.238   5.531   8.351  0.1637 -0.2636 -0.0357
  406loPI   C3B 6495  19.172   5.509   7.923 -0.1929  0.0111 -0.1114
  406loPI   C4B 6496  19.017   5.155   7.795 -0.2501 -0.2299  0.1172
  407loPI    C1 6497  11.488  12.235   9.933  0.1147 -0.0550 -0.0770
  407loPI    C2 6498  11.740  12.114  10.219  0.1667  0.0824 -0.0644
  407loPI    C3 6499  11.702  12.504  10.137 -0.1783  0.0782  0.0605
  407loPI   PO4 6500  11.592  12.096   9.702  0.1354  0.1600  0.0246
  407loPI   GL1 6501  11.667  11.863   9.346  0.1745 -0.3003 -0.0024
  407loPI   GL2 6502  11.947  11.912   9.241  0.5423  0.0246  0.1860
  407loPI   C1A 6503  11.374  12.085   9.091  0.0248  0.0805 -0.1817
  407loPI   C2A 6504  11.275  12.333   8.793 -0.4213 -0.5006  0.0348
  407loPI   C3A 6505  11.130  12.749   8.528 -0.0516 -0.1988 -0.0226
  407loPI   C4A 6506  11.102  13.016   8.231 -0.1164 -0.1426  0.1170
  407loPI   C5A 6507  10.897  13.163   7.871 -0.1259 -0.1170  0.2541
  407loPI   C6A 6508  10.572  13.246   7.651 -0.1076  0.0458  0.3785
  407loPI   C1B 6509  12.255  11.734   8.926  0.3017  0.0646  0.2269
  407loPI   C2B 6510  12.352  11.871   8.523  0.1799 -0.0847  0.3639
  407loPI   C3B 6511  12.353  12.263   8.171  0.5095 -0.1040  0.1005
  407loPI   C4B 6512  12.630  12.566   8.316 -0.1660  0.0927 -0.4052
  408loPI    C1 6513  18.410   4.352   9.980  0.1020  0.3107 -0.0463
  408loPI    C2 6514  18.237   4.043  10.166  0.0471  0.1964 -0.2837
  408loPI    C3 6515  18.412   4.332  10.380 -0.1792  0.1641 -0.0495
  408loPI   PO4 6516  18.610   4.424   9.803  0.1764 -0.1817  0.2258
  408loPI   GL1 6517  18.625   4.278   9.394 -0.0848 -0.0625  0.1391
  408loPI   GL2 6518  18.299   4.482   9.450  0.2393  0.1710 -0.1409
  408loPI   C1A 6519  18.775   4.314   8.959  0.0621  0.1815 -0.0333
  408loPI   C2A 6520  18.472   3.990   8.759 -0.2875  0.0614  0.3295
  408loPI   C3A 6521  18.249   3.809   8.429 -0.0969  0.0044 -0.3323
  408loPI   C4A 6522  18.369   3.904   7.966 -0.0198  0.4905 -0.2707
  408loPI   C5A 6523  18.235   4.170   7.585 -0.1802  0.0403  0.0331
  408loPI   C6A 6524  18.273   4.645   7.533  0.0658 -0.3326 -0.2727
  408loPI   C1B 6525  18.328   4.675   9.105 -0.1614  0.2539 -0.0057
  408loPI   C2B 6526  18.220   4.901   8.703  0.0308  0.2337 -0.1984
  408loPI   C3B 6527  18.453   4.787   8.280 -0.2264 -0.1610 -0.0493
  408loPI   C4B 6528  18.626   4.881   7.796  0.2816 -0.2035  0.0759
  409loPI    C1 6529  16.173  13.408   9.807  0.2384 -0.1488 -0.1211
  409loPI    C2 6530  16.109  13.422  10.202 -0.0299  0.0862 -0.1697
  409loPI    C3 6531  16.082  13.756   9.982  0.1669 -0.0340 -0.3810
  409loPI   PO4 6532  16.112  13.266   9.628 -0.1736 -0.1393  0.1818
  409loPI   GL1 6533  15.900  13.229   9.223 -0.0974  0.4760 -0.2664
  409loPI   GL2 6534  16.148  12.924   9.209  0.1476 -0.0297  0.1840
  409loPI   C1A 6535  15.816  13.206   8.817  0.0448  0.0730  0.1448
  409loPI   C2A 6536  15.726  13.237   8.392  0.0018  0.3315 -0.0005
  409loPI   C3A 6537  15.678  13.021   7.936  0.0299 -0.0733  0.0084
  409loPI   C4A 6538  15.844  12.832   7.492 -0.3511 -0.1781 -0.0221
  409loPI   C5A 6539  16.019  12.632   7.139 -0.2147  0.0642  0.2705
  409loPI   C6A 6540  16.179  12.956   6.760 -0.0289  0.0425 -0.3263
  409loPI   C1B 6541  16.257  12.861   8.817 -0.0786  0.2856  0.0550
  409loPI   C2B 6542  16.415  12.678   8.542  0.0091  0.0796 -0.1233
  409loPI   C3B 6543  16.588  12.681   8.153 -0.2096 -0.3235 -0.2625
  409loPI   C4B 6544  16.874  12.882   7.709  0.1809  0.3961 -0.0149
  410loPI    C1 6545   5.159   9.138  10.316  0.0737 -0.0379  0.1195
  410loPI    C2 6546   5.287   9.375  10.612  0.1270 -0.0456  0.1029
  410loPI    C3 6547   5.101   9.030  10.696  0.0867 -0.0181  0.1271
  410loPI   PO4 6548   4.973   9.272  10.088 -0.2413 -0.1170  0.0667
  410loPI   GL1 6549   4.832   9.289   9.715  0.0442 -0.0825 -0.0144
  410loPI   GL2 6550   4.720   9.542   9.471  0.0390 -0.2780 -0.1002
  410loPI   C1A 6551   5.029   9.228   9.236  0.1144  0.0112 -0.3505
  410loPI   C2A 6552   5.155   9.299   8.777 -0.2063  0.1108 -0.0531
  410loPI   C3A 6553   5.302   9.285   8.490 -0.1455  0.1317  0.1439
  410loPI   C4A 6554   5.186   8.901   8.175  0.2037 -0.1312 -0.1409
  410loPI   C5A 6555   4.984   9.046   7.760 -0.0411 -0.2864  0.0634
  410loPI   C6A 6556   5.004   9.008   7.342 -0.0418 -0.0197 -0.0107
  410loPI   C1B 6557   4.707   9.543   9.061  0.1752  0.2312  0.1089
  410loPI   C2B 6558   4.671   9.603   8.646  0.0222  0.0353  0.0025
  410loPI   C3B 6559   4.410   9.489   8.319 -0.1382 -0.0349  0.2064
  410loPI   C4B 6560   4.008   9.655   8.318  0.0773 -0.0449  0.0083
  411loPI    C1 6561  17.955  11.405  10.125 -0.2855 -0.0364  0.3713
  411loPI    C2 6562  18.127  11.747  10.241  0.0128 -0.1307  0.2174
  411loPI    C3 6563  18.182  11.413  10.454 -0.0077 -0.1544  0.1859
  411loPI   PO4 6564  18.076  11.264   9.842  0.1487 -0.0825  0.0658
  411loPI   GL1 6565  18.009  11.220   9.395 -0.2271  0.0517 -0.1432
  411loPI   GL2 6566  18.280  11.335   9.354  0.0084  0.1037 -0.0763
  411loPI   C1A 6567  18.109  10.916   8.993 -0.2124  0.3301 -0.2635
  411loPI   C2A 6568  18.011  10.498   8.764 -0.2101 -0.0996  0.0868
  411loPI   C3A 6569  18.109  10.253   8.359 -0.3454 -0.0988 -0.2474
  411loPI   C4A 6570  18.127  10.050   7.952 -0.1235  0.0207  0.1202
  411loPI   C5A 6571  18.203  10.027   7.459  0.1125 -0.0717 -0.1036
  411loPI   C6A 6572  18.102  10.436   7.105 -0.0044  0.0383 -0.0018
  411loPI   C1B 6573  18.446  11.567   9.023 -0.1750  0.0509 -0.1991
  411loPI   C2B 6574  18.269  11.756   8.668  0.1762  0.2455  0.0724
  411loPI   C3B 6575  18.072  12.056   8.441  0.1396 -0.0447  0.0357
  411loPI   C4B 6576  17.758  12.340   8.578  0.1052  0.1644  0.1905
  412loPI    C1 6577  10.224  10.087   9.944 -0.0656 -0.1625  0.0702
  412loPI    C2 6578  10.467  10.371  10.085 -0.1509 -0.0042 -0.0974
  412loPI    C3 6579  10.588  10.135   9.786 -0.0847 -0.1376  0.0338
  412loPI   PO4 6580   9.953  10.091   9.961  0.0052  0.3783  0.0361
  412loPI   GL1 6581   9.849  10.045   9.480  0.1760 -0.3663 -0.1333
  412loPI   GL2 6582  10.104   9.906   9.485 -0.1372 -0.1778 -0.0270
  412loPI   C1A 6583   9.834  10.309   9.117 -0.2021  0.4499  0.1792
  412loPI   C2A 6584   9.738  10.577   8.784 -0.1649 -0.1322 -0.1726
  412loPI   C3A 6585   9.402  10.657   8.565  0.2692  0.2315  0.1899
  412loPI   C4A 6586   9.282  10.995   8.692  0.0643  0.4194  0.0787
  412loPI   C5A 6587   9.004  11.233   8.755  0.2549  0.1169 -0.1116
  412loPI   C6A 6588   8.736  11.387   8.502  0.1577 -0.0109 -0.0968
  412loPI   C1B 6589  10.083   9.888   8.917 -0.2029 -0.0246 -0.2087
  412loPI   C2B 6590  10.022   9.731   8.491  0.2568 -0.2552 -0.1695
  412loPI   C3B 6591   9.891   9.656   8.013 -0.2831 -0.3220  0.0915
  412loPI   C4B 6592   9.927   9.544   7.640 -0.1782 -0.1090 -0.2916
  413loPI    C1 6593  16.265   6.365   9.564  0.0666  0.0599  0.0189
  413loPI    C2 6594  16.342   6.094   9.848  0.0245 -0.0900 -0.1109
  413loPI    C3 6595  15.970   6.233   9.800  0.0369 -0.0440 -0.0753
  413loPI   PO4 6596  16.440   6.340   9.363 -0.0750 -0.0777  0.0146
  413loPI   GL1 6597  16.523   6.193   8.930  0.0713 -0.0208 -0.0099
  413loPI   GL2 6598  16.855   6.227   9.110  0.0982  0.3497 -0.0977
  413loPI   C1A 6599  16.520   5.850   8.569 -0.0204  0.0078 -0.0693
  413loPI   C2A 6600  16.393   5.543   8.399 -0.0334 -0.1264 -0.1320
  413loPI   C3A 6601  16.345   5.397   8.000  0.0090  0.0484 -0.2276
  413loPI   C4A 6602  16.496   5.365   7.540  0.0700 -0.2329  0.1407
  413loPI   C5A 6603  16.546   5.330   7.154 -0.2401 -0.0272  0.0133
  413loPI   C6A 6604  16.916   5.170   6.908  0.0764  0.0012 -0.1752
  413loPI   C1B 6605  16.832   6.332   8.602  0.1500 -0.0891 -0.1391
  413loPI   C2B 6606  16.743   6.450   8.117  0.2544  0.0939  0.0208
  413loPI   C3B 6607  16.790   6.782   7.849 -0.0674 -0.0575 -0.0890
  413loPI   C4B 6608  16.958   6.959   7.636 -0.2506  0.0314 -0.1486
  414loPI    C1 6609  13.768  15.366   9.249  0.1694 -0.1500 -0.0881
  414loPI    C2 6610  14.120  15.176   9.258  0.1601 -0.1600  0.1172
  414loPI    C3 6611  13.961  15.318   9.596  0.1163  0.1217 -0.0188
  414loPI   PO4 6612  13.710  15.417   9.080  0.1222  0.1899 -0.1449
  414loPI   GL1 6613  13.649  15.715   8.891 -0.1731  0.0081 -0.1193
  414loPI   GL2 6614  13.776  16.008   8.987  0.2386  0.1298 -0.2936
  414loPI   C1A 6615  13.674  15.886   8.413  0.2987  0.3201 -0.0940
  414loPI   C2A 6616  13.762  15.894   7.903  0.0212 -0.1120 -0.2577
  414loPI   C3A 6617  14.084  15.682   7.625  0.1146 -0.2700 -0.0400
  414loPI   C4A 6618  14.303  15.646   7.224  0.0441 -0.3634  0.1077
  414loPI   C5A 6619  14.704  15.464   7.072 -0.0897 -0.1509  0.0710
  414loPI   C6A 6620  14.808  15.061   7.342  0.1970  0.1512  0.0348
  414loPI   C1B 6621  13.702  16.339   8.711  0.2093  0.2804 -0.2276
  414loPI   C2B 6622  13.652  16.398   8.293 -0.0377 -0.0864 -0.2395
  414loPI   C3B 6623  13.707  16.414   7.894  0.1843  0.1869 -0.1768
  414loPI   C4B 6624  13.688  16.224   7.469 -0.2544 -0.0058 -0.2947
  415loPI    C1 6625  19.637   8.742  10.173  0.0351 -0.0204  0.1302
  415loPI    C2 6626  19.440   9.069  10.293 -0.0607  0.0268 -0.1479
  415loPI    C3 6627  19.768   8.950  10.488  0.1090  0.4225 -0.1835
  415loPI   PO4 6628  19.653   8.710   9.946 -0.2858  0.0121  0.2547
  415loPI   GL1 6629  19.663   8.561   9.524 -0.0247  0.0984  0.2365
  415loPI   GL2 6630  19.362   8.472   9.275 -0.0766  0.0166  0.0825
  415loPI   C1A 6631  19.858   8.329   9.159  0.4119  0.1388  0.1489
  415loPI   C2A 6632  19.872   8.448   8.776 -0.3187 -0.1520  0.0505
  415loPI   C3A 6633  19.939   8.699   8.471  0.1937 -0.0225  0.3934
  415loPI   C4A 6634  19.930   8.638   7.982  0.0403 -0.2995 -0.1911
  415loPI   C5A 6635  20.269   8.799   7.776 -0.2558 -0.1345  0.1439
  415loPI   C6A 6636  20.625   9.068   7.798 -0.2572 -0.1183 -0.5097
  415loPI   C1B 6637  19.224   8.366   8.857 -0.1939 -0.0064 -0.1203
  415loPI   C2B 6638  19.081   8.261   8.457  0.0361  0.0725  0.0680
  415loPI   C3B 6639  19.226   8.062   8.125  0.5257  0.1512 -0.1648
  415loPI   C4B 6640  19.268   8.137   7.759  0.1208  0.2878  0.1005
  416loPI    C1 6641  12.878   6.968   9.704 -0.1236  0.1953 -0.2656
  416loPI    C2 6642  12.772   6.620   9.870 -0.1134  0.2675 -0.1060
  416loPI    C3 6643  13.070   6.834  10.028  0.0873  0.2003 -0.3870
  416loPI   PO4 6644  12.915   7.004   9.518 -0.0378  0.3143  0.3759
  416loPI   GL1 6645  13.109   6.782   9.173 -0.2142 -0.1112 -0.3693
  416loPI   GL2 6646  12.931   6.677   8.977  0.1039 -0.3451  0.0213
  416loPI   C1A 6647  13.399   6.778   8.791  0.1971  0.0668  0.0927
  416loPI   C2A 6648  13.366   6.706   8.286  0.0198  0.2195  0.2727
  416loPI   C3A 6649  13.356   6.826   7.949 -0.1143  0.2245  0.0154
  416loPI   C4A 6650  13.185   6.825   7.592  0.2821 -0.0866 -0.1739
  416loPI   C5A 6651  13.067   6.908   7.128 -0.0985 -0.1027 -0.2533
  416loPI   C6A 6652  12.917   6.735   6.650 -0.2607 -0.1374 -0.0447
  416loPI   C1B 6653  12.996   6.992   8.625 -0.0164 -0.0165  0.2831
  416loPI   C2B 6654  13.072   7.118   8.231 -0.1528 -0.4839  0.5637
  416loPI   C3B 6655  12.921   7.218   7.770 -0.0216  0.0513 -0.2788
  416loPI   C4B 6656  12.776   7.542   7.580  0.0609  0.2561  0.0627
  417loPI    C1 6657   1.875   8.676  10.169 -0.0333 -0.0938  0.0663
  417loPI    C2 6658   1.962   9.058  10.249  0.2646 -0.1895  0.2156
  417loPI    C3 6659   1.586   8.927  10.286  0.1867  0.0533  0.3051
  417loPI   PO4 6660   2.027   8.638   9.925 -0.1820  0.0042 -0.2214
  417loPI   GL1 6661   1.836   8.559   9.510  0.2292 -0.0108 -0.0386
  417loPI   GL2 6662   1.626   8.277   9.534 -0.1067 -0.3296 -0.0839
  417loPI   C1A 6663   1.956   8.432   9.154  0.3525  0.1142  0.0018
  417loPI   C2A 6664   1.981   8.373   8.727  0.1469 -0.1206  0.3324
  417loPI   C3A 6665   1.927   8.630   8.428 -0.1316  0.1510  0.0576
  417loPI   C4A 6666   2.181   8.693   8.027 -0.0244  0.2416  0.2110
  417loPI   C5A 6667   2.287   8.734   7.611 -0.0382  0.2755  0.2664
  417loPI   C6A 6668   2.396   8.750   7.205  0.1661 -0.0580  0.1311
  417loPI   C1B 6669   1.273   8.327   9.248  0.2006 -0.1392 -0.0526
  417loPI   C2B 6670   1.168   8.308   8.837 -0.3978  0.1958  0.3394
  417loPI   C3B 6671   1.409   8.081   8.557  0.2935 -0.0726 -0.0856
  417loPI   C4B 6672   1.637   8.198   8.278 -0.1190 -0.5242 -0.3576
  418loPI    C1 6673   9.004   1.607   9.403  0.1472  0.2005 -0.0418
  418loPI    C2 6674   8.817   1.741   9.731  0.1420  0.1269 -0.0144
  418loPI    C3 6675   9.217   1.731   9.718  0.1408 -0.0265  0.0536
  418loPI   PO4 6676   8.833   1.541   9.251 -0.1701  0.1121 -0.1452
  418loPI   GL1 6677   8.666   1.746   8.841  0.1732 -0.0921  0.0654
  418loPI   GL2 6678   8.577   2.099   8.811 -0.0491 -0.1146 -0.0509
  418loPI   C1A 6679   8.446   1.691   8.469 -0.0542 -0.1222 -0.0838
  418loPI   C2A 6680   8.025   1.883   8.364 -0.4249 -0.0480 -0.1963
  418loPI   C3A 6681   7.729   2.027   8.159 -0.0260  0.0368  0.1452
  418loPI   C4A 6682   7.648   2.109   7.631 -0.2908  0.0767  0.1696
  418loPI   C5A 6683   7.894   2.072   7.197  0.0722  0.3861  0.0810
  418loPI   C6A 6684   7.920   1.699   6.879 -0.1741 -0.0160  0.2669
  418loPI   C1B 6685   8.704   2.164   8.362  0.2210 -0.3354  0.1849
  418loPI   C2B 6686   9.009   2.112   7.956  0.0785  0.1308  0.0415
  418loPI   C3B 6687   9.328   2.047   7.632 -0.1696 -0.2131  0.0176
  418loPI   C4B 6688   9.380   1.814   7.370 -0.0174 -0.0934 -0.3423
  419loPI    C1 6689   2.484   2.544   9.682 -0.0326 -0.1091 -0.0831
  419loPI    C2 6690   2.113   2.459   9.560  0.0208 -0.4123 -0.0417
  419loPI    C3 6691   2.226   2.370   9.934  0.0534 -0.0698  0.0334
  419loPI   PO4 6692   2.604   2.544   9.506 -0.1637  0.1012 -0.1984
  419loPI   GL1 6693   2.796   2.536   9.084 -0.0588 -0.4319  0.0284
  419loPI   GL2 6694   3.122   2.528   8.870 -0.0673 -0.1685 -0.1188
  419loPI   C1A 6695   2.666   2.428   8.671  0.1566  0.0229 -0.2564
  419loPI   C2A 6696   2.733   2.375   8.299  0.2009 -0.0103  0.2029
  419loPI   C3A 6697   2.936   2.227   7.923 -0.4043 -0.0418  0.0233
  419loPI   C4A 6698   2.980   2.281   7.503 -0.1872 -0.2639 -0.2416
  419loPI   C5A 6699   2.909   2.320   7.071 -0.1168  0.0322 -0.2941
  419loPI   C6A 6700   3.020   2.233   6.685  0.1381  0.1021  0.0688
  419loPI   C1B 6701   3.368   2.444   8.505 -0.0381 -0.0491 -0.2931
  419loPI   C2B 6702   3.312   2.505   8.069 -0.1051  0.0400  0.0379
  419loPI   C3B 6703   3.528   2.552   7.758  0.1821 -0.0809 -0.3749
  419loPI   C4B 6704   3.782   2.740   7.457  0.1215  0.1589 -0.0371
  420loPI    C1 6705   9.757  15.457   9.953 -0.0314  0.0009 -0.3095
  420loPI    C2 6706   9.367  15.489   9.869 -0.0241  0.1276 -0.2964
  420loPI    C3 6707   9.491  15.497  10.249  0.0038  0.2307 -0.3072
  420loPI   PO4 6708   9.834  15.620   9.767  0.0379  0.0916  0.0215
  420loPI   GL1 6709  10.007  15.717   9.409  0.2609 -0.0280  0.3573
  420loPI   GL2 6710  10.164  16.030   9.406  0.1253 -0.1032  0.0168
  420loPI   C1A 6711   9.676  15.613   9.060 -0.2923 -0.2201 -0.0380
  420loPI   C2A 6712   9.646  15.840   8.779  0.0355  0.0650 -0.1248
  420loPI   C3A 6713   9.562  15.884   8.365  0.1470  0.0181  0.3612
  420loPI   C4A 6714   9.623  15.926   7.937  0.1130 -0.0575 -0.1065
  420loPI   C5A 6715   9.649  15.710   7.572  0.1889  0.2244  0.0429
  420loPI   C6A 6716   9.852  15.801   7.177  0.1371  0.0889 -0.1314
  420loPI   C1B 6717  10.128  16.006   8.945 -0.1579  0.0483 -0.1064
  420loPI   C2B 6718  10.329  15.814   8.614 -0.1898 -0.1437 -0.3188
  420loPI   C3B 6719  10.349  15.301   8.478 -0.3950 -0.1022  0.0807
  420loPI   C4B 6720  10.096  14.961   8.580  0.0827 -0.2448 -0.2435
  421loPI    C1 6721  19.662  14.006   9.294  0.1831 -0.1064 -0.1080
  421loPI    C2 6722  19.639  13.624   9.410 -0.1075 -0.1063 -0.1582
  421loPI    C3 6723  19.834  13.720   9.075  0.0004 -0.2054 -0.1242
  421loPI   PO4 6724  19.418  14.137   9.232  0.0720  0.2073 -0.1079
  421loPI   GL1 6725  19.249  13.953   8.951  0.2347 -0.1990 -0.2348
  421loPI   GL2 6726  19.369  13.889   8.803 -0.0570  0.2696  0.0240
  421loPI   C1A 6727  18.876  13.973   8.631  0.2789 -0.0014  0.1304
  421loPI   C2A 6728  18.729  13.987   8.190  0.0311 -0.1827 -0.5258
  421loPI   C3A 6729  18.735  14.212   7.863 -0.0476 -0.0578  0.3519
  421loPI   C4A 6730  18.381  14.469   7.582 -0.3646  0.0613  0.0371
  421loPI   C5A 6731  18.018  14.616   7.346 -0.1503  0.1131 -0.1995
  421loPI   C6A 6732  17.614  14.564   7.171  0.3772  0.0510  0.2692
  421loPI   C1B 6733  19.260  13.847   8.389 -0.0642 -0.0941  0.4576
  421loPI   C2B 6734  19.168  13.734   7.956 -0.3758  0.0782 -0.1450
  421loPI   C3B 6735  19.240  13.939   7.645 -0.2935  0.2744 -0.3766
  421loPI   C4B 6736  19.527  14.196   7.291 -0.1721 -0.2766 -0.0755
  422loPI    C1 6737  14.377  17.906   9.665  0.1371 -0.1875 -0.3078
  422loPI    C2 6738  14.547  18.170   9.417  0.0499 -0.1572 -0.3354
  422loPI    C3 6739  14.711  18.096   9.775  0.0245  0.0022 -0.2902
  422loPI   PO4 6740  14.333  17.702   9.529  0.0670  0.1341 -0.2507
  422loPI   GL1 6741  14.241  17.665   9.001 -0.5032  0.1227  0.1105
  422loPI   GL2 6742  14.345  17.902   9.037 -0.2652 -0.3298  0.0146
  422loPI   C1A 6743  14.309  17.516   8.594  0.1404  0.0640 -0.1470
  422loPI   C2A 6744  14.224  17.590   8.223  0.3695  0.0238 -0.3558
  422loPI   C3A 6745  14.255  17.691   7.817 -0.3845  0.0550 -0.1753
  422loPI   C4A 6746  14.388  17.743   7.412  0.3027 -0.2965  0.0884
  422loPI   C5A 6747  14.519  17.558   7.031 -0.3412 -0.0088  0.1084
  422loPI   C6A 6748  14.391  17.539   6.592 -0.0015 -0.1807 -0.4030
  422loPI   C1B 6749  14.625  17.879   8.723 -0.2158  0.1103 -0.1588
  422loPI   C2B 6750  14.583  17.905   8.323 -0.0087  0.0664  0.1304
  422loPI   C3B 6751  14.535  18.061   7.990 -0.0335 -0.0974  0.0353
  422loPI   C4B 6752  14.636  18.155   7.634  0.1569 -0.0515  0.0810
  423loPI    C1 6753   2.667   7.845   9.701  0.0529 -0.0514  0.3860
  423loPI    C2 6754   2.683   7.525   9.461  0.0053  0.0808  0.2053
  423loPI    C3 6755   2.566   7.484   9.841 -0.3232 -0.0659  0.0915
  423loPI   PO4 6756   2.683   8.081   9.491  0.0781 -0.0999 -0.1696
  423loPI   GL1 6757   2.604   8.143   9.075  0.0029  0.0845 -0.0859
  423loPI   GL2 6758   2.719   7.847   9.049 -0.0949  0.1539  0.0137
  423loPI   C1A 6759   2.432   8.021   8.708 -0.3494 -0.0772 -0.1147
  423loPI   C2A 6760   2.435   7.801   8.334 -0.1637  0.0812  0.0797
  423loPI   C3A 6761   2.462   7.628   7.983 -0.1481 -0.2641 -0.3292
  423loPI   C4A 6762   2.530   7.675   7.552  0.3313  0.1886  0.0417
  423loPI   C5A 6763   2.687   7.457   7.238  0.0575 -0.0630  0.2910
  423loPI   C6A 6764   2.482   7.214   6.941 -0.1888  0.2694 -0.1101
  423loPI   C1B 6765   2.901   7.603   8.756  0.3650  0.2606 -0.1159
  423loPI   C2B 6766   2.862   7.387   8.390 -0.2850 -0.3113  0.4905
  423loPI   C3B 6767   3.045   7.394   8.044 -0.0047  0.0440  0.0392
  423loPI   C4B 6768   2.952   7.473   7.679  0.0036  0.0291  0.0892
  424loPI    C1 6769  17.281   4.358   9.814 -0.0522  0.0737  0.0344
  424loPI    C2 6770  16.908   4.254   9.911 -0.0682  0.1641  0.0713
  424loPI    C3 6771  17.188   3.972   9.861 -0.1490  0.0939  0.0105
  424loPI   PO4 6772  17.222   4.532   9.612  0.0977 -0.0314 -0.0558
  424loPI   GL1 6773  16.943   4.593   9.288 -0.1074  0.0113  0.2729
  424loPI   GL2 6774  16.776   4.867   9.058  0.2543  0.0677 -0.0068
  424loPI   C1A 6775  17.051   4.473   8.883 -0.0801  0.1811  0.0765
  424loPI   C2A 6776  17.202   4.465   8.589 -0.3400  0.2246 -0.0910
  424loPI   C3A 6777  17.382   4.387   8.130  0.0945  0.2003 -0.0507
  424loPI   C4A 6778  17.495   4.287   7.842 -0.2400 -0.1807 -0.2143
  424loPI   C5A 6779  17.810   4.479   7.597  0.0286  0.1431  0.1481
  424loPI   C6A 6780  17.936   4.323   7.197  0.3005 -0.4595  0.2752
  424loPI   C1B 6781  16.786   4.755   8.599  0.0523 -0.0586 -0.2068
  424loPI   C2B 6782  16.858   4.646   8.157  0.0585  0.0662 -0.0509
  424loPI   C3B 6783  17.022   4.788   7.741 -0.3486  0.3404 -0.0494
  424loPI   C4B 6784  17.227   4.546   7.513 -0.1431  0.1289  0.0796
  425loPI    C1 6785   1.377   9.378  10.175 -0.3114 -0.0199  0.2344
  425loPI    C2 6786   1.753   9.512  10.172 -0.2377 -0.2154 -0.2936
  425loPI    C3 6787   1.497   9.642  10.450  0.1391  0.1349 -0.0993
  425loPI   PO4 6788   1.320   9.446   9.884  0.0772 -0.0449  0.2188
  425loPI   GL1 6789   1.556   9.470   9.607  0.1037 -0.1521 -0.1201
  425loPI   GL2 6790   1.815   9.454   9.305 -0.1337 -0.1949 -0.1058
  425loPI   C1A 6791   1.335   9.630   9.239  0.0406 -0.1828  0.0130
  425loPI   C2A 6792   1.012   9.883   9.073 -0.0817  0.2585 -0.1497
  425loPI   C3A 6793   0.800   9.981   8.737  0.0629  0.1724  0.0401
  425loPI   C4A 6794   0.915   9.802   8.346  0.0718 -0.0774 -0.1339
  425loPI   C5A 6795   0.809   9.302   8.292 -0.1759 -0.0152 -0.0903
  425loPI   C6A 6796   0.628   8.837   8.272 -0.0326 -0.1031 -0.2936
  425loPI   C1B 6797   1.919   8.991   9.045 -0.2445  0.1406 -0.2140
  425loPI   C2B 6798   2.170   8.923   8.729 -0.0080  0.2115 -0.0217
  425loPI   C3B 6799   2.400   8.946   8.414 -0.4113 -0.3166  0.1444
  425loPI   C4B 6800   2.828   8.725   8.278  0.1004  0.0269 -0.1913
  426loPI    C1 6801   7.625  17.097   9.945 -0.0540 -0.1029 -0.1685
  426loPI    C2 6802   7.256  17.162  10.085  0.1158 -0.0722  0.2831
  426loPI    C3 6803   7.510  16.931  10.290  0.2737 -0.2903 -0.1449
  426loPI   PO4 6804   7.564  17.244   9.657  0.1652  0.0804  0.1904
  426loPI   GL1 6805   7.325  17.263   9.317 -0.3031  0.1382 -0.1922
  426loPI   GL2 6806   7.134  16.961   9.286  0.1317 -0.1603 -0.0949
  426loPI   C1A 6807   7.428  17.248   8.923  0.1256 -0.1402 -0.0760
  426loPI   C2A 6808   7.410  17.331   8.555 -0.0586 -0.1035  0.2020
  426loPI   C3A 6809   7.597  17.385   8.184  0.2105  0.0266 -0.1953
  426loPI   C4A 6810   7.729  17.407   7.792 -0.0225 -0.3024  0.4766
  426loPI   C5A 6811   7.735  17.648   7.453  0.0053  0.0368  0.1588
  426loPI   C6A 6812   7.822  17.795   7.108 -0.1181  0.1123  0.1184
  426loPI   C1B 6813   7.023  17.007   8.892 -0.3825 -0.0638  0.0836
  426loPI   C2B 6814   7.042  16.943   8.510 -0.1782 -0.1172  0.1550
  426loPI   C3B 6815   7.084  17.173   8.110  0.0055 -0.0506 -0.0881
  426loPI   C4B 6816   7.281  17.312   7.718 -0.0932  0.1992  0.2620
  427loPI    C1 6817   8.142   6.145   9.868  0.1686 -0.2588  0.1948
  427loPI    C2 6818   8.011   6.500   9.996 -0.0616 -0.2217 -0.1312
  427loPI    C3 6819   8.044   6.195  10.252  0.1351  0.0303  0.1509
  427loPI   PO4 6820   8.334   6.244   9.727  0.2917  0.0453 -0.1304
  427loPI   GL1 6821   8.320   6.414   9.282  0.0219 -0.1067 -0.0946
  427loPI   GL2 6822   8.061   6.642   9.221  0.0822 -0.4101 -0.3626
  427loPI   C1A 6823   8.352   6.193   8.839  0.1565 -0.0222 -0.0907
  427loPI   C2A 6824   8.432   6.079   8.502  0.0470  0.0927 -0.1924
  427loPI   C3A 6825   8.524   6.200   8.057  0.0801  0.0784 -0.0111
  427loPI   C4A 6826   8.692   6.277   7.669 -0.0709  0.2507  0.1269
  427loPI   C5A 6827   8.974   6.580   7.494 -0.2972 -0.0344 -0.1562
  427loPI   C6A 6828   9.362   6.773   7.274 -0.0145 -0.1612  0.2672
  427loPI   C1B 6829   8.252   6.657   8.787 -0.1513 -0.0751  0.0372
  427loPI   C2B 6830   8.236   6.804   8.312  0.1956  0.1864  0.0975
  427loPI   C3B 6831   8.033   6.909   7.968 -0.0180 -0.4766 -0.1225
  427loPI   C4B 6832   8.121   7.136   7.476  0.0951  0.1253  0.2048
  428loPI    C1 6833  13.851  12.733   9.901 -0.1622 -0.2423 -0.0284
  428loPI    C2 6834  14.249  12.690   9.884 -0.1067  0.2665 -0.1701
  428loPI    C3 6835  14.045  12.543  10.195  0.2102  0.1385 -0.0187
  428loPI   PO4 6836  13.837  12.665   9.532  0.1170  0.3333 -0.2059
  428loPI   GL1 6837  13.925  12.700   9.134 -0.1861 -0.2972 -0.0209
  428loPI   GL2 6838  13.815  13.039   9.165  0.0374 -0.0203 -0.0165
  428loPI   C1A 6839  14.151  12.572   8.783 -0.0685  0.3857  0.0011
  428loPI   C2A 6840  14.282  12.440   8.447 -0.3149 -0.1602  0.1663
  428loPI   C3A 6841  14.418  12.292   8.017  0.3256 -0.2716 -0.1121
  428loPI   C4A 6842  14.686  12.101   7.654 -0.2384 -0.1017 -0.2368
  428loPI   C5A 6843  14.956  11.813   7.387 -0.3046  0.2074  0.4616
  428loPI   C6A 6844  14.825  11.603   7.126  0.2057  0.1322  0.0383
  428loPI   C1B 6845  13.983  13.429   9.172 -0.1390  0.0171 -0.0278
  428loPI   C2B 6846  14.074  13.591   8.735  0.2581  0.0663  0.1397
  428loPI   C3B 6847  14.195  13.649   8.274  0.0437 -0.0240 -0.0100
  428loPI   C4B 6848  14.023  13.845   8.054 -0.0852 -0.2460  0.0392
  429loPI    C1 6849  16.031   1.630   9.305  0.1059 -0.1006  0.1417
  429loPI    C2 6850  15.852   1.499   9.638 -0.0548 -0.1480  0.0380
  429loPI    C3 6851  15.959   1.883   9.606 -0.3952 -0.0531 -0.0076
  429loPI   PO4 6852  15.875   1.489   9.131  0.1040 -0.0618 -0.1884
  429loPI   GL1 6853  16.056   1.407   8.751  0.3288  0.0661  0.0323
  429loPI   GL2 6854  15.999   1.745   8.726  0.0213  0.1411 -0.2692
  429loPI   C1A 6855  15.838   1.155   8.448 -0.1682  0.0181 -0.2069
  429loPI   C2A 6856  15.583   1.043   8.202  0.2100 -0.1583  0.3566
  429loPI   C3A 6857  15.505   0.717   8.036  0.1481 -0.2505 -0.2147
  429loPI   C4A 6858  15.440   0.545   7.722 -0.1717  0.1600  0.0106
  429loPI   C5A 6859  15.143   0.278   7.458 -0.0043  0.0798 -0.1189
  429loPI   C6A 6860  15.283  -0.091   7.197 -0.4036 -0.0985  0.0909
  429loPI   C1B 6861  15.904   1.718   8.353 -0.3735 -0.2659  0.0361
  429loPI   C2B 6862  16.032   1.368   8.061 -0.1984 -0.3699 -0.0102
  429loPI   C3B 6863  16.247   1.044   7.932  0.0521  0.2024  0.1205
  429loPI   C4B 6864  16.236   1.009   7.448  0.0673  0.2471  0.1778
  430loPI    C1 6865  11.024   2.812   9.345 -0.1621 -0.0245 -0.1223
  430loPI    C2 6866  10.696   2.989   9.492 -0.2679 -0.0401 -0.3364
  430loPI    C3 6867  10.970   2.838   9.741 -0.2310  0.3222 -0.1513
  430loPI   PO4 6868  10.967   2.670   9.159 -0.0701 -0.2130  0.1197
  430loPI   GL1 6869  11.147   2.827   8.779  0.3654  0.0365  0.1100
  430loPI   GL2 6870  11.226   2.587   8.719 -0.2713 -0.1330 -0.1348
  430loPI   C1A 6871  11.310   2.956   8.403 -0.0237 -0.2009  0.2934
  430loPI   C2A 6872  11.367   3.095   7.935  0.0479  0.1333 -0.1039
  430loPI   C3A 6873  11.347   3.309   7.531 -0.1790  0.0273  0.0507
  430loPI   C4A 6874  11.417   3.594   7.186  0.0396 -0.0056 -0.1182
  430loPI   C5A 6875  11.696   3.618   6.919  0.0729  0.0993  0.0188
  430loPI   C6A 6876  11.802   3.737   6.526 -0.1174  0.1946  0.1043
  430loPI   C1B 6877  11.123   2.499   8.257 -0.0390 -0.2662  0.0491
  430loPI   C2B 6878  11.074   2.541   7.809 -0.1103 -0.1668  0.1739
  430loPI   C3B 6879  10.819   2.382   7.492  0.3165 -0.3494  0.2693
  430loPI   C4B 6880  10.662   2.253   7.074 -0.0607  0.0481 -0.0353
  431loPI    C1 6881  16.594  13.820   9.899 -0.2500 -0.2579 -0.0563
  431loPI    C2 6882  16.612  13.489  10.123 -0.0530 -0.1044  0.1597
  431loPI    C3 6883  16.796  13.823  10.244  0.2481 -0.0784 -0.3379
  431loPI   PO4 6884  16.435  13.748   9.617  0.2276  0.3773 -0.2768
  431loPI   GL1 6885  16.355  13.543   9.318 -0.0140  0.1935 -0.0690
  431loPI   GL2 6886  16.578  13.337   9.291  0.2801  0.0064 -0.1391
  431loPI   C1A 6887  16.279  13.360   8.941  0.2261 -0.3367  0.4058
  431loPI   C2A 6888  16.228  13.355   8.532 -0.2546  0.0913  0.0834
  431loPI   C3A 6889  16.040  13.501   8.103 -0.0610 -0.3193 -0.1831
  431loPI   C4A 6890  16.043  13.248   7.722 -0.1482 -0.1703  0.0632
  431loPI   C5A 6891  16.425  13.074   7.633  0.1220  0.1390  0.0339
  431loPI   C6A 6892  16.551  12.675   7.324  0.2235 -0.1808 -0.0745
  431loPI   C1B 6893  16.773  13.402   8.925  0.2227  0.2005 -0.1341
  431loPI   C2B 6894  16.814  13.499   8.492  0.0507 -0.1212 -0.1010
  431loPI   C3B 6895  16.916  13.357   8.103  0.1283 -0.2266  0.1060
  431loPI   C4B 6896  16.795  13.388   7.667 -0.0994  0.3785  0.3589
  432loPI    C1 6897   6.254   4.521   9.966  0.1053  0.0953  0.1605
  432loPI    C2 6898   6.393   4.147   9.993  0.1134  0.0856 -0.0073
  432loPI    C3 6899   6.630   4.456  10.086  0.0612  0.0436  0.2718
  432loPI   PO4 6900   6.100   4.554   9.764  0.0773  0.2508  0.1718
  432loPI   GL1 6901   6.007   4.486   9.286  0.0254 -0.1764 -0.0321
  432loPI   GL2 6902   6.163   4.173   9.343 -0.1054 -0.1269 -0.0125
  432loPI   C1A 6903   6.232   4.480   8.848  0.0220 -0.1904 -0.3129
  432loPI   C2A 6904   6.176   4.394   8.441 -0.3169 -0.0356  0.2538
  432loPI   C3A 6905   6.013   4.534   8.029 -0.2486  0.0771  0.0104
  432loPI   C4A 6906   6.199   4.540   7.569 -0.1210  0.2287  0.2034
  432loPI   C5A 6907   6.540   4.399   7.323  0.1612 -0.1347 -0.0922
  432loPI   C6A 6908   6.999   4.446   7.336  0.2320 -0.0393  0.3649
  432loPI   C1B 6909   6.483   4.031   9.193  0.1325  0.1162 -0.1947
  432loPI   C2B 6910   6.761   4.102   8.780  0.4042 -0.0768  0.2795
  432loPI   C3B 6911   6.801   4.134   8.306  0.0513 -0.2661  0.1313
  432loPI   C4B 6912   7.028   4.144   7.859  0.1643  0.0975  0.2338
  433loPI    C1 6913   4.867   9.734   9.984  0.0055  0.1563 -0.0172
  433loPI    C2 6914   5.075  10.074  10.022  0.3220  0.0089 -0.3718
  433loPI    C3 6915   5.140   9.770  10.274 -0.0141  0.2301 -0.0074
  433loPI   PO4 6916   4.624   9.899   9.840  0.3354  0.2144  0.4264
  433loPI   GL1 6917   4.397   9.908   9.504 -0.0952 -0.3539  0.0361
  433loPI   GL2 6918   4.745  10.065   9.367 -0.0687 -0.4402 -0.2592
  433loPI   C1A 6919   4.205  10.073   9.078 -0.1581 -0.0883  0.1631
  433loPI   C2A 6920   4.094  10.081   8.604 -0.0574  0.1746 -0.2777
  433loPI   C3A 6921   3.711  10.047   8.371 -0.2274 -0.3505  0.3768
  433loPI   C4A 6922   3.518  10.016   7.981 -0.0174 -0.0828 -0.1737
  433loPI   C5A 6923   3.478  10.037   7.490  0.3019 -0.0730 -0.1281
  433loPI   C6A 6924   3.619  10.235   7.094 -0.1699 -0.1311  0.0566
  433loPI   C1B 6925   4.804  10.108   8.959  0.1359  0.3075  0.3257
  433loPI   C2B 6926   4.617  10.057   8.578 -0.1529  0.0773 -0.0419
  433loPI   C3B 6927   4.634   9.868   8.149  0.2444  0.2502  0.0755
  433loPI   C4B 6928   4.619   9.645   7.800 -0.0320 -0.1609 -0.0680
  434loPI    C1 6929   1.872   9.792   9.737 -0.0975  0.2583  0.0251
  434loPI    C2 6930   1.902   9.987  10.085  0.0135 -0.1619  0.2575
  434loPI    C3 6931   1.543   9.926   9.920 -0.0232  0.2194  0.1887
  434loPI   PO4 6932   2.080   9.499   9.721 -0.0407 -0.0687 -0.2158
  434loPI   GL1 6933   2.279   9.273   9.509  0.5218  0.0120  0.0990
  434loPI   GL2 6934   2.141   8.936   9.498 -0.2391  0.0445  0.1286
  434loPI   C1A 6935   2.351   9.304   9.116  0.2063 -0.1882  0.2317
  434loPI   C2A 6936   2.215   9.448   8.757 -0.2576 -0.1367  0.1224
  434loPI   C3A 6937   2.201   9.391   8.351  0.2356  0.3044  0.0591
  434loPI   C4A 6938   2.431   9.513   8.001  0.1500 -0.0114  0.1615
  434loPI   C5A 6939   2.778   9.549   7.835  0.0332 -0.0871  0.3399
  434loPI   C6A 6940   3.105   9.796   7.760 -0.0468 -0.1535 -0.1538
  434loPI   C1B 6941   2.423   8.739   9.152  0.5221 -0.1636 -0.2449
  434loPI   C2B 6942   2.476   8.546   8.821 -0.2049 -0.0875 -0.0667
  434loPI   C3B 6943   2.409   8.448   8.435 -0.4233 -0.2993  0.1047
  434loPI   C4B 6944   2.214   8.220   8.145 -0.0793 -0.2456 -0.2316
  435loPI    C1 6945   0.529   2.027   9.634  0.0149  0.2064 -0.1520
  435loPI    C2 6946   0.203   1.956   9.854  0.1079 -0.0974 -0.1088
  435loPI    C3 6947   0.392   2.307   9.884 -0.0506 -0.0267  0.0766
  435loPI   PO4 6948   0.467   1.939   9.367  0.2134  0.0426  0.4208
  435loPI   GL1 6949   0.207   1.909   9.056 -0.3811 -0.0060  0.1395
  435loPI   GL2 6950   0.348   2.249   8.971 -0.1738 -0.1853  0.0601
  435loPI   C1A 6951   0.055   1.990   8.708  0.2875  0.1424 -0.2726
  435loPI   C2A 6952   0.173   2.027   8.262  0.2077  0.1795  0.0303
  435loPI   C3A 6953   0.135   1.984   7.861  0.0084  0.0952  0.0503
  435loPI   C4A 6954   0.161   2.214   7.420 -0.0330 -0.0178 -0.1466
  435loPI   C5A 6955   0.269   2.469   7.131  0.1708  0.1860  0.0372
  435loPI   C6A 6956   0.692   2.521   7.022  0.2580 -0.0155 -0.3142
  435loPI   C1B 6957   0.623   2.287   8.700 -0.1305  0.1030  0.0450
  435loPI   C2B 6958   1.031   2.309   8.646  0.0482  0.4912 -0.2119
  435loPI   C3B 6959   1.160   2.135   8.310  0.0091  0.0741  0.1934
  435loPI   C4B 6960   1.463   2.056   8.029 -0.2277  0.0032  0.1783
  436loPI    C1 6961  14.977  14.269   9.526  0.0397 -0.0580  0.1592
  436loPI    C2 6962  14.996  14.562   9.798  0.0438  0.0385  0.0552
  436loPI    C3 6963  15.330  14.375   9.682  0.0671  0.1305 -0.0275
  436loPI   PO4 6964  14.828  14.377   9.357  0.0875 -0.2979 -0.0413
  436loPI   GL1 6965  14.748  14.130   9.000 -0.1577 -0.1106 -0.2732
  436loPI   GL2 6966  15.218  14.198   9.008  0.1177  0.1642 -0.0294
  436loPI   C1A 6967  14.698  14.278   8.573  0.2501 -0.5296  0.1989
  436loPI   C2A 6968  14.759  14.337   8.147 -0.1894 -0.2114  0.2756
  436loPI   C3A 6969  14.631  14.493   7.810 -0.1154 -0.0611  0.1674
  436loPI   C4A 6970  14.430  14.650   7.458 -0.1039 -0.0080 -0.0052
  436loPI   C5A 6971  14.220  14.522   7.180  0.0333  0.1200 -0.0886
  436loPI   C6A 6972  13.989  14.486   6.706  0.1016 -0.4063 -0.0843
  436loPI   C1B 6973  15.024  13.833   8.672  0.0704  0.0450  0.1186
  436loPI   C2B 6974  14.797  13.857   8.212 -0.1764  0.2507  0.2192
  436loPI   C3B 6975  14.489  13.886   7.959 -0.1185 -0.0417  0.0758
  436loPI   C4B 6976  14.329  14.110   7.656  0.4218 -0.3270  0.0513
  437loPI    C1 6977  12.599   1.185   9.665 -0.3006 -0.0978 -0.1665
  437loPI    C2 6978  12.852   1.427   9.859 -0.3211  0.1559 -0.4497
  437loPI    C3 6979  12.560   1.241  10.060 -0.1575  0.1755 -0.1891
  437loPI   PO4 6980  12.486   1.406   9.393  0.1130  0.1750  0.2395
  437loPI   GL1 6981  12.450   1.300   8.939 -0.3024  0.1904 -0.2171
  437loPI   GL2 6982  12.740   1.314   8.762  0.0395  0.0743 -0.0623
  437loPI   C1A 6983  12.175   1.429   8.561 -0.0809 -0.0719  0.0689
  437loPI   C2A 6984  12.032   1.779   8.138  0.0996  0.1772 -0.1613
  437loPI   C3A 6985  11.822   2.028   7.903 -0.3626 -0.2893 -0.1101
  437loPI   C4A 6986  11.819   2.292   7.563 -0.0649  0.1280 -0.1188
  437loPI   C5A 6987  12.139   2.151   7.259  0.2599 -0.2179 -0.2157
  437loPI   C6A 6988  12.276   1.730   7.077 -0.0586 -0.5454 -0.1675
  437loPI   C1B 6989  12.621   1.289   8.323  0.1869  0.2960 -0.1281
  437loPI   C2B 6990  12.662   1.440   7.939 -0.1163 -0.0254 -0.2293
  437loPI   C3B 6991  12.519   1.555   7.511 -0.0902  0.2414 -0.0491
  437loPI   C4B 6992  12.216   1.315   7.287 -0.0833  0.0375  0.0950
  438loPI    C1 6993  17.011  11.005   9.660 -0.0150 -0.1744  0.0265
  438loPI    C2 6994  16.749  11.293   9.752  0.0111 -0.1899  0.1515
  438loPI    C3 6995  16.691  10.921   9.886 -0.1022 -0.2772 -0.1338
  438loPI   PO4 6996  16.988  10.974   9.387 -0.0782  0.3580  0.0649
  438loPI   GL1 6997  16.765  10.994   9.045 -0.2229 -0.2032 -0.1806
  438loPI   GL2 6998  16.545  10.752   9.023 -0.0053 -0.4878  0.0883
  438loPI   C1A 6999  16.658  11.430   8.834 -0.3526  0.0976  0.1454
  438loPI   C2A 7000  16.804  11.706   8.467 -0.2263  0.1420  0.0514
  438loPI   C3A 7001  16.924  11.774   8.021  0.2658  0.1607  0.1634
  438loPI   C4A 7002  16.998  11.887   7.575  0.2424  0.0158 -0.2724
  438loPI   C5A 7003  17.070  11.945   7.083  0.0218  0.3248 -0.1054
  438loPI   C6A 7004  16.988  12.232   6.797 -0.0018  0.1000  0.1817
  438loPI   C1B 7005  16.781  10.580   8.701  0.2337  0.0166 -0.1863
  438loPI   C2B 7006  16.866  10.662   8.238  0.1236 -0.1307 -0.0019
  438loPI   C3B 7007  17.278  10.908   8.116  0.0202 -0.0259  0.0136
  438loPI   C4B 7008  17.551  11.179   7.857 -0.0866 -0.4121 -0.1143
  439loPI    C1 7009   8.917  11.794   9.893  0.1046 -0.0340  0.1980
  439loPI    C2 7010   8.910  12.160   9.731 -0.2074 -0.0903  0.0778
  439loPI    C3 7011   9.042  12.109  10.105  0.0920  0.1048  0.0016
  439loPI   PO4 7012   8.989  11.634   9.671 -0.2087  0.1652  0.0055
  439loPI   GL1 7013   9.268  11.590   9.338  0.0301 -0.1626 -0.2053
  439loPI   GL2 7014   9.187  11.956   9.278  0.1395 -0.0373 -0.3131
  439loPI   C1A 7015   9.363  11.277   9.143  0.0021  0.1419 -0.0554
  439loPI   C2A 7016   9.575  10.883   9.142  0.1403 -0.2741 -0.0719
  439loPI   C3A 7017   9.366  10.503   9.053  0.3434  0.4078 -0.2521
  439loPI   C4A 7018   9.125  10.246   8.808 -0.2150  0.0111  0.0110
  439loPI   C5A 7019   9.053  10.248   8.345  0.1764 -0.2874 -0.1986
  439loPI   C6A 7020   9.149  10.150   7.915  0.0771 -0.2953  0.1107
  439loPI   C1B 7021   9.154  11.745   8.854 -0.0365 -0.1227  0.0378
  439loPI   C2B 7022   9.104  11.759   8.401 -0.3444 -0.0206  0.2184
  439loPI   C3B 7023   8.877  11.579   8.056  0.3444 -0.0575 -0.3006
  439loPI   C4B 7024   8.780  11.356   7.668 -0.0285 -0.0827 -0.3040
  440loPI    C1 7025  14.378  14.107   9.593 -0.0645  0.0435  0.3441
  440loPI    C2 7026  14.216  14.360   9.329  0.1772 -0.1089  0.0427
  440loPI    C3 7027  14.441  14.500   9.629 -0.0245  0.0595  0.1174
  440loPI   PO4 7028  14.600  13.914   9.425 -0.0784  0.0952  0.1613
  440loPI   GL1 7029  14.624  13.605   9.167 -0.1261  0.0633 -0.1184
  440loPI   GL2 7030  14.875  13.463   9.013  0.0624 -0.2986  0.1987
  440loPI   C1A 7031  14.495  13.860   8.695 -0.0747  0.2810  0.2929
  440loPI   C2A 7032  14.302  14.113   8.391  0.1417  0.0803  0.1499
  440loPI   C3A 7033  14.262  14.331   8.130 -0.1906 -0.1267 -0.0349
  440loPI   C4A 7034  14.085  14.680   7.865 -0.2727  0.1986 -0.2675
  440loPI   C5A 7035  13.899  14.813   7.429  0.2533  0.2717  0.0091
  440loPI   C6A 7036  13.819  14.855   7.021 -0.0802  0.2209 -0.0400
  440loPI   C1B 7037  14.749  13.407   8.558  0.3184  0.2042 -0.2475
  440loPI   C2B 7038  14.552  13.334   8.204  0.2306  0.0064  0.0610
  440loPI   C3B 7039  14.581  13.243   7.741  0.1030  0.2359  0.6781
  440loPI   C4B 7040  14.709  13.614   7.445 -0.0840  0.0820  0.0230
  441loPI    C1 7041   5.261  14.454   9.900 -0.1241 -0.1845 -0.0149
  441loPI    C2 7042   5.130  14.392  10.272  0.0232 -0.1159  0.0492
  441loPI    C3 7043   4.870  14.475   9.980 -0.0905 -0.1430  0.1417
  441loPI   PO4 7044   5.394  14.283   9.840  0.0010 -0.2036 -0.2690
  441loPI   GL1 7045   5.498  14.097   9.509 -0.2366  0.0193 -0.2210
  441loPI   GL2 7046   5.305  14.303   9.369  0.3442  0.0175 -0.0012
  441loPI   C1A 7047   5.531  13.970   9.092  0.1175  0.2284  0.0079
  441loPI   C2A 7048   5.466  13.807   8.723 -0.3088 -0.1610 -0.1264
  441loPI   C3A 7049   5.329  13.744   8.248  0.1086  0.2659 -0.4323
  441loPI   C4A 7050   5.339  13.644   7.773  0.3623 -0.2156 -0.0744
  441loPI   C5A 7051   5.743  13.733   7.510  0.1300 -0.1504  0.0521
  441loPI   C6A 7052   6.019  14.122   7.501  0.1736  0.3073 -0.2540
  441loPI   C1B 7053   5.319  14.521   8.994 -0.0507  0.0035  0.1334
  441loPI   C2B 7054   5.443  14.619   8.592 -0.0177 -0.0775 -0.1548
  441loPI   C3B 7055   5.547  15.017   8.363 -0.0364  0.0804 -0.3231
  441loPI   C4B 7056   5.449  15.401   8.181 -0.1747 -0.1627 -0.1843
  442loPI    C1 7057  13.041   0.601   9.341 -0.0169  0.3071  0.0539
  442loPI    C2 7058  13.079   0.386   9.677  0.1995  0.1097 -0.0937
  442loPI    C3 7059  13.381   0.615   9.551  0.1239  0.1729 -0.1615
  442loPI   PO4 7060  12.976   0.440   9.094  0.2312 -0.0379 -0.4133
  442loPI   GL1 7061  12.886   0.456   8.600 -0.1918  0.1517  0.3022
  442loPI   GL2 7062  12.741   0.763   8.775  0.0446 -0.1749  0.0405
  442loPI   C1A 7063  12.729   0.238   8.166 -0.4730  0.1429 -0.0623
  442loPI   C2A 7064  12.378   0.097   7.847 -0.0790 -0.1604 -0.2127
  442loPI   C3A 7065  12.254   0.137   7.421 -0.2008 -0.2930  0.0286
  442loPI   C4A 7066  12.012   0.362   7.071 -0.1191 -0.0969 -0.0262
  442loPI   C5A 7067  11.661   0.558   6.831  0.0637  0.1639  0.2665
  442loPI   C6A 7068  11.773   0.769   6.429  0.2183 -0.3881 -0.1613
  442loPI   C1B 7069  12.621   0.791   8.352  0.2991  0.0348  0.0565
  442loPI   C2B 7070  12.438   0.936   8.007 -0.2146 -0.0939  0.2424
  442loPI   C3B 7071  12.098   1.268   7.867  0.2015 -0.1201  0.0243
  442loPI   C4B 7072  12.045   1.716   7.524 -0.0441 -0.0520 -0.2700
  443loPI    C1 7073   3.747   1.816   9.587 -0.2206 -0.2360  0.4014
  443loPI    C2 7074   3.737   2.213   9.635  0.3894 -0.1607  0.0172
  443loPI    C3 7075   3.802   1.975   9.950  0.0534  0.0389  0.2440
  443loPI   PO4 7076   3.932   1.799   9.402  0.1648  0.3319 -0.1151
  443loPI   GL1 7077   3.894   1.851   8.919  0.1931  0.1837 -0.2260
  443loPI   GL2 7078   4.238   1.883   8.947 -0.0346 -0.2455  0.1564
  443loPI   C1A 7079   3.634   1.882   8.507 -0.1503 -0.0102  0.0704
  443loPI   C2A 7080   3.751   2.061   8.078 -0.0898  0.1384  0.2735
  443loPI   C3A 7081   3.997   2.264   7.733  0.0450 -0.2371  0.0175
  443loPI   C4A 7082   4.140   2.387   7.359 -0.0644  0.1845 -0.2338
  443loPI   C5A 7083   3.968   2.607   7.003  0.0148 -0.1102  0.0411
  443loPI   C6A 7084   4.234   2.894   6.761 -0.0203  0.1349  0.2797
  443loPI   C1B 7085   4.195   1.905   8.430 -0.2176  0.0959 -0.0392
  443loPI   C2B 7086   4.085   1.615   8.087 -0.0226  0.0144  0.0611
  443loPI   C3B 7087   3.892   1.390   7.766  0.1407 -0.1534  0.4536
  443loPI   C4B 7088   3.633   1.215   7.517  0.2750 -0.0806 -0.0694
  444loPI    C1 7089   5.325  16.393   9.982 -0.4682  0.1574  0.2290
  444loPI    C2 7090   5.363  16.114  10.266 -0.1282 -0.0728 -0.0332
  444loPI    C3 7091   5.595  16.440  10.273 -0.2290 -0.0017  0.0374
  444loPI   PO4 7092   5.245  16.201   9.733  0.0036 -0.1496 -0.0013
  444loPI   GL1 7093   5.175  16.214   9.364 -0.1829  0.1217  0.0692
  444loPI   GL2 7094   4.916  16.374   9.179  0.2192 -0.0541  0.1540
  444loPI   C1A 7095   5.163  15.910   9.070  0.0636 -0.0482 -0.0104
  444loPI   C2A 7096   5.205  15.731   8.742 -0.0290  0.0389 -0.0159
  444loPI   C3A 7097   5.233  15.849   8.324 -0.1299  0.0252  0.1878
  444loPI   C4A 7098   5.325  16.256   8.039  0.0974  0.1111 -0.0796
  444loPI   C5A 7099   5.424  16.465   7.575 -0.1981  0.1845  0.3901
  444loPI   C6A 7100   5.505  16.374   7.231 -0.0870  0.2098 -0.0580
  444loPI   C1B 7101   4.907  16.373   8.750 -0.3274  0.0237 -0.1039
  444loPI   C2B 7102   4.877  16.310   8.270  0.1951  0.0544  0.2273
  444loPI   C3B 7103   4.876  16.060   7.964  0.1695 -0.3853  0.2436
  444loPI   C4B 7104   4.714  15.762   7.657 -0.2330 -0.2798  0.3595
  445loPI    C1 7105  15.919  10.847  10.020 -0.0712  0.0440  0.0786
  445loPI    C2 7106  15.897  10.525  10.256  0.0135 -0.0412 -0.0288
  445loPI    C3 7107  16.190  10.792  10.309 -0.0174 -0.0164  0.0171
  445loPI   PO4 7108  15.821  10.758   9.705  0.0888 -0.1048  0.2707
  445loPI   GL1 7109  15.696  10.706   9.271  0.2556  0.0321 -0.3209
  445loPI   GL2 7110  15.331  10.618   9.183  0.0773 -0.0560 -0.3409
  445loPI   C1A 7111  15.611  11.086   9.033  0.4715  0.0303 -0.0803
  445loPI   C2A 7112  15.623  11.073   8.580 -0.2640 -0.0526 -0.0317
  445loPI   C3A 7113  15.845  11.325   8.281 -0.2366  0.0109  0.0888
  445loPI   C4A 7114  15.834  11.464   7.892 -0.2594  0.2352  0.0663
  445loPI   C5A 7115  15.838  11.373   7.537 -0.1411  0.2129 -0.0191
  445loPI   C6A 7116  15.682  11.281   7.192  0.1273  0.1245 -0.0351
  445loPI   C1B 7117  15.363  10.669   8.712  0.2036 -0.0434 -0.1331
  445loPI   C2B 7118  15.343  10.780   8.234 -0.0008  0.0996 -0.1955
  445loPI   C3B 7119  15.234  10.797   7.811  0.2795 -0.0233  0.1500
  445loPI   C4B 7120  14.980  11.234   7.583 -0.1843 -0.3596 -0.1363
  446loPI    C1 7121  19.391   7.455   9.818  0.0973 -0.0554 -0.0333
  446loPI    C2 7122  19.291   7.782  10.025 -0.0746 -0.1701  0.0683
  446loPI    C3 7123  19.060   7.657   9.723  0.2187  0.0433 -0.2528
  446loPI   PO4 7124  19.632   7.463   9.754 -0.4251 -0.1396  0.0730
  446loPI   GL1 7125  19.840   7.533   9.385 -0.0420 -0.5593  0.0008
  446loPI   GL2 7126  19.873   7.277   9.384  0.1062 -0.1441  0.0125
  446loPI   C1A 7127  19.828   7.500   8.877 -0.1559 -0.2578 -0.4928
  446loPI   C2A 7128  19.939   7.419   8.476 -0.0819  0.0651  0.2063
  446loPI   C3A 7129  19.886   7.312   8.078 -0.1417  0.0156  0.1131
  446loPI   C4A 7130  19.919   7.318   7.626 -0.1203  0.1096  0.0735
  446loPI   C5A 7131  19.609   7.477   7.256 -0.2428 -0.1273 -0.1215
  446loPI   C6A 7132  19.590   7.470   6.883 -0.0543 -0.1689  0.0801
  446loPI   C1B 7133  19.879   7.059   9.058 -0.0079 -0.1113 -0.0510
  446loPI   C2B 7134  20.152   7.025   8.791 -0.1095 -0.3228 -0.0543
  446loPI   C3B 7135  20.564   7.010   8.930  0.1666  0.2064 -0.0785
  446loPI   C4B 7136  20.892   6.609   9.006  0.2309  0.0588  0.0804
  447loPI    C1 7137   0.286  11.927   9.785 -0.0700  0.0701  0.0058
  447loPI    C2 7138   0.119  12.267   9.914  0.0103  0.1156 -0.0088
  447loPI    C3 7139   0.104  11.937  10.141 -0.3284  0.0477 -0.1232
  447loPI   PO4 7140   0.544  12.009   9.684 -0.0811  0.1933  0.1171
  447loPI   GL1 7141   0.619  11.833   9.337 -0.0617  0.0281  0.5177
  447loPI   GL2 7142   0.428  11.611   9.362 -0.0221  0.3583  0.0296
  447loPI   C1A 7143   0.521  11.973   8.898  0.0503  0.0508 -0.0704
  447loPI   C2A 7144   0.260  11.984   8.528  0.1606  0.2411 -0.6869
  447loPI   C3A 7145  -0.025  12.239   8.274 -0.1208  0.0230  0.0674
  447loPI   C4A 7146  -0.222  12.322   7.825 -0.0217  0.2157 -0.1135
  447loPI   C5A 7147  -0.181  12.077   7.501  0.0983  0.0526 -0.0583
  447loPI   C6A 7148  -0.222  11.692   7.239  0.0374  0.5234 -0.1247
  447loPI   C1B 7149   0.221  11.584   9.003 -0.4988  0.0016 -0.0932
  447loPI   C2B 7150   0.143  11.411   8.619  0.1724  0.0165  0.4105
  447loPI   C3B 7151   0.185  11.078   8.285  0.2908  0.0062 -0.3616
  447loPI   C4B 7152  -0.046  10.879   8.052  0.1216 -0.3125 -0.1260
  448loPI    C1 7153   7.299   0.936   9.436 -0.1995  0.0627  0.1943
  448loPI    C2 7154   7.580   0.780   9.673 -0.0710  0.0404  0.0289
  448loPI    C3 7155   7.237   0.911   9.831 -0.0061 -0.0162  0.2208
  448loPI   PO4 7156   7.355   0.811   9.236 -0.0201  0.1959 -0.0625
  448loPI   GL1 7157   6.946   0.707   8.878 -0.2067 -0.3871  0.1205
  448loPI   GL2 7158   7.223   0.667   8.784  0.0834  0.0439  0.1146
  448loPI   C1A 7159   6.921   0.685   8.437 -0.0038 -0.1075 -0.2220
  448loPI   C2A 7160   6.918   0.707   8.028  0.1580 -0.1885 -0.2548
  448loPI   C3A 7161   6.955   0.744   7.654 -0.0543 -0.1919 -0.3336
  448loPI   C4A 7162   6.974   0.776   7.129 -0.3600 -0.1089 -0.1759
  448loPI   C5A 7163   6.728   0.572   6.842  0.3313 -0.0496  0.3164
  448loPI   C6A 7164   6.487   0.154   6.931  0.1832 -0.3660 -0.1333
  448loPI   C1B 7165   7.424   0.637   8.557  0.1520  0.0380 -0.0793
  448loPI   C2B 7166   7.371   0.492   8.156  0.0475 -0.0491  0.0192
  448loPI   C3B 7167   7.440   0.634   7.765 -0.0103  0.3342 -0.0661
  448loPI   C4B 7168   7.443   0.742   7.388 -0.1795  0.0567 -0.0732
  449loPI    C1 7169   1.326   8.490  10.028  0.1840  0.3501 -0.1401
  449loPI    C2 7170   1.482   8.374  10.378  0.0810 -0.0272 -0.2141
  449loPI    C3 7171   1.148   8.594  10.371  0.0037 -0.1384 -0.0761
  449loPI   PO4 7172   1.466   8.591   9.880 -0.2479 -0.0614 -0.2378
  449loPI   GL1 7173   1.426   8.759   9.425  0.0676 -0.3360 -0.1243
  449loPI   GL2 7174   1.266   9.036   9.491  0.2293  0.3096  0.0916
  449loPI   C1A 7175   1.545   8.667   8.999 -0.1744 -0.0791  0.2398
  449loPI   C2A 7176   1.481   8.606   8.556  0.0169  0.1370  0.2909
  449loPI   C3A 7177   1.144   8.361   8.220  0.2470  0.2544 -0.0255
  449loPI   C4A 7178   0.920   8.457   7.879 -0.0001 -0.1858  0.0600
  449loPI   C5A 7179   0.940   8.589   7.554  0.2964 -0.0803 -0.0668
  449loPI   C6A 7180   1.210   8.702   7.196 -0.0648  0.0290  0.0886
  449loPI   C1B 7181   1.464   9.184   9.097  0.0584 -0.0448  0.2146
  449loPI   C2B 7182   1.646   9.114   8.690  0.1799  0.1373 -0.2977
  449loPI   C3B 7183   1.829   9.082   8.324  0.1451  0.1535 -0.2037
  449loPI   C4B 7184   1.698   8.850   8.007 -0.0044  0.2860  0.1359
  450loPI    C1 7185   6.805   8.918   9.991  0.1117 -0.0199  0.1578
  450loPI    C2 7186   7.155   8.771   9.866  0.1217  0.0297  0.1275
  450loPI    C3 7187   6.945   8.576  10.144 -0.0687 -0.2683 -0.2162
  450loPI   PO4 7188   6.683   9.058   9.737 -0.0538 -0.1171  0.0877
  450loPI   GL1 7189   6.795   8.846   9.358 -0.3075 -0.0153  0.2509
  450loPI   GL2 7190   6.774   8.587   9.570  0.0833 -0.1442 -0.1055
  450loPI   C1A 7191   6.419   8.711   9.076  0.2728  0.1246 -0.0326
  450loPI   C2A 7192   6.469   8.620   8.656  0.0537  0.0865  0.1268
  450loPI   C3A 7193   6.636   8.566   8.269  0.1200 -0.0166 -0.0927
  450loPI   C4A 7194   6.694   8.757   7.804  0.0065  0.1628  0.1469
  450loPI   C5A 7195   6.860   8.522   7.531  0.1055  0.0102 -0.1148
  450loPI   C6A 7196   7.170   8.355   7.292 -0.2875  0.0537  0.0290
  450loPI   C1B 7197   6.791   8.307   9.251 -0.1687  0.3305 -0.0505
  450loPI   C2B 7198   6.902   8.032   8.871 -0.1254 -0.0376  0.1269
  450loPI   C3B 7199   7.034   7.997   8.422  0.1860 -0.0489 -0.0586
  450loPI   C4B 7200   7.093   8.182   8.007 -0.1282 -0.1417 -0.1501
  451loPI    C1 7201   3.477   7.168   9.623 -0.2002 -0.0879  0.3136
  451loPI    C2 7202   3.163   7.315   9.424  0.2763  0.2896 -0.1908
  451loPI    C3 7203   3.214   6.919   9.454 -0.1488  0.2259 -0.2517
  451loPI   PO4 7204   3.661   7.338   9.607  0.1141 -0.2645  0.1159
  451loPI   GL1 7205   3.584   7.614   9.319  0.0048  0.0523  0.0256
  451loPI   GL2 7206   3.306   7.518   9.014  0.3469 -0.0905 -0.1110
  451loPI   C1A 7207   3.705   7.774   8.894 -0.0097  0.2027  0.0406
  451loPI   C2A 7208   3.640   7.546   8.409  0.1362  0.0538 -0.4818
  451loPI   C3A 7209   3.501   7.402   7.827  0.0485 -0.2758  0.0409
  451loPI   C4A 7210   3.318   7.579   7.396  0.0264 -0.5429  0.1301
  451loPI   C5A 7211   3.123   7.501   7.044 -0.0762  0.0202  0.1141
  451loPI   C6A 7212   2.880   7.451   6.729 -0.0212  0.0953  0.2434
  451loPI   C1B 7213   3.476   7.101   8.959  0.1692  0.0403 -0.2103
  451loPI   C2B 7214   3.814   7.076   8.600 -0.1371  0.2003 -0.2687
  451loPI   C3B 7215   4.068   6.964   8.181 -0.0721 -0.0932 -0.2651
  451loPI   C4B 7216   4.398   6.693   7.938  0.0903  0.0891 -0.0724
  452loPI    C1 7217  13.851   0.424   9.342  0.2522 -0.1518 -0.0135
  452loPI    C2 7218  14.115   0.713   9.423 -0.0016  0.0814 -0.0013
  452loPI    C3 7219  13.865   0.586   9.707 -0.2275  0.2045 -0.1424
  452loPI   PO4 7220  13.735   0.483   9.095 -0.2986 -0.3592  0.3556
  452loPI   GL1 7221  13.688   0.356   8.611  0.1789 -0.1058 -0.2449
  452loPI   GL2 7222  13.416   0.306   8.750 -0.0925  0.2326 -0.1469
  452loPI   C1A 7223  13.751   0.206   8.201  0.0991 -0.4405 -0.0433
  452loPI   C2A 7224  13.734   0.142   7.786  0.0057 -0.2410  0.1086
  452loPI   C3A 7225  13.752   0.031   7.302 -0.1794 -0.3363  0.1905
  452loPI   C4A 7226  13.610   0.294   7.006 -0.1820  0.3292  0.3653
  452loPI   C5A 7227  13.454   0.090   6.696 -0.0941  0.2557  0.3030
  452loPI   C6A 7228  13.457   0.337   6.267  0.1599  0.5241  0.2569
  452loPI   C1B 7229  13.230   0.206   8.332  0.0282 -0.3996  0.1121
  452loPI   C2B 7230  13.160   0.246   7.893  0.1012 -0.1903  0.0332
  452loPI   C3B 7231  13.245   0.291   7.449 -0.0674 -0.0532 -0.1735
  452loPI   C4B 7232  13.155  -0.005   7.086  0.0489  0.0542 -0.0425
  453loPI    C1 7233  12.507   8.749   9.872 -0.1082 -0.1003  0.0140
  453loPI    C2 7234  12.143   8.893   9.957 -0.0918  0.0796 -0.2097
  453loPI    C3 7235  12.466   9.050  10.133 -0.1208 -0.0882 -0.0019
  453loPI   PO4 7236  12.454   8.657   9.613  0.5408 -0.0443  0.1981
  453loPI   GL1 7237  12.693   8.529   9.329 -0.1427  0.2326  0.3297
  453loPI   GL2 7238  12.805   8.272   9.276  0.1950  0.1783 -0.2269
  453loPI   C1A 7239  12.636   8.844   8.977 -0.1119 -0.0759 -0.1944
  453loPI   C2A 7240  12.603   8.856   8.573  0.2428  0.1629 -0.2625
  453loPI   C3A 7241  12.719   8.748   8.200 -0.0660 -0.1657 -0.1452
  453loPI   C4A 7242  12.924   8.428   7.933 -0.2324  0.0649 -0.1315
  453loPI   C5A 7243  13.208   8.111   7.923 -0.1821 -0.0351  0.4246
  453loPI   C6A 7244  13.163   7.634   7.938  0.0283 -0.1400  0.4795
  453loPI   C1B 7245  12.762   7.916   8.910  0.0503 -0.0049 -0.1274
  453loPI   C2B 7246  13.148   8.021   8.591  0.2277 -0.0217 -0.0068
  453loPI   C3B 7247  13.237   8.393   8.427  0.1762  0.0333 -0.1718
  453loPI   C4B 7248  13.105   8.832   8.541 -0.1748 -0.1166  0.0051
  454loPI    C1 7249  15.204  19.347   9.245  0.0008 -0.1318 -0.2470
  454loPI    C2 7250  15.323  19.330   9.626 -0.2702 -0.4206 -0.1713
  454loPI    C3 7251  15.109  19.642   9.497  0.0449 -0.1943 -0.1570
  454loPI   PO4 7252  15.421  19.302   9.032  0.0086 -0.1841  0.1906
  454loPI   GL1 7253  15.447  18.984   8.664  0.2368 -0.3218  0.1223
  454loPI   GL2 7254  15.573  18.586   8.639 -0.0134  0.1020 -0.0637
  454loPI   C1A 7255  15.725  19.205   8.371  0.0327 -0.0700  0.0243
  454loPI   C2A 7256  15.728  19.371   7.937  0.1053 -0.0601 -0.1263
  454loPI   C3A 7257  15.636  19.458   7.525 -0.6444  0.0236 -0.4508
  454loPI   C4A 7258  15.984  19.538   7.203 -0.3431  0.0938  0.0053
  454loPI   C5A 7259  16.249  19.714   7.051 -0.1657  0.1922 -0.1910
  454loPI   C6A 7260  16.449  20.066   6.852  0.0668 -0.0559 -0.0297
  454loPI   C1B 7261  15.357  18.661   8.308  0.0558  0.5470  0.3157
  454loPI   C2B 7262  15.087  18.450   8.065 -0.3039 -0.0257 -0.0000
  454loPI   C3B 7263  14.970  18.535   7.660 -0.0359 -0.0934 -0.2471
  454loPI   C4B 7264  14.808  18.919   7.601  0.2835 -0.2204 -0.2951
  455loPI    C1 7265   7.736  13.878   9.853  0.1533 -0.1657 -0.1623
  455loPI    C2 7266   7.581  13.680  10.165 -0.2500  0.2079 -0.1159
  455loPI    C3 7267   7.731  14.047  10.215  0.1937  0.0538 -0.2631
  455loPI   PO4 7268   7.520  13.785   9.650 -0.2739 -0.3618  0.3163
  455loPI   GL1 7269   7.294  13.472   9.373 -0.0443 -0.0779 -0.0385
  455loPI   GL2 7270   7.673  13.533   9.267  0.2818  0.0326 -0.0795
  455loPI   C1A 7271   7.132  13.535   8.911 -0.2017  0.0201 -0.2998
  455loPI   C2A 7272   6.817  13.462   8.643 -0.2166 -0.0662 -0.0056
  455loPI   C3A 7273   6.852  13.393   8.234  0.1684 -0.0095  0.0155
  455loPI   C4A 7274   6.979  13.497   7.792  0.1554  0.0261 -0.0944
  455loPI   C5A 7275   7.174  13.753   7.582  0.1910 -0.0699  0.1512
  455loPI   C6A 7276   7.120  13.893   7.080  0.0301  0.0793 -0.0747
  455loPI   C1B 7277   7.690  13.671   8.816 -0.1889 -0.3703  0.0363
  455loPI   C2B 7278   7.328  13.838   8.548 -0.0364  0.1638 -0.0816
  455loPI   C3B 7279   7.389  14.126   8.260 -0.1099  0.0897 -0.2506
  455loPI   C4B 7280   7.332  14.209   7.863 -0.2177 -0.0571 -0.0389
  456loPI    C1 7281  16.171  12.860   9.873 -0.3203  0.1242  0.1468
  456loPI    C2 7282  16.206  12.665  10.221 -0.1631  0.1153  0.1267
  456loPI    C3 7283  16.406  13.006  10.161  0.3288 -0.2154 -0.1877
  456loPI   PO4 7284  16.229  12.770   9.674  0.1369  0.0389  0.0558
  456loPI   GL1 7285  16.551  12.613   9.378 -0.1323  0.1028 -0.1075
  456loPI   GL2 7286  16.650  12.845   9.387 -0.1323  0.0440 -0.3631
  456loPI   C1A 7287  16.400  12.415   8.961 -0.0912 -0.1849  0.1721
  456loPI   C2A 7288  16.053  12.345   8.625  0.1518  0.2487  0.4108
  456loPI   C3A 7289  16.111  12.471   8.186 -0.2875 -0.2485  0.2866
  456loPI   C4A 7290  16.246  12.627   7.783 -0.1297  0.0875  0.5513
  456loPI   C5A 7291  16.211  12.303   7.485  0.1428 -0.3238  0.2398
  456loPI   C6A 7292  16.022  12.123   7.193 -0.0770  0.3809  0.0012
  456loPI   C1B 7293  16.747  12.853   8.945  0.3665 -0.0200 -0.2538
  456loPI   C2B 7294  16.897  13.020   8.561 -0.1593 -0.0632  0.1285
  456loPI   C3B 7295  17.113  12.930   8.261  0.0581  0.1082  0.1935
  456loPI   C4B 7296  17.292  13.026   7.914  0.2088  0.1593  0.0312
  457loPI    C1 7297   1.176  12.964   9.919  0.0335 -0.3557 -0.1791
  457loPI    C2 7298   0.855  13.047  10.141  0.1423 -0.1796 -0.0855
  457loPI    C3 7299   0.943  12.667  10.051 -0.1358 -0.2239 -0.1797
  457loPI   PO4 7300   1.121  13.140   9.719 -0.0602  0.1674  0.2600
  457loPI   GL1 7301   1.053  13.171   9.276  0.1428 -0.0687  0.0275
  457loPI   GL2 7302   1.290  13.064   9.194  0.3962  0.1125 -0.2743
  457loPI   C1A 7303   0.885  13.088   8.864  0.2580 -0.1878 -0.2010
  457loPI   C2A 7304   0.872  12.849   8.570  0.1584 -0.1748  0.0292
  457loPI   C3A 7305   0.835  12.633   8.092  0.1374  0.1275  0.0861
  457loPI   C4A 7306   1.093  12.750   7.722  0.0585  0.1561 -0.1664
  457loPI   C5A 7307   1.166  12.411   7.484  0.0363 -0.0797  0.1185
  457loPI   C6A 7308   1.504  12.149   7.472 -0.2015 -0.0768  0.1426
  457loPI   C1B 7309   1.558  12.896   8.764 -0.1715  0.3521 -0.0167
  457loPI   C2B 7310   1.828  13.085   8.496 -0.2352  0.1094  0.2067
  457loPI   C3B 7311   1.653  13.219   8.143 -0.0358  0.2046  0.2123
  457loPI   C4B 7312   1.438  13.099   7.799  0.3758 -0.0325 -0.0711
  458loPI    C1 7313   6.844  11.707   9.963 -0.0419  0.1821 -0.2769
  458loPI    C2 7314   7.012  11.970  10.213  0.1509 -0.0038 -0.2073
  458loPI    C3 7315   6.644  11.831  10.287  0.1312  0.0873 -0.1314
  458loPI   PO4 7316   6.893  11.475   9.899 -0.0465  0.1283  0.0733
  458loPI   GL1 7317   6.896  11.153   9.557  0.1275  0.0879 -0.4565
  458loPI   GL2 7318   7.202  11.147   9.373 -0.1616  0.0239 -0.2339
  458loPI   C1A 7319   6.777  11.300   9.211 -0.0131  0.1324  0.0755
  458loPI   C2A 7320   6.665  11.437   8.786 -0.0561  0.3298  0.2215
  458loPI   C3A 7321   6.839  11.641   8.426  0.2199  0.3081 -0.0325
  458loPI   C4A 7322   6.878  11.747   7.953  0.1559  0.0778  0.1090
  458loPI   C5A 7323   7.058  11.789   7.557  0.0627 -0.1813 -0.3697
  458loPI   C6A 7324   7.134  11.963   7.109 -0.0448 -0.0382 -0.0668
  458loPI   C1B 7325   7.335  10.991   8.995  0.4007 -0.1980  0.0594
  458loPI   C2B 7326   7.679  10.903   8.693  0.1008 -0.1487  0.1536
  458loPI   C3B 7327   7.897  10.627   8.410 -0.2574  0.2810 -0.2296
  458loPI   C4B 7328   7.821  10.519   8.098 -0.0652  0.2756  0.0551
  459loPI    C1 7329   0.871   3.405  10.011  0.0363 -0.2669 -0.1517
  459loPI    C2 7330   0.965   3.025  10.094  0.0115 -0.1962  0.2167
  459loPI    C3 7331   1.102   3.321  10.326 -0.1891 -0.0010  0.0909
  459loPI   PO4 7332   0.959   3.422   9.635  0.1090 -0.0663 -0.1784
  459loPI   GL1 7333   1.248   3.541   9.370  0.1151 -0.1759  0.0019
  459loPI   GL2 7334   1.314   3.841   9.274 -0.1888 -0.2233 -0.1614
  459loPI   C1A 7335   1.417   3.198   9.135  0.1353  0.0626 -0.1590
  459loPI   C2A 7336   1.500   3.201   8.716 -0.3870 -0.1085  0.4390
  459loPI   C3A 7337   1.547   3.263   8.335  0.2021 -0.0629  0.0610
  459loPI   C4A 7338   1.548   3.225   7.900  0.0307  0.0771 -0.2149
  459loPI   C5A 7339   1.587   3.480   7.490 -0.1852 -0.0032 -0.0564
  459loPI   C6A 7340   1.564   3.396   7.049  0.0988  0.2754 -0.2698
  459loPI   C1B 7341   1.116   4.046   8.913  0.2535  0.0940 -0.0864
  459loPI   C2B 7342   1.118   4.324   8.620  0.1019 -0.1081  0.2916
  459loPI   C3B 7343   1.186   4.471   8.289  0.2168 -0.0517 -0.1261
  459loPI   C4B 7344   1.024   4.565   7.928  0.4582 -0.3020 -0.1269
  460loPI    C1 7345  16.821  16.603   9.467 -0.1065  0.1378 -0.0667
  460loPI    C2 7346  16.837  16.279   9.701  0.1102 -0.0414 -0.3230
  460loPI    C3 7347  16.702  16.626   9.848 -0.3243 -0.2956 -0.1027
  460loPI   PO4 7348  16.680  16.562   9.234 -0.3680 -0.0443 -0.3078
  460loPI   GL1 7349  16.605  16.920   8.992  0.2241  0.2670 -0.2594
  460loPI   GL2 7350  16.502  17.265   8.974  0.1546  0.1480 -0.0955
  460loPI   C1A 7351  16.564  16.963   8.518 -0.2539 -0.0174 -0.1621
  460loPI   C2A 7352  16.565  16.946   8.104 -0.1343 -0.0501 -0.0747
  460loPI   C3A 7353  16.579  16.690   7.732 -0.0254  0.0716 -0.0256
  460loPI   C4A 7354  16.666  16.243   7.490  0.0570 -0.2569  0.0888
  460loPI   C5A 7355  16.644  16.017   7.273  0.0293  0.1762  0.0939
  460loPI   C6A 7356  16.769  15.900   6.860  0.0640 -0.2664  0.1845
  460loPI   C1B 7357  16.139  17.193   8.657 -0.2451 -0.2061  0.1084
  460loPI   C2B 7358  15.815  17.293   8.559 -0.0982  0.2714  0.0273
  460loPI   C3B 7359  15.347  17.129   8.433 -0.0249  0.0691 -0.0007
  460loPI   C4B 7360  15.145  17.386   8.103  0.0145 -0.0122  0.3024
  461loPI    C1 7361   5.933  18.398   9.615  0.2025  0.0113  0.0228
  461loPI    C2 7362   6.041  18.046   9.771  0.1236  0.0301  0.1213
  461loPI    C3 7363   5.674  18.190   9.837  0.0820  0.0288 -0.0998
  461loPI   PO4 7364   5.956  18.393   9.345  0.0151  0.0432  0.0308
  461loPI   GL1 7365   5.928  18.651   9.025  0.2448 -0.0471 -0.1017
  461loPI   GL2 7366   5.686  18.708   9.002  0.0984  0.0903  0.1501
  461loPI   C1A 7367   5.985  18.564   8.601  0.4547  0.1447  0.1594
  461loPI   C2A 7368   5.874  18.581   8.144 -0.1838  0.1773  0.1358
  461loPI   C3A 7369   5.921  18.540   7.727 -0.1136  0.0113 -0.0896
  461loPI   C4A 7370   5.853  18.835   7.450 -0.0940  0.1477 -0.0544
  461loPI   C5A 7371   6.042  19.208   7.390  0.2562 -0.0201  0.0234
  461loPI   C6A 7372   6.317  19.435   7.112 -0.1528 -0.1000 -0.0057
  461loPI   C1B 7373   5.550  18.867   8.703 -0.2640  0.1565 -0.0418
  461loPI   C2B 7374   5.370  19.067   8.322 -0.3054  0.0093  0.5176
  461loPI   C3B 7375   5.527  18.878   7.964 -0.1031 -0.3765 -0.3092
  461loPI   C4B 7376   5.372  18.782   7.518  0.0146 -0.0315  0.0689
  462loPI    C1 7377  17.281  15.029   9.707  0.0309  0.1268  0.1031
  462loPI    C2 7378  17.287  15.378   9.903  0.0878  0.1765  0.0134
  462loPI    C3 7379  17.465  15.056  10.061 -0.0582  0.1607  0.1469
  462loPI   PO4 7380  17.334  14.997   9.447 -0.1154  0.0979  0.0048
  462loPI   GL1 7381  17.463  15.108   9.056  0.1124 -0.0812  0.2540
  462loPI   GL2 7382  17.349  15.242   8.738  0.2019  0.1718 -0.0142
  462loPI   C1A 7383  17.790  14.848   8.680 -0.0748 -0.1671 -0.1991
  462loPI   C2A 7384  17.922  14.845   8.379  0.1063  0.1318 -0.0538
  462loPI   C3A 7385  17.991  15.188   8.105 -0.1233  0.1669 -0.1354
  462loPI   C4A 7386  17.843  15.581   7.901 -0.0604  0.3281 -0.0024
  462loPI   C5A 7387  17.834  15.947   7.597 -0.1132 -0.0649 -0.5085
  462loPI   C6A 7388  17.589  16.012   7.257 -0.2934 -0.1945 -0.1361
  462loPI   C1B 7389  17.028  15.234   8.373  0.1906  0.3689  0.0556
  462loPI   C2B 7390  16.757  15.211   8.040 -0.3696 -0.1320 -0.1514
  462loPI   C3B 7391  16.809  15.108   7.644  0.0440 -0.0447 -0.0011
  462loPI   C4B 7392  16.668  15.022   7.241  0.1004 -0.0234  0.0180
  463loPI    C1 7393   6.643  12.287  10.138  0.0625  0.1037  0.1245
  463loPI    C2 7394   6.319  12.236  10.367 -0.0988  0.0715 -0.1080
  463loPI    C3 7395   6.491  12.596  10.342 -0.1231  0.0914  0.0071
  463loPI   PO4 7396   6.586  12.183   9.810 -0.0538  0.2509 -0.0311
  463loPI   GL1 7397   6.582  12.460   9.417 -0.0854  0.0939 -0.2576
  463loPI   GL2 7398   6.316  12.641   9.397 -0.2047 -0.2362 -0.1355
  463loPI   C1A 7399   6.818  12.584   9.087  0.0155  0.1795  0.0742
  463loPI   C2A 7400   6.650  12.484   8.654  0.2600  0.1790 -0.1466
  463loPI   C3A 7401   6.530  12.381   8.276  0.1052  0.0748 -0.1443
  463loPI   C4A 7402   6.332  12.222   7.885 -0.3521  0.3090 -0.0242
  463loPI   C5A 7403   6.166  12.190   7.426  0.2415 -0.0565  0.3320
  463loPI   C6A 7404   5.732  11.973   7.207  0.3416  0.0683 -0.2230
  463loPI   C1B 7405   6.312  12.565   9.018  0.0459 -0.0520 -0.1233
  463loPI   C2B 7406   6.180  12.322   8.729  0.0343  0.2063 -0.0000
  463loPI   C3B 7407   6.038  12.114   8.318  0.1936 -0.0078  0.0354
  463loPI   C4B 7408   5.915  12.027   7.824 -0.0714  0.0926 -0.0218
  464loPI    C1 7409  16.777   7.253   9.791  0.0568 -0.2278 -0.0027
  464loPI    C2 7410  16.885   7.620   9.907 -0.1476 -0.1279 -0.1233
  464loPI    C3 7411  16.852   7.327  10.177  0.3663 -0.1503 -0.0746
  464loPI   PO4 7412  16.923   7.218   9.539  0.1500 -0.0742 -0.0513
  464loPI   GL1 7413  16.995   7.354   9.228 -0.1073 -0.1078  0.0335
  464loPI   GL2 7414  16.980   7.157   9.050  0.2148 -0.0044 -0.2038
  464loPI   C1A 7415  17.170   7.544   8.806 -0.0581 -0.2140 -0.2654
  464loPI   C2A 7416  17.256   7.398   8.376  0.2222 -0.1003  0.2311
  464loPI   C3A 7417  17.338   7.561   7.862  0.2555  0.3531 -0.0012
  464loPI   C4A 7418  17.366   7.678   7.493 -0.4163  0.0693 -0.2171
  464loPI   C5A 7419  17.349   7.935   7.141  0.0590 -0.3208 -0.1357
  464loPI   C6A 7420  17.626   8.259   7.116  0.0234 -0.1130 -0.1756
  464loPI   C1B 7421  16.650   7.341   8.802 -0.0655 -0.2918 -0.1598
  464loPI   C2B 7422  16.447   7.444   8.510  0.2409 -0.0997  0.0979
  464loPI   C3B 7423  16.394   7.782   8.109  0.1174  0.2120 -0.2629
  464loPI   C4B 7424  16.436   8.020   7.836 -0.1363 -0.0259  0.3695
  465loPI    C1 7425  17.378  18.251   9.240  0.1086  0.1776 -0.1040
  465loPI    C2 7426  17.224  18.269   9.609  0.0575 -0.1648 -0.1050
  465loPI    C3 7427  17.617  18.317   9.554  0.0308  0.1542 -0.0393
  465loPI   PO4 7428  17.065  18.402   9.151  0.2479  0.3247  0.2014
  465loPI   GL1 7429  16.977  18.617   8.750  0.5133  0.0562 -0.1027
  465loPI   GL2 7430  16.716  18.415   8.772  0.1685 -0.0399  0.2033
  465loPI   C1A 7431  17.117  18.341   8.484 -0.1815  0.1564  0.1370
  465loPI   C2A 7432  17.096  18.211   8.110  0.1604  0.0418 -0.0875
  465loPI   C3A 7433  17.338  18.205   7.821 -0.1501  0.0039  0.0065
  465loPI   C4A 7434  17.650  17.865   7.696 -0.0882 -0.2845  0.0578
  465loPI   C5A 7435  17.596  17.473   7.592  0.2990 -0.1421 -0.2812
  465loPI   C6A 7436  17.902  17.209   7.439  0.1305  0.0910 -0.0288
  465loPI   C1B 7437  16.556  18.451   8.390  0.0129  0.2938  0.1212
  465loPI   C2B 7438  16.606  18.374   7.927 -0.1663 -0.1795 -0.2057
  465loPI   C3B 7439  16.469  18.133   7.477  0.1303  0.0146  0.0642
  465loPI   C4B 7440  16.629  18.016   7.054  0.4574 -0.0959 -0.1409
  466loPI    C1 7441  14.593   9.581   9.730  0.2446 -0.2803  0.1054
  466loPI    C2 7442  14.897   9.690   9.965  0.0848 -0.1595  0.2585
  466loPI    C3 7443  14.581   9.503  10.122 -0.0677  0.0105  0.1581
  466loPI   PO4 7444  14.589   9.810   9.508 -0.3185  0.3509 -0.0886
  466loPI   GL1 7445  14.832   9.996   9.180  0.0411  0.1422  0.0170
  466loPI   GL2 7446  14.587   9.784   9.031  0.0425  0.1447  0.1197
  466loPI   C1A 7447  14.971  10.007   8.753  0.1458  0.1863 -0.3620
  466loPI   C2A 7448  14.855  10.030   8.346  0.0013  0.2265 -0.0567
  466loPI   C3A 7449  14.787   9.979   7.814 -0.5340 -0.0500 -0.0329
  466loPI   C4A 7450  14.601  10.027   7.455  0.2605  0.0361  0.0157
  466loPI   C5A 7451  14.731  10.363   7.134 -0.1752 -0.0420 -0.0310
  466loPI   C6A 7452  14.768  10.675   6.792  0.0374  0.6323  0.1211
  466loPI   C1B 7453  14.422   9.579   8.702 -0.3716 -0.3309 -0.2883
  466loPI   C2B 7454  14.281   9.655   8.320  0.0310  0.2957 -0.1539
  466loPI   C3B 7455  14.410   9.663   7.863 -0.0558  0.0910  0.0602
  466loPI   C4B 7456  14.211   9.629   7.475  0.0323  0.0296  0.2105
  467loPI    C1 7457   7.552   5.540   9.929  0.1642  0.1339 -0.1399
  467loPI    C2 7458   7.455   5.802  10.215  0.0578  0.0812 -0.1273
  467loPI    C3 7459   7.836   5.765  10.099  0.0762  0.2273 -0.1155
  467loPI   PO4 7460   7.379   5.630   9.702  0.2223  0.1728  0.1084
  467loPI   GL1 7461   7.485   5.855   9.371  0.0973 -0.1711  0.1432
  467loPI   GL2 7462   7.181   6.036   9.321  0.0241 -0.4352  0.1686
  467loPI   C1A 7463   7.733   5.928   8.981 -0.2331 -0.1444  0.2440
  467loPI   C2A 7464   7.914   5.845   8.537  0.0905  0.1656 -0.0801
  467loPI   C3A 7465   8.239   5.654   8.234  0.0592 -0.2244 -0.0271
  467loPI   C4A 7466   8.650   5.354   8.113 -0.2586 -0.0393  0.2916
  467loPI   C5A 7467   8.661   5.019   7.771  0.0377  0.0845 -0.3037
  467loPI   C6A 7468   8.324   4.683   7.626 -0.0301  0.0015  0.1933
  467loPI   C1B 7469   6.911   6.007   9.009 -0.0575  0.2189  0.0353
  467loPI   C2B 7470   6.660   6.075   8.628 -0.0517  0.0158  0.2343
  467loPI   C3B 7471   6.479   6.110   8.195 -0.2622  0.0734 -0.0174
  467loPI   C4B 7472   6.297   5.880   7.917  0.0466  0.0960  0.1270
  468loPI    C1 7473  16.566   7.863   9.618 -0.0373 -0.0372  0.2832
  468loPI    C2 7474  16.189   7.729   9.613  0.0173 -0.1879  0.1745
  468loPI    C3 7475  16.357   7.839   9.958 -0.1483 -0.0567  0.2141
  468loPI   PO4 7476  16.747   7.864   9.404 -0.1758  0.4612  0.0508
  468loPI   GL1 7477  16.794   7.757   9.136  0.1281 -0.1563  0.0777
  468loPI   GL2 7478  17.099   7.929   9.076  0.0351 -0.1914  0.0280
  468loPI   C1A 7479  16.657   7.819   8.682 -0.2236  0.1425  0.2145
  468loPI   C2A 7480  16.299   8.078   8.508 -0.3591 -0.2521 -0.2374
  468loPI   C3A 7481  16.255   8.343   8.158 -0.3289 -0.0620  0.0220
  468loPI   C4A 7482  16.267   8.616   7.779 -0.3461 -0.2394  0.1510
  468loPI   C5A 7483  16.136   9.010   7.710 -0.3905 -0.0518 -0.2803
  468loPI   C6A 7484  16.057   9.327   7.338  0.2638  0.0645  0.1541
  468loPI   C1B 7485  17.279   8.014   8.635 -0.0618 -0.2699  0.1914
  468loPI   C2B 7486  17.362   7.893   8.212  0.2550  0.1241  0.2267
  468loPI   C3B 7487  17.656   8.053   7.967 -0.2217  0.0532 -0.1316
  468loPI   C4B 7488  17.868   8.127   7.575 -0.2191 -0.3077  0.0775
  469loPI    C1 7489  12.499  13.518  10.188 -0.0970 -0.2278  0.2815
  469loPI    C2 7490  12.313  13.836  10.344  0.2615  0.0540  0.1484
  469loPI    C3 7491  12.289  13.481  10.527 -0.2772  0.1142  0.2116
  469loPI   PO4 7492  12.465  13.564   9.966  0.3442 -0.0725 -0.0759
  469loPI   GL1 7493  12.635  13.621   9.530  0.1998 -0.0195 -0.2068
  469loPI   GL2 7494  12.390  13.496   9.392 -0.1749 -0.4029 -0.2670
  469loPI   C1A 7495  12.710  13.471   9.052  0.2922 -0.1122 -0.0968
  469loPI   C2A 7496  12.677  13.430   8.676 -0.1341  0.2320 -0.4421
  469loPI   C3A 7497  12.744  13.651   8.242 -0.0832 -0.1831  0.3388
  469loPI   C4A 7498  13.038  13.794   7.866  0.1169 -0.2535 -0.1888
  469loPI   C5A 7499  13.099  13.725   7.407 -0.1892 -0.3238  0.2052
  469loPI   C6A 7500  13.431  13.795   7.051  0.1752  0.2814 -0.1532
  469loPI   C1B 7501  12.189  13.450   8.994  0.1898  0.0182 -0.1188
  469loPI   C2B 7502  11.896  13.674   8.713 -0.1447 -0.0025 -0.0656
  469loPI   C3B 7503  11.694  13.788   8.424  0.0617  0.1699  0.0913
  469loPI   C4B 7504  11.342  13.594   8.113  0.0618  0.0648  0.0483
  470loPI    C1 7505  16.739  12.689   9.895  0.1434 -0.1563 -0.0303
  470loPI    C2 7506  16.868  12.744  10.270  0.0846  0.3567 -0.0775
  470loPI    C3 7507  16.695  12.398  10.166  0.2356  0.1535  0.3258
  470loPI   PO4 7508  16.953  12.808   9.794  0.0554  0.1636 -0.2356
  470loPI   GL1 7509  17.256  12.646   9.529  0.1310 -0.0274 -0.0242
  470loPI   GL2 7510  17.202  12.872   9.327  0.2275  0.0486 -0.1611
  470loPI   C1A 7511  16.939  12.498   9.129  0.1133  0.3802 -0.1685
  470loPI   C2A 7512  16.883  12.340   8.810 -0.3702  0.0172 -0.0796
  470loPI   C3A 7513  16.772  12.219   8.431  0.0851 -0.0062 -0.4514
  470loPI   C4A 7514  16.939  12.331   8.121  0.1457  0.0253  0.0647
  470loPI   C5A 7515  17.126  12.467   7.705 -0.0557  0.1141 -0.0245
  470loPI   C6A 7516  16.955  12.409   7.263 -0.0095  0.0570 -0.1530
  470loPI   C1B 7517  17.259  13.184   8.895  0.2444 -0.0209 -0.1373
  470loPI   C2B 7518  17.247  13.388   8.535 -0.0530  0.0122  0.1443
  470loPI   C3B 7519  17.443  13.825   8.418  0.1051 -0.3946  0.4318
  470loPI   C4B 7520  17.937  13.893   8.570 -0.0333 -0.0605 -0.0760
  471loPI    C1 7521   2.459  17.849   9.529 -0.1311  0.0618 -0.1596
  471loPI    C2 7522   2.771  17.998   9.328  0.0428 -0.2091 -0.0968
  471loPI    C3 7523   2.737  18.063   9.721  0.0974 -0.3004 -0.0767
  471loPI   PO4 7524   2.291  17.819   9.381  0.4640 -0.0946  0.2944
  471loPI   GL1 7525   2.340  18.135   9.005  0.2780 -0.2948 -0.0752
  471loPI   GL2 7526   2.496  17.877   8.920 -0.2850 -0.0594  0.2365
  471loPI   C1A 7527   2.518  18.264   8.614 -0.1983  0.0497 -0.1533
  471loPI   C2A 7528   2.394  18.332   8.178 -0.0862  0.1842 -0.0014
  471loPI   C3A 7529   2.619  18.310   7.867  0.0861 -0.0748  0.0691
  471loPI   C4A 7530   2.688  18.299   7.446 -0.1813  0.0232  0.1364
  471loPI   C5A 7531   2.834  18.404   7.027 -0.2642  0.1716 -0.0090
  471loPI   C6A 7532   3.081  18.124   6.714  0.0399 -0.0259 -0.0156
  471loPI   C1B 7533   2.273  17.878   8.470 -0.2122  0.0609 -0.2184
  471loPI   C2B 7534   2.464  17.837   8.043  0.0022 -0.1434  0.1614
  471loPI   C3B 7535   2.480  17.848   7.610  0.0626 -0.1622 -0.2039
  471loPI   C4B 7536   2.506  17.621   7.338 -0.1410 -0.0608  0.1717
  472loPI    C1 7537   3.500  12.246   9.956  0.1204 -0.3468 -0.3729
  472loPI    C2 7538   3.477  11.926  10.194  0.1616  0.1166  0.2826
  472loPI    C3 7539   3.167  12.177  10.167  0.1218  0.0228 -0.2419
  472loPI   PO4 7540   3.549  12.255   9.675  0.0580 -0.0375  0.1184
  472loPI   GL1 7541   3.823  12.398   9.418  0.0810  0.0663  0.0865
  472loPI   GL2 7542   3.537  12.607   9.342  0.3307 -0.0733  0.1427
  472loPI   C1A 7543   3.854  12.156   9.001  0.0129 -0.1085 -0.2663
  472loPI   C2A 7544   3.715  12.061   8.571 -0.1833  0.0665 -0.3078
  472loPI   C3A 7545   3.741  11.825   8.238 -0.3257 -0.3049 -0.1853
  472loPI   C4A 7546   3.764  11.626   7.849  0.0873 -0.1490  0.0795
  472loPI   C5A 7547   3.964  11.727   7.612 -0.2425 -0.2671  0.2380
  472loPI   C6A 7548   4.312  11.681   7.290 -0.0599 -0.0100  0.0521
  472loPI   C1B 7549   3.584  12.617   8.885  0.1207  0.1278  0.0705
  472loPI   C2B 7550   3.549  12.816   8.527 -0.1675  0.1011 -0.0520
  472loPI   C3B 7551   3.591  13.093   8.184 -0.0819 -0.1714 -0.2335
  472loPI   C4B 7552   3.630  13.615   8.216 -0.0218 -0.0640  0.0707
  473loPI    C1 7553   0.682  11.219   9.667 -0.2734 -0.2185 -0.1382
  473loPI    C2 7554   0.555  11.133  10.036 -0.1325 -0.0353 -0.0453
  473loPI    C3 7555   0.473  11.490   9.874  0.0193 -0.0215 -0.0933
  473loPI   PO4 7556   0.885  11.075   9.636 -0.0075 -0.2307 -0.2491
  473loPI   GL1 7557   0.989  10.694   9.512 -0.1375  0.0881 -0.1012
  473loPI   GL2 7558   0.805  10.903   9.155 -0.0051  0.0297  0.0108
  473loPI   C1A 7559   1.273  10.752   9.206 -0.1861  0.0485  0.0665
  473loPI   C2A 7560   1.627  10.776   8.942  0.1814 -0.1636  0.1328
  473loPI   C3A 7561   1.537  10.593   8.469 -0.3723 -0.2862 -0.0298
  473loPI   C4A 7562   1.525  10.347   8.054  0.1813  0.0476 -0.2087
  473loPI   C5A 7563   1.749  10.094   7.843  0.0164 -0.0651  0.1453
  473loPI   C6A 7564   2.119   9.947   7.831 -0.2703 -0.3399 -0.1103
  473loPI   C1B 7565   0.978  10.799   8.736  0.1123 -0.3329 -0.4410
  473loPI   C2B 7566   1.012  10.719   8.300 -0.0355 -0.2513 -0.3481
  473loPI   C3B 7567   1.062  10.700   7.912  0.0359 -0.4292 -0.0206
  473loPI   C4B 7568   1.398  10.518   7.604 -0.2681  0.0150 -0.1942
  474loPI    C1 7569   4.544  18.461   9.560 -0.1816 -0.1422  0.1582
  474loPI    C2 7570   4.934  18.445   9.646 -0.0687  0.1608 -0.2686
  474loPI    C3 7571   4.666  18.486   9.940  0.2334  0.1609  0.0119
  474loPI   PO4 7572   4.488  18.342   9.360  0.1625  0.2906 -0.2349
  474loPI   GL1 7573   4.547  18.301   8.881 -0.1810  0.1967 -0.1845
  474loPI   GL2 7574   4.714  18.610   8.778  0.2879  0.0537  0.1480
  474loPI   C1A 7575   4.642  18.270   8.443 -0.3350  0.0344  0.1793
  474loPI   C2A 7576   4.435  18.243   8.172  0.0586  0.1518  0.1538
  474loPI   C3A 7577   4.423  18.458   7.824  0.1449 -0.0578  0.0208
  474loPI   C4A 7578   4.556  18.919   7.739  0.3894 -0.2637 -0.1430
  474loPI   C5A 7579   4.311  19.064   7.298  0.1858 -0.3957 -0.0908
  474loPI   C6A 7580   3.989  19.210   7.147  0.1257  0.0386  0.3557
  474loPI   C1B 7581   4.993  18.622   8.583  0.0844 -0.0297  0.2937
  474loPI   C2B 7582   5.399  18.470   8.347  0.0503  0.1617 -0.2625
  474loPI   C3B 7583   5.420  18.377   7.965 -0.1488 -0.2046 -0.3062
  474loPI   C4B 7584   5.463  18.320   7.552  0.0223 -0.0892 -0.0432
  475loPI    C1 7585  12.486   9.562   9.924  0.1820 -0.1036 -0.0451
  475loPI    C2 7586  12.688   9.642   9.588  0.1420 -0.0483 -0.0561
  475loPI    C3 7587  12.837   9.383   9.854  0.3624  0.2003  0.0668
  475loPI   PO4 7588  12.272   9.770   9.832  0.1656  0.3079  0.0326
  475loPI   GL1 7589  12.208   9.791   9.357 -0.1743  0.6634  0.3752
  475loPI   GL2 7590  11.897   9.629   9.384  0.1840 -0.0985 -0.1876
  475loPI   C1A 7591  12.365   9.775   8.883 -0.1616  0.0615 -0.1430
  475loPI   C2A 7592  12.395   9.534   8.565  0.1071 -0.0950 -0.0120
  475loPI   C3A 7593  12.385   9.230   8.325  0.3916  0.0841 -0.1613
  475loPI   C4A 7594  12.415   9.075   7.914  0.3690 -0.0022 -0.0346
  475loPI   C5A 7595  12.321   9.101   7.547  0.0902 -0.0198 -0.2036
  475loPI   C6A 7596  12.164   9.276   7.129  0.3124  0.0569  0.1494
  475loPI   C1B 7597  11.928   9.587   8.899  0.1749  0.2017 -0.0631
  475loPI   C2B 7598  11.925   9.277   8.582  0.2192  0.0177  0.0843
  475loPI   C3B 7599  11.873   9.203   8.138 -0.1010 -0.4490 -0.0775
  475loPI   C4B 7600  11.843   9.342   7.775 -0.3956  0.2060 -0.6646
  476loPI    C1 7601  12.506  16.216   9.624  0.1211 -0.0928  0.2022
  476loPI    C2 7602  12.769  15.952   9.770  0.3538 -0.0063 -0.0543
  476loPI    C3 7603  12.727  15.995   9.374  0.1744  0.2002 -0.0146
  476loPI   PO4 7604  12.281  16.168   9.722  0.0825  0.1011  0.0701
  476loPI   GL1 7605  12.132  16.224   9.313 -0.1634 -0.0430  0.0815
  476loPI   GL2 7606  12.326  16.090   9.074  0.2866 -0.0706  0.2388
  476loPI   C1A 7607  11.767  16.444   9.120  0.0939  0.1790  0.1493
  476loPI   C2A 7608  11.904  16.346   8.666  0.0511 -0.0696 -0.0742
  476loPI   C3A 7609  12.275  16.404   8.470 -0.2608  0.0412  0.3235
  476loPI   C4A 7610  12.300  16.334   8.035  0.0222  0.0484  0.0476
  476loPI   C5A 7611  12.127  16.488   7.702 -0.0212 -0.0745  0.0812
  476loPI   C6A 7612  12.157  16.827   7.347 -0.2241 -0.0092 -0.1048
  476loPI   C1B 7613  12.383  15.753   8.701  0.0257  0.0689 -0.0868
  476loPI   C2B 7614  12.489  15.782   8.288 -0.1893  0.0757  0.1425
  476loPI   C3B 7615  12.379  15.709   7.797  0.0646  0.1672 -0.0899
  476loPI   C4B 7616  12.481  15.680   7.417 -0.0325  0.3609 -0.1553
  477loPI    C1 7617   8.640   2.636   9.523  0.0393  0.1048  0.0447
  477loPI    C2 7618   8.564   2.258   9.628 -0.2518  0.1413 -0.0269
  477loPI    C3 7619   8.691   2.520   9.902 -0.1895  0.0280  0.0533
  477loPI   PO4 7620   8.781   2.594   9.281 -0.0274 -0.1595  0.1590
  477loPI   GL1 7621   8.762   2.656   8.904  0.2410 -0.0204  0.3225
  477loPI   GL2 7622   8.520   2.566   8.679 -0.0399  0.1453 -0.2624
  477loPI   C1A 7623   8.964   3.030   8.759 -0.1036  0.3049 -0.0521
  477loPI   C2A 7624   9.107   3.393   8.592  0.1963 -0.4044  0.0595
  477loPI   C3A 7625   9.096   3.468   8.165  0.2757  0.2012 -0.1021
  477loPI   C4A 7626   8.981   3.472   7.710  0.4367 -0.2251 -0.1245
  477loPI   C5A 7627   9.005   3.540   7.333  0.2209  0.3056  0.1767
  477loPI   C6A 7628   8.866   3.755   6.977 -0.1074  0.2118  0.0823
  477loPI   C1B 7629   8.829   2.700   8.412 -0.4078  0.0667 -0.0160
  477loPI   C2B 7630   8.925   2.879   8.102  0.3091 -0.0184 -0.0036
  477loPI   C3B 7631   8.868   2.893   7.663  0.1158 -0.2101 -0.0599
  477loPI   C4B 7632   8.647   3.177   7.557  0.0022 -0.2737 -0.3150
  478loPI    C1 7633   1.348  11.471   9.976 -0.0173 -0.0944  0.0595
  478loPI    C2 7634   0.992  11.355  10.117 -0.0393 -0.2530 -0.1211
  478loPI    C3 7635   1.141  11.713  10.218 -0.2254 -0.2075 -0.0034
  478loPI   PO4 7636   1.356  11.441   9.756 -0.3507  0.0370 -0.0623
  478loPI   GL1 7637   1.252  11.326   9.362  0.2705  0.2634 -0.2019
  478loPI   GL2 7638   0.965  11.428   9.312  0.2540 -0.0111 -0.0018
  478loPI   C1A 7639   1.259  11.224   8.881  0.2841 -0.4135  0.1203
  478loPI   C2A 7640   1.555  11.126   8.559  0.1531  0.0698 -0.2506
  478loPI   C3A 7641   1.586  10.887   8.114  0.0587 -0.3467  0.0130
  478loPI   C4A 7642   1.814  10.799   7.782 -0.1563  0.2666 -0.0113
  478loPI   C5A 7643   2.112  10.888   7.574 -0.2165 -0.0835 -0.3831
  478loPI   C6A 7644   2.563  10.803   7.608  0.3293  0.2354  0.4483
  478loPI   C1B 7645   0.772  11.441   8.886  0.0573  0.0031 -0.3581
  478loPI   C2B 7646   0.589  11.628   8.481  0.0245 -0.0334 -0.0335
  478loPI   C3B 7647   0.279  11.594   8.142 -0.0939 -0.2218 -0.2345
  478loPI   C4B 7648  -0.018  11.800   7.872 -0.3526  0.1379  0.2032
  479loPI    C1 7649  17.237   6.374   9.661  0.0875 -0.2592  0.1422
  479loPI    C2 7650  17.557   6.422   9.897  0.0009  0.2678  0.1624
  479loPI    C3 7651  17.193   6.523  10.030 -0.0897  0.2746 -0.0846
  479loPI   PO4 7652  17.265   6.263   9.417 -0.1899  0.0911  0.4434
  479loPI   GL1 7653  17.436   6.478   9.076  0.0557 -0.3808  0.0555
  479loPI   GL2 7654  17.135   6.696   8.845  0.0379 -0.0743 -0.0925
  479loPI   C1A 7655  17.630   6.210   8.854 -0.1000 -0.0494 -0.1071
  479loPI   C2A 7656  17.678   5.982   8.404 -0.2680  0.2272  0.1538
  479loPI   C3A 7657  17.726   5.817   7.991 -0.2599 -0.0276 -0.4264
  479loPI   C4A 7658  17.864   5.549   7.769 -0.1570  0.1808 -0.1604
  479loPI   C5A 7659  17.886   5.503   7.355  0.0728  0.1276  0.1564
  479loPI   C6A 7660  17.785   5.725   6.965  0.0904  0.0195 -0.0829
  479loPI   C1B 7661  17.287   6.358   8.516  0.2227 -0.1226 -0.1161
  479loPI   C2B 7662  17.199   6.059   8.176 -0.1848 -0.1446 -0.2585
  479loPI   C3B 7663  17.227   5.738   7.805  0.0169  0.0140 -0.0237
  479loPI   C4B 7664  16.933   5.702   7.381  0.1683  0.1726 -0.1477
  480loPI    C1 7665  15.423  13.908   9.511  0.0587  0.1651 -0.1695
  480loPI    C2 7666  15.120  13.816   9.266  0.1284 -0.0004 -0.1949
  480loPI    C3 7667  15.069  13.799   9.662  0.0378  0.1950 -0.1967
  480loPI   PO4 7668  15.571  14.062   9.397  0.2644 -0.1055  0.0880
  480loPI   GL1 7669  15.761  14.216   8.988  0.1994 -0.1741 -0.0925
  480loPI   GL2 7670  15.637  14.442   8.888 -0.0993  0.0297  0.0853
  480loPI   C1A 7671  15.499  14.075   8.622 -0.0841 -0.0502 -0.1060
  480loPI   C2A 7672  15.200  14.190   8.259  0.0718  0.2455  0.0459
  480loPI   C3A 7673  15.056  14.106   7.804  0.0407  0.3810 -0.4011
  480loPI   C4A 7674  14.737  14.132   7.420 -0.2049  0.0546  0.1812
  480loPI   C5A 7675  14.655  14.231   7.076 -0.0075  0.0987  0.0386
  480loPI   C6A 7676  14.535  14.430   6.762  0.0800 -0.1843  0.0551
  480loPI   C1B 7677  15.546  14.619   8.435  0.3476 -0.0176  0.1864
  480loPI   C2B 7678  15.317  14.770   8.138 -0.0860  0.0270 -0.4239
  480loPI   C3B 7679  15.115  14.617   7.807  0.1925  0.2940 -0.4190
  480loPI   C4B 7680  15.030  14.534   7.365  0.1757 -0.0791 -0.1986
  481loPI    C1 7681  16.268  10.935   9.557  0.0608 -0.0760 -0.0989
  481loPI    C2 7682  16.184  10.585   9.381 -0.0307 -0.0352 -0.1371
  481loPI    C3 7683  16.294  10.594   9.765 -0.0446 -0.1045 -0.1314
  481loPI   PO4 7684  16.208  11.076   9.325  0.0999 -0.1403 -0.0216
  481loPI   GL1 7685  16.054  10.773   8.942  0.0960  0.1019 -0.1225
  481loPI   GL2 7686  16.229  11.117   8.840 -0.0612 -0.1277  0.1437
  481loPI   C1A 7687  16.015  10.805   8.477 -0.0261 -0.0142  0.3327
  481loPI   C2A 7688  15.917  10.785   8.116 -0.0412 -0.1243 -0.1564
  481loPI   C3A 7689  15.863  10.837   7.698  0.1097 -0.3047 -0.1118
  481loPI   C4A 7690  15.557  10.783   7.390 -0.1662  0.2727  0.0906
  481loPI   C5A 7691  15.175  10.936   7.276 -0.0046  0.0789  0.1909
  481loPI   C6A 7692  14.838  11.106   7.118 -0.1621  0.2137 -0.6243
  481loPI   C1B 7693  16.487  11.022   8.471  0.1224 -0.1681 -0.0415
  481loPI   C2B 7694  16.315  11.140   8.131 -0.5308  0.1186 -0.0372
  481loPI   C3B 7695  16.293  11.228   7.713 -0.0729  0.4144 -0.0261
  481loPI   C4B 7696  16.134  10.991   7.327  0.0547 -0.3252  0.1300
  482loPI    C1 7697  15.316  15.045   9.731 -0.1427  0.1206 -0.1118
  482loPI    C2 7698  15.519  15.376   9.825  0.0378 -0.0967  0.2910
  482loPI    C3 7699  15.523  15.062  10.072 -0.1505 -0.3945 -0.0729
  482loPI   PO4 7700  15.426  14.919   9.570  0.0633  0.0393 -0.0250
  482loPI   GL1 7701  15.303  14.675   9.239  0.1353  0.1103  0.0969
  482loPI   GL2 7702  15.398  14.990   9.052 -0.2876  0.2524  0.3738
  482loPI   C1A 7703  15.157  14.630   8.788 -0.0765  0.0398  0.0359
  482loPI   C2A 7704  14.936  14.753   8.449  0.1428  0.0478 -0.0547
  482loPI   C3A 7705  14.848  15.117   8.246  0.0471  0.2428 -0.2857
  482loPI   C4A 7706  14.862  15.133   7.856 -0.0055 -0.0864  0.0422
  482loPI   C5A 7707  15.191  15.129   7.648 -0.1072  0.2365 -0.0320
  482loPI   C6A 7708  15.531  14.855   7.602  0.1605 -0.2279  0.5199
  482loPI   C1B 7709  15.294  15.105   8.630  0.2637  0.1065  0.0089
  482loPI   C2B 7710  15.353  15.274   8.101 -0.0866 -0.3828  0.0919
  482loPI   C3B 7711  15.569  15.479   7.806  0.0431 -0.1239  0.3098
  482loPI   C4B 7712  15.864  15.896   7.705 -0.5344 -0.3098 -0.1585
  483loPI    C1 7713  10.978   6.974   9.477  0.0212 -0.0801 -0.1174
  483loPI    C2 7714  11.179   6.744   9.735 -0.0474  0.1369  0.1336
  483loPI    C3 7715  11.320   7.105   9.638 -0.2327  0.2254  0.1880
  483loPI   PO4 7716  10.927   6.817   9.293 -0.1530  0.1576  0.2057
  483loPI   GL1 7717  10.962   6.520   8.940  0.0343 -0.1333 -0.2941
  483loPI   GL2 7718  11.290   6.312   8.927 -0.1474 -0.0679  0.0544
  483loPI   C1A 7719  10.783   6.549   8.551 -0.2176  0.0456  0.1034
  483loPI   C2A 7720  10.638   6.733   8.168 -0.1577 -0.1265 -0.0048
  483loPI   C3A 7721  10.916   7.000   7.962 -0.0295 -0.0181  0.1670
  483loPI   C4A 7722  11.193   6.773   7.653 -0.0209  0.0253  0.3045
  483loPI   C5A 7723  11.608   6.854   7.403 -0.0505  0.1236  0.2811
  483loPI   C6A 7724  12.040   7.083   7.430 -0.3189  0.2306 -0.0256
  483loPI   C1B 7725  11.275   6.488   8.521 -0.1884 -0.0416 -0.2541
  483loPI   C2B 7726  11.255   6.726   8.184 -0.2700  0.0224 -0.1545
  483loPI   C3B 7727  11.543   6.889   7.951  0.1252  0.1322 -0.1073
  483loPI   C4B 7728  11.809   7.276   7.819 -0.0646  0.1688  0.0271
  484loPI    C1 7729  19.502  11.230   9.423 -0.2034  0.1647 -0.0138
  484loPI    C2 7730  19.471  11.466   9.102 -0.1679 -0.1981 -0.2899
  484loPI    C3 7731  19.692  11.582   9.414  0.0614  0.0187 -0.5272
  484loPI   PO4 7732  19.175  11.086   9.405 -0.1143  0.1522 -0.1661
  484loPI   GL1 7733  18.976  11.047   9.138 -0.0533 -0.1149  0.3029
  484loPI   GL2 7734  19.172  11.149   8.830  0.0680 -0.2785  0.0602
  484loPI   C1A 7735  18.859  10.691   8.909 -0.3517 -0.2986 -0.1985
  484loPI   C2A 7736  19.007  10.632   8.528  0.0649 -0.1570  0.1974
  484loPI   C3A 7737  19.004  10.588   8.109 -0.3742 -0.0106 -0.2176
  484loPI   C4A 7738  18.945  10.486   7.625  0.1235  0.0910 -0.0640
  484loPI   C5A 7739  19.099  10.736   7.208  0.1194 -0.0575  0.1716
  484loPI   C6A 7740  19.196  11.178   7.027  0.2882  0.0589 -0.2507
  484loPI   C1B 7741  18.964  11.242   8.461  0.3397  0.0178  0.2429
  484loPI   C2B 7742  18.898  11.512   8.088  0.0471 -0.3791  0.1938
  484loPI   C3B 7743  18.998  11.339   7.740  0.4684  0.2699  0.0003
  484loPI   C4B 7744  18.808  11.137   7.405  0.1947 -0.2082 -0.0552
  485loPI    C1 7745  19.502   6.986  10.030  0.0954  0.0561  0.2322
  485loPI    C2 7746  19.392   6.646  10.209  0.1022 -0.0932 -0.0424
  485loPI    C3 7747  19.329   6.996  10.391 -0.1042 -0.2263  0.1483
  485loPI   PO4 7748  19.516   6.932   9.862  0.0523 -0.1497  0.1373
  485loPI   GL1 7749  19.462   7.028   9.486  0.0797  0.1579 -0.0949
  485loPI   GL2 7750  19.381   7.312   9.318  0.0519  0.2438  0.4544
  485loPI   C1A 7751  19.558   6.750   9.278 -0.0784 -0.4090  0.0567
  485loPI   C2A 7752  19.473   6.459   8.955  0.0604  0.0014  0.0049
  485loPI   C3A 7753  19.550   6.319   8.453  0.0918  0.1376 -0.3862
  485loPI   C4A 7754  19.340   5.963   8.141  0.1008  0.1152 -0.2857
  485loPI   C5A 7755  19.407   5.905   7.633  0.1319  0.1884 -0.4345
  485loPI   C6A 7756  19.372   6.098   7.191 -0.2159  0.1761 -0.2476
  485loPI   C1B 7757  19.449   7.172   8.900  0.1727  0.1891  0.1180
  485loPI   C2B 7758  19.661   6.819   8.683  0.1850 -0.2359  0.0252
  485loPI   C3B 7759  19.930   6.862   8.375  0.0074  0.1015 -0.1705
  485loPI   C4B 7760  20.275   6.811   8.339  0.2531 -0.0276  0.3384
  486loPI    C1 7761   1.181  18.278   9.995  0.0503  0.1028 -0.1327
  486loPI    C2 7762   0.802  18.372  10.085  0.0692  0.2338 -0.1875
  486loPI    C3 7763   0.974  18.050  10.250 -0.0441  0.2123 -0.1111
  486loPI   PO4 7764   1.233  18.235   9.761  0.0666  0.1826 -0.0663
  486loPI   GL1 7765   1.114  18.068   9.269 -0.2410  0.0786  0.1229
  486loPI   GL2 7766   0.948  18.313   9.285  0.2409  0.0154 -0.3063
  486loPI   C1A 7767   1.003  17.982   8.825  0.1736 -0.1684 -0.1466
  486loPI   C2A 7768   0.978  17.938   8.336  0.0565  0.0827  0.5076
  486loPI   C3A 7769   0.816  17.755   7.934  0.2395  0.2133  0.1274
  486loPI   C4A 7770   0.604  17.856   7.640  0.1255  0.3517 -0.3407
  486loPI   C5A 7771   0.712  17.833   7.197  0.0044 -0.0035 -0.3281
  486loPI   C6A 7772   0.747  17.525   6.892  0.0327  0.1192  0.1398
  486loPI   C1B 7773   0.795  18.573   8.874 -0.1120 -0.1261  0.0850
  486loPI   C2B 7774   0.915  18.377   8.482  0.0508  0.0596  0.2275
  486loPI   C3B 7775   1.072  18.409   8.136 -0.0682  0.1196 -0.2060
  486loPI   C4B 7776   1.472  18.436   8.094  0.0828 -0.1625 -0.0679
  487loPI    C1 7777  16.792  19.144   9.619 -0.2839 -0.1979  0.0494
  487loPI    C2 7778  16.616  19.443   9.817  0.0517 -0.0666  0.1568
  487loPI    C3 7779  16.702  19.101  10.006 -0.0370 -0.1106  0.1185
  487loPI   PO4 7780  16.883  19.284   9.408 -0.1516  0.3351  0.2643
  487loPI   GL1 7781  16.923  19.378   8.921  0.0946 -0.3771  0.2965
  487loPI   GL2 7782  16.642  19.363   8.829 -0.0831  0.2509 -0.4015
  487loPI   C1A 7783  17.079  19.138   8.632  0.0037  0.2594 -0.2900
  487loPI   C2A 7784  16.946  18.847   8.351  0.0947 -0.4151  0.0056
  487loPI   C3A 7785  16.973  18.683   7.976 -0.3545 -0.1323  0.5488
  487loPI   C4A 7786  16.991  18.439   7.595  0.0411 -0.2356  0.2587
  487loPI   C5A 7787  17.071  18.109   7.300 -0.0696  0.4464 -0.0575
  487loPI   C6A 7788  17.487  17.996   7.236  0.1220 -0.4214  0.0701
  487loPI   C1B 7789  16.613  19.443   8.457  0.2192  0.1723 -0.0078
  487loPI   C2B 7790  16.725  19.293   8.112  0.0089 -0.1798 -0.2728
  487loPI   C3B 7791  16.680  19.318   7.704  0.0645 -0.1433  0.1345
  487loPI   C4B 7792  16.535  19.502   7.331 -0.0895  0.1259 -0.2244
  488loPI    C1 7793   4.315   3.651   9.688 -0.0278  0.1438 -0.1747
  488loPI    C2 7794   3.998   3.536   9.902 -0.0006  0.0524 -0.1832
  488loPI    C3 7795   4.183   3.879   9.989  0.0771 -0.0372  0.0111
  488loPI   PO4 7796   4.304   3.549   9.466 -0.0231  0.1895  0.1043
  488loPI   GL1 7797   4.268   3.725   9.082  0.1716 -0.1627 -0.4410
  488loPI   GL2 7798   4.418   3.823   8.904  0.0035 -0.1458  0.2293
  488loPI   C1A 7799   4.086   3.474   8.738  0.1167  0.0347  0.5192
  488loPI   C2A 7800   3.863   3.431   8.359  0.1516 -0.1678 -0.3008
  488loPI   C3A 7801   3.885   3.273   7.880  0.4174 -0.0528  0.1397
  488loPI   C4A 7802   3.992   3.446   7.538 -0.1582 -0.0285 -0.0793
  488loPI   C5A 7803   3.869   3.500   7.187 -0.1031 -0.0174 -0.0017
  488loPI   C6A 7804   3.999   3.772   6.813 -0.1139  0.1837  0.0521
  488loPI   C1B 7805   4.617   4.158   8.672  0.0033  0.2162  0.1565
  488loPI   C2B 7806   5.004   4.347   8.530  0.1940  0.0643  0.0304
  488loPI   C3B 7807   5.244   4.574   8.313 -0.0561 -0.0988 -0.3444
  488loPI   C4B 7808   5.633   4.600   8.347  0.0347 -0.0074 -0.1243
  489loPI    C1 7809  19.287   2.307   9.761 -0.1164  0.1545  0.1302
  489loPI    C2 7810  19.651   2.324   9.926 -0.0750  0.1099  0.0437
  489loPI    C3 7811  19.350   2.533  10.085  0.0013  0.1904  0.0829
  489loPI   PO4 7812  19.303   2.341   9.510 -0.1795 -0.1319 -0.0636
  489loPI   GL1 7813  19.500   2.344   9.195  0.2667 -0.4650  0.0803
  489loPI   GL2 7814  19.537   2.102   9.070  0.1848  0.1010  0.1699
  489loPI   C1A 7815  19.701   2.454   8.778  0.1474 -0.1096  0.2459
  489loPI   C2A 7816  19.821   2.435   8.432 -0.0051  0.0956  0.1280
  489loPI   C3A 7817  20.208   2.511   8.094  0.1613 -0.1470  0.1401
  489loPI   C4A 7818  20.315   2.496   7.645 -0.0013 -0.1050 -0.0209
  489loPI   C5A 7819  20.714   2.275   7.454  0.1034 -0.0532  0.4684
  489loPI   C6A 7820  21.115   2.328   7.645  0.3783  0.1796 -0.2268
  489loPI   C1B 7821  19.310   2.113   8.665 -0.0295  0.2453 -0.1170
  489loPI   C2B 7822  19.474   2.145   8.224  0.2892 -0.0870 -0.2490
  489loPI   C3B 7823  19.402   2.147   7.794  0.1047 -0.0297 -0.0478
  489loPI   C4B 7824  19.416   1.967   7.340  0.0502 -0.0193 -0.2113
  490loPI    C1 7825  18.483  13.122   9.684  0.1486  0.1462 -0.0080
  490loPI    C2 7826  18.628  12.950   9.353  0.2308  0.1219  0.0403
  490loPI    C3 7827  18.589  12.736   9.689 -0.1862  0.0504 -0.0478
  490loPI   PO4 7828  18.340  13.286   9.607  0.0604 -0.3048 -0.0217
  490loPI   GL1 7829  18.197  13.481   9.212  0.2180 -0.3260 -0.1303
  490loPI   GL2 7830  18.275  13.218   8.960  0.0175 -0.3702 -0.1871
  490loPI   C1A 7831  18.247  13.989   8.920 -0.0393  0.1504 -0.1994
  490loPI   C2A 7832  18.381  14.163   8.580 -0.0695 -0.2161 -0.0733
  490loPI   C3A 7833  18.373  14.343   8.240  0.2517 -0.0786 -0.0372
  490loPI   C4A 7834  18.081  14.428   7.948 -0.2441  0.2501 -0.0335
  490loPI   C5A 7835  18.058  14.750   7.857  0.3802 -0.1264 -0.0809
  490loPI   C6A 7836  17.697  15.036   7.731 -0.2043 -0.1340 -0.1864
  490loPI   C1B 7837  18.131  13.091   8.553 -0.1619  0.0812 -0.0616
  490loPI   C2B 7838  18.250  13.128   8.104  0.0543 -0.0727 -0.1820
  490loPI   C3B 7839  18.158  12.852   7.697  0.2025 -0.5336 -0.0162
  490loPI   C4B 7840  18.051  12.510   7.454 -0.0154 -0.2639  0.3434
  491loPI    C1 7841  16.379  17.515   9.457 -0.0206 -0.1063 -0.0563
  491loPI    C2 7842  16.281  17.663   9.816  0.1448  0.2043 -0.1357
  491loPI    C3 7843  16.663  17.665   9.696  0.0929  0.0854 -0.3063
  491loPI   PO4 7844  16.219  17.648   9.325  0.0160 -0.1726  0.3029
  491loPI   GL1 7845  16.084  17.561   8.931  0.0501  0.0095  0.2699
  491loPI   GL2 7846  15.799  17.568   9.092 -0.0733 -0.1980 -0.1223
  491loPI   C1A 7847  16.514  17.561   8.592 -0.2862  0.0327  0.0030
  491loPI   C2A 7848  16.685  17.513   8.107  0.2162  0.3494 -0.0629
  491loPI   C3A 7849  16.651  17.243   7.759  0.0297 -0.0718  0.1749
  491loPI   C4A 7850  16.752  17.201   7.225 -0.0085 -0.1329 -0.0945
  491loPI   C5A 7851  17.055  17.015   6.952 -0.1597  0.1027  0.2455
  491loPI   C6A 7852  17.161  16.602   6.697  0.1250  0.0786 -0.1584
  491loPI   C1B 7853  15.732  17.896   8.826  0.0464  0.1042  0.1349
  491loPI   C2B 7854  15.525  18.113   8.546  0.0732  0.0486  0.0129
  491loPI   C3B 7855  15.538  18.136   8.152 -0.1717  0.0195 -0.0336
  491loPI   C4B 7856  15.507  18.432   7.839  0.4767  0.1860 -0.1673
  492loPI    C1 7857  13.766  17.660   9.518  0.1190 -0.1428  0.1797
  492loPI    C2 7858  13.971  17.558   9.846  0.5502  0.3168  0.0651
  492loPI    C3 7859  13.847  17.935   9.796 -0.1941  0.0872  0.0492
  492loPI   PO4 7860  13.850  17.588   9.346  0.0348  0.2491 -0.0607
  492loPI   GL1 7861  13.684  17.823   8.995  0.2054 -0.5954 -0.1819
  492loPI   GL2 7862  13.593  18.162   8.884 -0.2956  0.0572 -0.1841
  492loPI   C1A 7863  13.721  17.889   8.470 -0.3521 -0.3124 -0.0280
  492loPI   C2A 7864  13.819  17.807   8.006  0.1505 -0.1416 -0.2230
  492loPI   C3A 7865  13.731  17.770   7.570  0.1940 -0.0334 -0.2572
  492loPI   C4A 7866  13.917  17.805   7.163  0.2316 -0.0682  0.1396
  492loPI   C5A 7867  13.989  18.070   6.827 -0.0209 -0.0724 -0.1124
  492loPI   C6A 7868  14.249  18.353   6.558 -0.3018  0.2750  0.0038
  492loPI   C1B 7869  13.507  18.333   8.386 -0.3144  0.1107 -0.0973
  492loPI   C2B 7870  13.586  18.336   7.924 -0.2059  0.0451 -0.0299
  492loPI   C3B 7871  13.664  18.322   7.588 -0.0999  0.2348  0.2307
  492loPI   C4B 7872  13.616  18.194   7.093  0.1896 -0.1297  0.1700
  493loPI    C1 7873   1.907  16.738   9.825  0.0187  0.2700  0.1574
  493loPI    C2 7874   2.229  16.632  10.037  0.1231 -0.1526 -0.1966
  493loPI    C3 7875   1.873  16.467  10.117  0.0528  0.0863 -0.0061
  493loPI   PO4 7876   2.026  16.696   9.541 -0.2416  0.1101  0.0043
  493loPI   GL1 7877   1.834  16.599   9.212  0.3669 -0.3504  0.2224
  493loPI   GL2 7878   1.905  16.824   8.990 -0.5286  0.3618 -0.0112
  493loPI   C1A 7879   1.801  16.375   8.818 -0.1771  0.1259  0.4103
  493loPI   C2A 7880   1.797  16.041   8.513 -0.2092  0.1131  0.1336
  493loPI   C3A 7881   1.687  15.911   8.045 -0.1256  0.1466  0.1482
  493loPI   C4A 7882   1.357  15.875   7.802  0.0569 -0.0920 -0.1353
  493loPI   C5A 7883   0.870  15.849   7.804 -0.3721 -0.2656 -0.1848
  493loPI   C6A 7884   0.408  15.617   7.859 -0.0406  0.1478  0.0267
  493loPI   C1B 7885   1.719  16.987   8.649 -0.0025  0.6020 -0.1045
  493loPI   C2B 7886   1.649  17.079   8.249  0.1123 -0.0450  0.0396
  493loPI   C3B 7887   1.406  17.272   7.848 -0.1928  0.1277  0.0092
  493loPI   C4B 7888   1.262  17.645   7.655 -0.0676  0.0909 -0.2953
  494loPI    C1 7889   1.131  14.795  10.037  0.1181 -0.1078  0.0496
  494loPI    C2 7890   0.935  14.635  10.347  0.0139  0.1883  0.1394
  494loPI    C3 7891   1.051  15.018  10.359  0.1361  0.1618 -0.1295
  494loPI   PO4 7892   1.057  14.798   9.846  0.0425  0.1502  0.0882
  494loPI   GL1 7893   1.150  14.648   9.415 -0.0136  0.0812  0.0543
  494loPI   GL2 7894   1.233  14.310   9.359 -0.0370  0.0504 -0.0233
  494loPI   C1A 7895   1.340  14.836   9.086  0.0323  0.0207 -0.0609
  494loPI   C2A 7896   1.240  15.097   8.781 -0.1855  0.1027  0.0226
  494loPI   C3A 7897   1.137  15.178   8.350 -0.1462  0.0524  0.1980
  494loPI   C4A 7898   1.249  15.015   7.993  0.0763  0.0784  0.1702
  494loPI   C5A 7899   1.513  15.103   7.623 -0.0327  0.2687  0.1933
  494loPI   C6A 7900   1.807  14.808   7.543 -0.0481 -0.0333 -0.1999
  494loPI   C1B 7901   1.602  14.342   9.128 -0.0272 -0.3490  0.1378
  494loPI   C2B 7902   2.036  14.249   8.894  0.1058  0.1753  0.0098
  494loPI   C3B 7903   2.126  14.097   8.430  0.3977 -0.0687  0.1228
  494loPI   C4B 7904   2.307  14.002   8.049  0.0195  0.2547  0.1140
  495loPI    C1 7905  16.805  15.786   9.456 -0.0695  0.1539  0.0744
  495loPI    C2 7906  16.935  15.410   9.498  0.0780  0.2044  0.0773
  495loPI    C3 7907  16.610  15.486   9.278  0.0202  0.0706  0.1155
  495loPI   PO4 7908  17.102  15.895   9.411  0.2039  0.2247 -0.2596
  495loPI   GL1 7909  17.312  15.979   9.127 -0.2265 -0.1093  0.0569
  495loPI   GL2 7910  17.524  16.134   8.897  0.0329 -0.0578 -0.3127
  495loPI   C1A 7911  17.170  15.922   8.658  0.2941 -0.0541  0.1049
  495loPI   C2A 7912  17.152  15.629   8.173  0.1595 -0.0294  0.0932
  495loPI   C3A 7913  17.342  15.605   7.869 -0.0371  0.1852 -0.1966
  495loPI   C4A 7914  17.591  15.518   7.461 -0.2455 -0.0401 -0.0400
  495loPI   C5A 7915  17.987  15.668   7.155  0.0427  0.2315 -0.0033
  495loPI   C6A 7916  18.355  15.747   7.043 -0.0313 -0.2792 -0.1146
  495loPI   C1B 7917  17.637  16.270   8.472  0.1204  0.2544 -0.1859
  495loPI   C2B 7918  17.553  16.164   8.023  0.3211  0.1333 -0.1327
  495loPI   C3B 7919  17.372  16.339   7.668  0.0851 -0.0880 -0.0398
  495loPI   C4B 7920  17.335  16.361   7.149  0.3037 -0.1815  0.3032
  496loPI    C1 7921  13.101   7.932   9.493 -0.1618  0.2366 -0.0219
  496loPI    C2 7922  13.354   7.645   9.612  0.0582  0.3461 -0.2182
  496loPI    C3 7923  12.988   7.548   9.481  0.1468  0.1503 -0.3252
  496loPI   PO4 7924  13.269   8.093   9.321  0.1384  0.2260 -0.1726
  496loPI   GL1 7925  13.425   8.338   9.016 -0.2845  0.0928 -0.2999
  496loPI   GL2 7926  13.245   8.541   9.032  0.2294 -0.2314  0.1709
  496loPI   C1A 7927  13.559   8.173   8.708  0.2875  0.2471  0.1282
  496loPI   C2A 7928  13.674   8.157   8.199  0.1931 -0.1850 -0.0411
  496loPI   C3A 7929  13.744   8.126   7.817  0.1920 -0.0737  0.1401
  496loPI   C4A 7930  13.430   8.102   7.500  0.2376  0.1493 -0.0666
  496loPI   C5A 7931  13.215   7.776   7.274  0.1943 -0.0124 -0.0253
  496loPI   C6A 7932  13.249   7.328   7.394  0.5077 -0.1956  0.0004
  496loPI   C1B 7933  12.829   8.412   8.790 -0.0175  0.1640 -0.1780
  496loPI   C2B 7934  12.733   8.183   8.468  0.0021 -0.3624  0.3712
  496loPI   C3B 7935  12.393   7.893   8.380 -0.0283  0.0899  0.0062
  496loPI   C4B 7936  12.048   7.766   8.662  0.1513 -0.1557  0.1138
  497loPI    C1 7937  11.327   6.226   9.649  0.0551  0.1873 -0.0496
  497loPI    C2 7938  11.357   5.907   9.889 -0.0485  0.1121 -0.1356
  497loPI    C3 7939  11.532   6.252   9.991 -0.1549  0.1023  0.0842
  497loPI   PO4 7940  11.333   6.181   9.367  0.1599  0.0712  0.0132
  497loPI   GL1 7941  11.501   5.824   9.076 -0.2109 -0.2124 -0.1568
  497loPI   GL2 7942  11.728   6.135   9.057 -0.2355  0.2349  0.0577
  497loPI   C1A 7943  11.337   5.827   8.594 -0.2122  0.2591  0.0763
  497loPI   C2A 7944  11.046   5.719   8.336 -0.2731 -0.2673 -0.1480
  497loPI   C3A 7945  10.948   5.709   7.964 -0.1756 -0.1883  0.0335
  497loPI   C4A 7946  10.728   5.584   7.537 -0.2448  0.0515 -0.0767
  497loPI   C5A 7947  10.610   5.242   7.265  0.1267 -0.1981 -0.0897
  497loPI   C6A 7948  10.377   5.256   6.881 -0.1012  0.0995  0.3482
  497loPI   C1B 7949  11.671   6.246   8.694 -0.1045 -0.2886 -0.1071
  497loPI   C2B 7950  11.420   6.183   8.128 -0.0975  0.0771  0.0334
  497loPI   C3B 7951  11.131   6.342   7.807 -0.2072  0.1505  0.0543
  497loPI   C4B 7952  10.888   6.500   7.353  0.3271  0.2457 -0.1678
  498loPI    C1 7953  19.656   4.885   9.966 -0.0353 -0.0924 -0.0883
  498loPI    C2 7954  19.905   4.580  10.035 -0.0166 -0.1133 -0.2450
  498loPI    C3 7955  19.677   4.722  10.331  0.2176 -0.0607 -0.0868
  498loPI   PO4 7956  19.777   4.898   9.642 -0.4277  0.1745  0.2422
  498loPI   GL1 7957  20.071   5.103   9.391  0.2743 -0.0042 -0.0126
  498loPI   GL2 7958  19.705   5.133   9.139 -0.2571 -0.1205  0.0959
  498loPI   C1A 7959  20.012   4.760   9.034 -0.2200 -0.2087 -0.0236
  498loPI   C2A 7960  20.016   4.494   8.682  0.1177 -0.2262 -0.0461
  498loPI   C3A 7961  19.852   4.275   8.315 -0.0579 -0.2449 -0.0711
  498loPI   C4A 7962  19.595   3.907   8.075  0.1525  0.1602 -0.3207
  498loPI   C5A 7963  19.339   3.701   7.872 -0.0072 -0.1606 -0.2174
  498loPI   C6A 7964  18.993   3.429   7.577  0.0590 -0.2666 -0.2852
  498loPI   C1B 7965  19.738   4.972   8.655 -0.3375  0.1601 -0.2550
  498loPI   C2B 7966  19.847   4.798   8.304  0.2074  0.1761 -0.0339
  498loPI   C3B 7967  19.817   4.863   7.848  0.0702 -0.0879  0.4038
  498loPI   C4B 7968  19.937   5.001   7.433 -0.1946 -0.2398  0.0719
  499loPI    C1 7969  18.581   8.937   9.752 -0.1468 -0.0401  0.0173
  499loPI    C2 7970  18.700   8.615   9.956  0.2484  0.1913  0.1639
  499loPI    C3 7971  18.488   8.900  10.139  0.2408  0.2009  0.1401
  499loPI   PO4 7972  18.843   8.950   9.600  0.1866 -0.3441  0.1912
  499loPI   GL1 7973  18.961   8.806   9.230  0.1913  0.0467  0.2931
  499loPI   GL2 7974  18.739   8.711   9.134  0.2805  0.1226  0.0207
  499loPI   C1A 7975  19.032   8.892   8.830 -0.1219 -0.0417  0.0596
  499loPI   C2A 7976  19.136   9.066   8.396  0.2816  0.0300 -0.0151
  499loPI   C3A 7977  19.089   8.931   7.940  0.1491  0.1857 -0.0310
  499loPI   C4A 7978  19.118   8.614   7.614  0.0680 -0.1275  0.1560
  499loPI   C5A 7979  18.816   8.319   7.371 -0.2179  0.1448  0.0586
  499loPI   C6A 7980  18.627   7.990   7.050 -0.1496  0.2016  0.2470
  499loPI   C1B 7981  18.629   8.655   8.779 -0.1548  0.2429  0.2170
  499loPI   C2B 7982  18.778   8.678   8.411  0.1902 -0.0043  0.0762
  499loPI   C3B 7983  18.893   8.443   8.025 -0.0847  0.1810  0.0920
  499loPI   C4B 7984  18.764   7.977   7.807  0.2757  0.2429 -0.0243
  500loPI    C1 7985  12.681  14.486  10.188 -0.1082  0.1044 -0.2038
  500loPI    C2 7986  12.556  14.816  10.377  0.0826  0.0523  0.0189
  500loPI    C3 7987  12.293  14.534  10.271 -0.0857  0.2866 -0.1989
  500loPI   PO4 7988  12.814  14.476   9.861 -0.2030 -0.0466  0.3846
  500loPI   GL1 7989  12.655  14.600   9.385 -0.0287 -0.1470 -0.1865
  500loPI   GL2 7990  12.368  14.756   9.318 -0.0686 -0.0681  0.3747
  500loPI   C1A 7991  12.475  14.423   8.982  0.0800  0.0378  0.2040
  500loPI   C2A 7992  12.528  14.375   8.525 -0.1851  0.1960 -0.1626
  500loPI   C3A 7993  12.552  14.337   8.018  0.2044 -0.0904  0.1190
  500loPI   C4A 7994  12.586  14.356   7.620 -0.1037  0.1373 -0.0236
  500loPI   C5A 7995  12.673  13.987   7.398 -0.0514 -0.0940 -0.2173
  500loPI   C6A 7996  12.950  13.937   6.916  0.5059 -0.0264  0.0912
  500loPI   C1B 7997  12.608  14.867   8.972  0.2697  0.2421  0.3109
  500loPI   C2B 7998  12.597  14.914   8.520  0.0106  0.0453 -0.3667
  500loPI   C3B 7999  12.373  14.902   8.169 -0.5337  0.2808 -0.3104
  500loPI   C4B 8000  12.093  14.705   7.886  0.2591  0.1149  0.0585
  501loPI    C1 8001  10.301  -0.066   9.584  0.1147  0.0884  0.0712
  501loPI    C2 8002  10.130   0.291   9.642 -0.1010  0.0205 -0.1324
  501loPI    C3 8003  10.527   0.251   9.676 -0.0764  0.2772 -0.1019
  501loPI   PO4 8004  10.205  -0.159   9.364 -0.0238 -0.1558  0.1179
  501loPI   GL1 8005   9.930  -0.243   9.066  0.0856 -0.1537  0.1565
  501loPI   GL2 8006   9.631  -0.394   9.138 -0.0592  0.0562 -0.0358
  501loPI   C1A 8007  10.147  -0.366   8.654 -0.2084 -0.2736  0.0703
  501loPI   C2A 8008  10.364  -0.303   8.279 -0.2791 -0.1692  0.0482
  501loPI   C3A 8009  10.546  -0.270   7.820  0.1648 -0.1582  0.0944
  501loPI   C4A 8010  10.661  -0.108   7.445  0.1066  0.2094 -0.0049
  501loPI   C5A 8011  10.753   0.177   7.266 -0.3913  0.1846  0.3355
  501loPI   C6A 8012  10.406   0.418   7.090 -0.0719  0.1940  0.2109
  501loPI   C1B 8013   9.586  -0.563   8.738  0.0570  0.3826  0.1196
  501loPI   C2B 8014   9.716  -0.538   8.324  0.0190 -0.0827 -0.1018
  501loPI   C3B 8015   9.592  -0.450   7.918  0.2842  0.0716 -0.2069
  501loPI   C4B 8016   9.435  -0.592   7.493 -0.2361  0.1494  0.0398
  502loPI    C1 8017   8.794  17.162   9.813  0.3584 -0.1597 -0.0262
  502loPI    C2 8018   8.539  17.232  10.114  0.0186 -0.2591 -0.2845
  502loPI    C3 8019   8.901  17.079  10.190 -0.1040 -0.3864  0.0627
  502loPI   PO4 8020   8.564  17.175   9.620  0.1195  0.0317 -0.1613
  502loPI   GL1 8021   8.476  17.238   9.165  0.0867 -0.0415 -0.1876
  502loPI   GL2 8022   8.872  17.125   9.236 -0.0760 -0.1385  0.2972
  502loPI   C1A 8023   8.392  17.036   8.861  0.2371 -0.0724  0.1064
  502loPI   C2A 8024   8.392  16.991   8.464  0.2611  0.2006 -0.0694
  502loPI   C3A 8025   8.492  16.940   8.010 -0.1437 -0.2378 -0.0807
  502loPI   C4A 8026   8.716  17.097   7.646  0.0860 -0.0528  0.1554
  502loPI   C5A 8027   9.014  17.038   7.287 -0.2758 -0.1313 -0.3840
  502loPI   C6A 8028   8.899  16.769   6.971 -0.1476 -0.0823 -0.0578
  502loPI   C1B 8029   8.837  17.250   8.809 -0.0310 -0.0004  0.0214
  502loPI   C2B 8030   8.769  17.306   8.400 -0.0038  0.2114 -0.0466
  502loPI   C3B 8031   8.883  17.204   8.079  0.1662  0.2718  0.0719
  502loPI   C4B 8032   9.212  17.374   7.876  0.0737  0.1584 -0.0063
  503loPI    C1 8033   6.865   2.778   9.447  0.0531  0.0552 -0.1923
  503loPI    C2 8034   6.525   2.963   9.347  0.1989  0.2542 -0.3294
  503loPI    C3 8035   6.549   2.761   9.691 -0.1387  0.0171 -0.4390
  503loPI   PO4 8036   6.957   2.667   9.231  0.2092 -0.1723  0.1641
  503loPI   GL1 8037   6.948   2.422   8.832  0.0479 -0.1127 -0.0988
  503loPI   GL2 8038   7.295   2.497   8.944  0.2094  0.0756 -0.1200
  503loPI   C1A 8039   6.689   2.758   8.631 -0.2364  0.1256 -0.1453
  503loPI   C2A 8040   6.766   2.928   8.218 -0.3033  0.1367  0.1392
  503loPI   C3A 8041   6.951   2.745   7.845 -0.1529 -0.0400 -0.0299
  503loPI   C4A 8042   7.078   2.446   7.546  0.1346 -0.0557  0.1377
  503loPI   C5A 8043   7.233   2.222   7.162  0.0891 -0.2711 -0.0435
  503loPI   C6A 8044   7.054   2.021   6.841 -0.5429 -0.1284 -0.0957
  503loPI   C1B 8045   7.253   2.725   8.591  0.1078  0.0979  0.1344
  503loPI   C2B 8046   7.404   2.748   8.088  0.3100  0.1479 -0.1027
  503loPI   C3B 8047   7.550   2.646   7.615 -0.1723 -0.0531  0.0451
  503loPI   C4B 8048   7.628   2.598   7.232  0.1001 -0.1226 -0.1632
  504loPI    C1 8049  15.109   0.437   9.525 -0.2572  0.1602 -0.0243
  504loPI    C2 8050  14.972   0.741   9.304  0.3129  0.3518 -0.1318
  504loPI    C3 8051  15.134   0.812   9.663 -0.0659  0.1053  0.0948
  504loPI   PO4 8052  15.224   0.347   9.382  0.0254 -0.1491 -0.0677
  504loPI   GL1 8053  15.161   0.454   8.982  0.1022  0.4062  0.1556
  504loPI   GL2 8054  14.909   0.459   8.837  0.1161  0.0507 -0.1361
  504loPI   C1A 8055  15.109   0.128   8.566 -0.0614  0.0412 -0.0303
  504loPI   C2A 8056  15.168   0.112   8.148  0.0275  0.2349 -0.0482
  504loPI   C3A 8057  15.416   0.034   7.776 -0.1324 -0.1837 -0.0716
  504loPI   C4A 8058  15.691   0.239   7.380 -0.0714  0.2746 -0.0647
  504loPI   C5A 8059  16.044   0.374   7.191  0.1495 -0.1315  0.0305
  504loPI   C6A 8060  16.348   0.726   6.968  0.1236 -0.2996 -0.1846
  504loPI   C1B 8061  15.027   0.571   8.376  0.0208 -0.2723 -0.0560
  504loPI   C2B 8062  14.996   0.893   8.044 -0.1797  0.1139 -0.1387
  504loPI   C3B 8063  15.323   1.045   7.713  0.0349  0.0709 -0.2621
  504loPI   C4B 8064  15.754   1.129   7.730  0.3046  0.0512  0.3238
  505loPI    C1 8065  14.819  18.984   9.369  0.0212  0.1129 -0.1150
  505loPI    C2 8066  14.660  19.335   9.262 -0.0384  0.1870  0.2046
  505loPI    C3 8067  14.815  19.290   9.627 -0.2131 -0.1801  0.2378
  505loPI   PO4 8068  14.660  18.690   9.226  0.3791 -0.2203 -0.2028
  505loPI   GL1 8069  14.407  18.444   9.012 -0.1055 -0.2424 -0.3426
  505loPI   GL2 8070  14.080  18.451   9.007 -0.2163 -0.0315  0.4987
  505loPI   C1A 8071  14.364  18.617   8.651  0.0647 -0.0495 -0.0745
  505loPI   C2A 8072  14.298  18.908   8.352  0.2648 -0.0503 -0.0425
  505loPI   C3A 8073  14.484  19.034   7.944  0.0786 -0.1786  0.2487
  505loPI   C4A 8074  14.361  19.120   7.545 -0.1280  0.1360  0.0614
  505loPI   C5A 8075  14.745  19.272   7.165 -0.0288  0.1593 -0.1215
  505loPI   C6A 8076  14.993  19.398   6.909  0.2963 -0.2676 -0.0435
  505loPI   C1B 8077  14.111  18.183   8.698 -0.0314  0.1013  0.3227
  505loPI   C2B 8078  14.124  18.222   8.227  0.0033  0.1207 -0.0440
  505loPI   C3B 8079  14.057  18.196   7.831 -0.2297  0.0552 -0.2396
  505loPI   C4B 8080  14.118  18.207   7.426  0.5704 -0.0456  0.2954
  506loPI    C1 8081   8.935  19.067   9.654  0.0415 -0.0674 -0.1229
  506loPI    C2 8082   8.875  18.753   9.895 -0.2381  0.0836  0.0098
  506loPI    C3 8083   9.135  19.039  10.000 -0.1227 -0.0081 -0.0222
  506loPI   PO4 8084   8.872  18.932   9.424 -0.1076  0.0853  0.1772
  506loPI   GL1 8085   9.071  18.798   9.053  0.1067 -0.1483 -0.0231
  506loPI   GL2 8086   9.222  19.070   9.122  0.3406 -0.0667  0.2003
  506loPI   C1A 8087   9.201  18.453   8.691  0.1722 -0.0378 -0.0280
  506loPI   C2A 8088   9.112  18.335   8.166  0.2848 -0.4181 -0.2348
  506loPI   C3A 8089   9.186  18.275   7.662 -0.1213  0.1569 -0.0271
  506loPI   C4A 8090   9.196  18.472   7.228  0.2630 -0.0264  0.2347
  506loPI   C5A 8091   9.078  18.648   6.924 -0.1452  0.2514 -0.1610
  506loPI   C6A 8092   8.888  18.846   7.139 -0.0412  0.2892  0.1275
  506loPI   C1B 8093   9.515  18.771   8.881 -0.0797  0.1432  0.1828
  506loPI   C2B 8094   9.549  18.782   8.492  0.1903 -0.0389 -0.2753
  506loPI   C3B 8095   9.252  18.821   8.141 -0.3375  0.0125 -0.0952
  506loPI   C4B 8096   8.792  18.847   8.206 -0.1396 -0.0166 -0.0148
  507loPI    C1 8097   2.668  13.394  10.004  0.1866 -0.1834 -0.0547
  507loPI    C2 8098   3.017  13.586  10.039  0.0132  0.1311 -0.0077
  507loPI    C3 8099   2.753  13.594  10.339 -0.0716 -0.0327 -0.0763
  507loPI   PO4 8100   2.587  13.422   9.795 -0.0189 -0.0844  0.1522
  507loPI   GL1 8101   2.538  13.473   9.319 -0.2202  0.0758 -0.0221
  507loPI   GL2 8102   2.868  13.272   9.209 -0.0896 -0.3313  0.0207
  507loPI   C1A 8103   2.717  13.632   8.897 -0.0191 -0.2352 -0.0365
  507loPI   C2A 8104   2.930  13.450   8.513 -0.1253 -0.2236 -0.1997
  507loPI   C3A 8105   3.065  13.515   8.085  0.1753  0.0203 -0.1900
  507loPI   C4A 8106   3.299  13.318   7.766  0.1147  0.1374  0.3341
  507loPI   C5A 8107   3.343  13.079   7.377 -0.1024  0.0601  0.3405
  507loPI   C6A 8108   3.718  12.758   7.293  0.0277 -0.3485 -0.1091
  507loPI   C1B 8109   2.635  13.181   8.871  0.1315 -0.0825  0.0178
  507loPI   C2B 8110   2.500  13.097   8.433 -0.2108 -0.2691  0.0234
  507loPI   C3B 8111   2.182  13.282   8.173 -0.4560  0.0189 -0.1606
  507loPI   C4B 8112   1.952  13.606   8.240  0.0500 -0.3667  0.0478
  508loPI    C1 8113   3.879   1.245   9.407 -0.2103  0.0837 -0.0318
  508loPI    C2 8114   3.666   1.370   9.722 -0.1137 -0.2739  0.1810
  508loPI    C3 8115   4.062   1.426   9.713 -0.1200 -0.2399  0.1094
  508loPI   PO4 8116   3.889   1.340   9.160  0.0450 -0.0085  0.1598
  508loPI   GL1 8117   4.236   1.203   8.864 -0.0008  0.0615  0.0418
  508loPI   GL2 8118   4.367   1.052   8.576 -0.0161  0.0297  0.1342
  508loPI   C1A 8119   3.973   1.446   8.547 -0.1081  0.0892  0.1534
  508loPI   C2A 8120   3.675   1.473   8.217 -0.0148  0.0904 -0.0048
  508loPI   C3A 8121   3.405   1.639   7.908 -0.1181  0.2161  0.1532
  508loPI   C4A 8122   3.361   1.629   7.470  0.2744  0.1485 -0.2027
  508loPI   C5A 8123   3.291   1.463   6.949  0.1104 -0.1177 -0.1448
  508loPI   C6A 8124   3.319   1.277   6.602 -0.0829 -0.1412  0.2092
  508loPI   C1B 8125   4.267   1.112   8.147 -0.1177 -0.1183  0.0047
  508loPI   C2B 8126   4.310   1.003   7.673 -0.0011  0.0731 -0.4132
  508loPI   C3B 8127   4.119   1.128   7.301  0.0653 -0.0867  0.0139
  508loPI   C4B 8128   3.739   1.031   7.074 -0.1775 -0.2368 -0.0468
  509loPI    C1 8129   3.029  17.462   9.487 -0.1221 -0.0058  0.0202
  509loPI    C2 8130   2.824  17.596   9.803  0.1366 -0.0220  0.1983
  509loPI    C3 8131   3.222  17.627   9.796  0.1452 -0.1642 -0.0593
  509loPI   PO4 8132   2.833  17.529   9.256 -0.4249 -0.1473 -0.0818
  509loPI   GL1 8133   2.888  17.338   8.861  0.1748  0.3791 -0.0207
  509loPI   GL2 8134   2.734  17.273   8.612 -0.1165  0.0462 -0.1471
  509loPI   C1A 8135   3.400  17.215   8.686  0.2929 -0.1889 -0.0299
  509loPI   C2A 8136   3.595  16.921   8.448  0.0348 -0.1047 -0.5381
  509loPI   C3A 8137   3.409  16.657   8.176 -0.0499  0.4616 -0.0680
  509loPI   C4A 8138   3.160  16.730   7.923 -0.0156 -0.0176  0.0536
  509loPI   C5A 8139   3.164  17.076   7.680  0.0665 -0.3218 -0.0187
  509loPI   C6A 8140   3.322  17.361   7.376 -0.0708 -0.0145 -0.1311
  509loPI   C1B 8141   2.617  17.165   8.332  0.0293 -0.1095  0.2535
  509loPI   C2B 8142   2.715  16.952   7.897  0.1667  0.0801 -0.4224
  509loPI   C3B 8143   2.456  16.756   7.627  0.4009  0.1147  0.0603
  509loPI   C4B 8144   2.096  16.588   7.535 -0.1802 -0.0112 -0.0719
  510loPI    C1 8145   8.758   8.490  10.328  0.1584 -0.0980  0.0937
  510loPI    C2 8146   8.855   8.166  10.542  0.1818 -0.2434 -0.1333
  510loPI    C3 8147   8.648   8.463  10.711  0.2124 -0.3492  0.0935
  510loPI   PO4 8148   8.887   8.458  10.089  0.1123 -0.2298 -0.1841
  510loPI   GL1 8149   8.960   8.799   9.794 -0.0502  0.1158  0.0663
  510loPI   GL2 8150   9.154   9.112   9.834  0.2018  0.1429  0.2234
  510loPI   C1A 8151   8.957   8.898   9.324 -0.1321  0.3108  0.1012
  510loPI   C2A 8152   9.000   8.901   8.843 -0.2219  0.1012 -0.4407
  510loPI   C3A 8153   9.125   9.251   8.541  0.1137  0.2900 -0.1700
  510loPI   C4A 8154   9.091   9.295   8.183  0.0846  0.2107 -0.0191
  510loPI   C5A 8155   9.404   9.452   7.911 -0.1510 -0.3320  0.0162
  510loPI   C6A 8156   9.533   9.856   7.697  0.4086  0.2272  0.0893
  510loPI   C1B 8157   9.029   9.472   9.634 -0.1065 -0.0157 -0.2817
  510loPI   C2B 8158   8.977   9.776   9.374 -0.2966  0.1017 -0.1028
  510loPI   C3B 8159   8.936  10.280   9.257 -0.2649 -0.0195 -0.1113
  510loPI   C4B 8160   8.571  10.317   9.109  0.1093  0.0029 -0.0576
  511loPI    C1 8161   7.502   7.798  10.089  0.0405  0.0132 -0.0136
  511loPI    C2 8162   7.235   7.772  10.386 -0.2134  0.0971 -0.2301
  511loPI    C3 8163   7.552   8.015  10.422  0.0040 -0.2306  0.1531
  511loPI   PO4 8164   7.412   7.719   9.871  0.2316 -0.2623 -0.0240
  511loPI   GL1 8165   7.522   7.454   9.481 -0.1311  0.2578  0.2863
  511loPI   GL2 8166   7.806   7.369   9.345 -0.1084 -0.0585  0.1636
  511loPI   C1A 8167   7.215   7.490   9.063  0.1793  0.2148 -0.0395
  511loPI   C2A 8168   6.986   7.564   8.669  0.0320 -0.1912  0.0114
  511loPI   C3A 8169   6.952   7.553   8.213  0.1293  0.2329  0.0011
  511loPI   C4A 8170   6.898   7.757   7.830 -0.2452 -0.2389  0.2138
  511loPI   C5A 8171   7.218   7.585   7.609 -0.1000 -0.0859 -0.0588
  511loPI   C6A 8172   7.335   7.347   7.161 -0.3801  0.3949 -0.1028
  511loPI   C1B 8173   7.736   7.622   9.018  0.1211  0.1120  0.3250
  511loPI   C2B 8174   7.809   7.414   8.580  0.0725  0.7318  0.1102
  511loPI   C3B 8175   7.772   7.341   8.155 -0.1219  0.4457  0.1289
  511loPI   C4B 8176   7.694   7.428   7.756  0.0874 -0.0504  0.0888
  512loPI    C1 8177  14.737   1.797   9.458 -0.2693  0.1172  0.0623
  512loPI    C2 8178  14.798   2.121   9.685  0.0186  0.1028  0.0104
  512loPI    C3 8179  14.863   1.755   9.835  0.1278  0.0897 -0.0685
  512loPI   PO4 8180  14.665   1.882   9.203  0.3236  0.4432 -0.3722
  512loPI   GL1 8181  14.802   1.970   8.806 -0.1192 -0.2791 -0.3129
  512loPI   GL2 8182  14.667   2.183   8.626  0.0165  0.0574 -0.3358
  512loPI   C1A 8183  14.862   1.634   8.491  0.1045 -0.0944  0.1003
  512loPI   C2A 8184  14.682   1.749   8.092 -0.1301 -0.0138  0.0129
  512loPI   C3A 8185  14.690   2.072   7.823  0.1505 -0.4639 -0.0602
  512loPI   C4A 8186  14.983   2.209   7.544  0.2041 -0.0806 -0.0607
  512loPI   C5A 8187  15.438   2.276   7.418  0.1005  0.3017 -0.1634
  512loPI   C6A 8188  15.728   2.537   7.300 -0.0204 -0.0534 -0.2585
  512loPI   C1B 8189  14.457   2.235   8.203  0.0222  0.2147 -0.1977
  512loPI   C2B 8190  14.278   2.318   7.772  0.0733 -0.0963 -0.0288
  512loPI   C3B 8191  14.456   2.215   7.366 -0.1466 -0.1589 -0.0838
  512loPI   C4B 8192  14.534   2.104   6.899  0.0127 -0.0220 -0.1555
  513loPI    C1 8193  11.866  18.766   9.868 -0.0229  0.0915 -0.0752
  513loPI    C2 8194  11.634  18.528  10.090 -0.0633  0.0810 -0.1286
  513loPI    C3 8195  11.719  18.897  10.216 -0.0426  0.0563 -0.0703
  513loPI   PO4 8196  11.846  18.729   9.595  0.2118 -0.0197 -0.0405
  513loPI   GL1 8197  11.717  18.914   9.351 -0.3074  0.0335  0.2232
  513loPI   GL2 8198  11.555  19.221   9.270  0.1057 -0.1436  0.1397
  513loPI   C1A 8199  11.782  18.973   8.880 -0.2471 -0.1052 -0.0143
  513loPI   C2A 8200  11.771  19.123   8.334 -0.1387  0.0493  0.3686
  513loPI   C3A 8201  11.719  19.035   7.897  0.3176 -0.1956 -0.2803
  513loPI   C4A 8202  11.544  19.222   7.535 -0.1656 -0.0667  0.0663
  513loPI   C5A 8203  11.306  19.233   7.199 -0.1281  0.0150 -0.0072
  513loPI   C6A 8204  11.085  19.590   7.127 -0.4996  0.2694  0.0455
  513loPI   C1B 8205  11.684  19.428   8.790 -0.0481  0.3333  0.0300
  513loPI   C2B 8206  11.503  19.527   8.415  0.0273  0.0725  0.0941
  513loPI   C3B 8207  11.468  19.535   7.972 -0.0639 -0.0022  0.1252
  513loPI   C4B 8208  11.296  19.790   7.598  0.0440  0.3335 -0.1007
  514loPI    C1 8209   0.294   3.665   9.895  0.1384 -0.2989 -0.0222
  514loPI    C2 8210   0.452   3.465  10.203  0.1538 -0.3559 -0.0668
  514loPI    C3 8211   0.116   3.334  10.031 -0.1868  0.0010  0.3042
  514loPI   PO4 8212   0.507   3.729   9.672 -0.0980 -0.0211  0.3308
  514loPI   GL1 8213   0.804   3.769   9.300 -0.1667 -0.4288  0.0030
  514loPI   GL2 8214   0.650   3.809   9.144 -0.0599  0.4105  0.2329
  514loPI   C1A 8215   1.030   3.529   8.961  0.1524 -0.0607  0.0062
  514loPI   C2A 8216   0.863   3.599   8.528  0.0946 -0.3096  0.1167
  514loPI   C3A 8217   0.702   3.662   8.096  0.0430 -0.0529 -0.3563
  514loPI   C4A 8218   0.655   3.580   7.720  0.0345 -0.4767  0.2348
  514loPI   C5A 8219   0.382   3.521   7.245 -0.2326  0.0147 -0.2778
  514loPI   C6A 8220   0.135   3.364   6.845  0.2251  0.1507  0.1639
  514loPI   C1B 8221   0.646   4.027   8.758 -0.1049  0.0966  0.3684
  514loPI   C2B 8222   0.489   4.048   8.377 -0.0771  0.2429 -0.0893
  514loPI   C3B 8223   0.298   3.946   8.008 -0.3369  0.0084  0.2146
  514loPI   C4B 8224   0.347   3.943   7.483  0.3256 -0.0651  0.1223
  515loPI    C1 8225   5.112   4.979   9.794  0.0999 -0.0858 -0.0421
  515loPI    C2 8226   5.196   4.634   9.978 -0.3368 -0.1712  0.0090
  515loPI    C3 8227   5.286   4.982  10.154 -0.0162 -0.2548  0.0168
  515loPI   PO4 8228   5.048   4.878   9.567 -0.2484  0.2033  0.3020
  515loPI   GL1 8229   5.060   5.003   9.187 -0.0139 -0.1094 -0.1624
  515loPI   GL2 8230   5.433   4.896   9.231  0.4322  0.1235  0.0388
  515loPI   C1A 8231   5.382   5.272   8.846 -0.0712 -0.0463  0.2002
  515loPI   C2A 8232   5.762   5.341   8.875  0.0152  0.1725 -0.2575
  515loPI   C3A 8233   6.173   5.514   8.658  0.0158  0.2436 -0.1209
  515loPI   C4A 8234   6.522   5.634   8.312 -0.0419 -0.1183  0.0929
  515loPI   C5A 8235   6.885   5.724   8.093  0.2428 -0.0121  0.3946
  515loPI   C6A 8236   7.011   6.152   8.084  0.0531 -0.0275  0.1096
  515loPI   C1B 8237   5.825   5.003   9.219  0.3610  0.0047 -0.3370
  515loPI   C2B 8238   6.148   5.005   8.995 -0.1756 -0.3432  0.0524
  515loPI   C3B 8239   6.164   4.864   8.570 -0.3876 -0.2294  0.3399
  515loPI   C4B 8240   6.200   5.157   8.268 -0.2201  0.1073 -0.5031
  516loPI    C1 8241   4.686   2.595   9.580  0.0191  0.1033 -0.0292
  516loPI    C2 8242   4.573   2.448   9.934 -0.1052  0.1366 -0.0541
  516loPI    C3 8243   4.751   2.806   9.914  0.0637  0.0565 -0.0083
  516loPI   PO4 8244   4.428   2.539   9.378 -0.0683 -0.1715  0.0553
  516loPI   GL1 8245   4.370   2.566   8.908  0.1718  0.0440  0.1323
  516loPI   GL2 8246   4.357   2.308   8.684 -0.2349 -0.1695  0.0127
  516loPI   C1A 8247   4.494   2.772   8.462 -0.2321  0.1479  0.0097
  516loPI   C2A 8248   4.746   3.097   8.259 -0.2700 -0.3496 -0.1899
  516loPI   C3A 8249   4.943   3.281   7.882  0.3151 -0.2606 -0.1290
  516loPI   C4A 8250   4.972   3.482   7.603  0.0429 -0.0553 -0.0747
  516loPI   C5A 8251   5.076   3.591   7.226 -0.0160  0.3000  0.1086
  516loPI   C6A 8252   5.425   3.477   6.859  0.1175 -0.0126 -0.1820
  516loPI   C1B 8253   4.305   2.373   8.249  0.2814  0.0796 -0.1455
  516loPI   C2B 8254   4.467   2.387   7.848 -0.0685 -0.1663 -0.4108
  516loPI   C3B 8255   4.767   2.762   7.806 -0.1074  0.0866 -0.3486
  516loPI   C4B 8256   5.111   2.898   7.566 -0.0001 -0.1408  0.0537
  517loPI    C1 8257  12.101  18.326   9.948  0.0188 -0.0090  0.1651
  517loPI    C2 8258  12.500  18.356   9.966  0.0363 -0.0662 -0.0871
  517loPI    C3 8259  12.305  18.119  10.223  0.1665 -0.0562  0.0218
  517loPI   PO4 8260  12.034  18.277   9.657 -0.1599  0.4656  0.3813
  517loPI   GL1 8261  11.830  18.210   9.262 -0.1223 -0.1432  0.3149
  517loPI   GL2 8262  11.749  18.477   9.097 -0.3081 -0.5132  0.0672
  517loPI   C1A 8263  12.191  18.085   8.956 -0.2176 -0.3458  0.2402
  517loPI   C2A 8264  12.262  18.246   8.512 -0.1424  0.2140  0.1585
  517loPI   C3A 8265  12.247  18.266   8.080  0.1698  0.0201  0.1294
  517loPI   C4A 8266  12.276  18.428   7.641  0.0773  0.1062  0.1825
  517loPI   C5A 8267  11.968  18.361   7.347  0.2248  0.3158 -0.2227
  517loPI   C6A 8268  11.638  18.303   7.014  0.0553  0.1947  0.0307
  517loPI   C1B 8269  11.766  18.284   8.723 -0.1693  0.0339 -0.0658
  517loPI   C2B 8270  11.766  18.224   8.263 -0.1812 -0.1201  0.2270
  517loPI   C3B 8271  11.831  18.114   7.838  0.3019  0.1335  0.2202
  517loPI   C4B 8272  11.753  17.907   7.469 -0.3142  0.2506 -0.2858
  518loPI    C1 8273  15.853  15.753   9.535  0.0984 -0.2132  0.0248
  518loPI    C2 8274  16.128  15.476   9.448  0.0982 -0.1504 -0.1800
  518loPI    C3 8275  16.008  15.526   9.826  0.1927 -0.3412 -0.1234
  518loPI   PO4 8276  15.620  15.763   9.426  0.0041  0.3615 -0.0952
  518loPI   GL1 8277  15.474  15.684   8.969  0.2338  0.0353 -0.2582
  518loPI   GL2 8278  15.432  15.546   8.580 -0.1022  0.0619 -0.4970
  518loPI   C1A 8279  15.420  16.106   8.620 -0.0662  0.1145  0.2742
  518loPI   C2A 8280  15.238  16.008   8.222 -0.3346 -0.0652 -0.3324
  518loPI   C3A 8281  15.335  16.031   7.848  0.1211 -0.2024 -0.0317
  518loPI   C4A 8282  15.178  16.190   7.513  0.1520  0.1554  0.0867
  518loPI   C5A 8283  15.135  16.227   7.178 -0.1162 -0.3178  0.0728
  518loPI   C6A 8284  15.315  16.037   6.832 -0.2733  0.1965 -0.2082
  518loPI   C1B 8285  15.678  15.707   8.242 -0.0311  0.0146  0.1651
  518loPI   C2B 8286  16.064  15.560   8.032  0.2248  0.0102 -0.4076
  518loPI   C3B 8287  16.344  15.460   7.705 -0.0484  0.0810  0.1863
  518loPI   C4B 8288  16.659  15.495   7.274 -0.2251 -0.2694  0.4417
  519loPI    C1 8289   4.316  13.333   9.941  0.0600  0.0086 -0.0072
  519loPI    C2 8290   3.921  13.279   9.911  0.1009 -0.0907 -0.4423
  519loPI    C3 8291   4.065  13.609  10.086 -0.1698 -0.1125 -0.1679
  519loPI   PO4 8292   4.365  13.232   9.621 -0.0630 -0.0189  0.1251
  519loPI   GL1 8293   4.518  13.307   9.241  0.2817  0.0503 -0.0145
  519loPI   GL2 8294   4.426  13.001   9.148  0.3361 -0.1379  0.1582
  519loPI   C1A 8295   4.326  13.349   8.835 -0.2302 -0.1518 -0.1847
  519loPI   C2A 8296   4.376  13.678   8.551 -0.0526  0.1824 -0.3001
  519loPI   C3A 8297   4.338  13.705   8.108 -0.0625 -0.1681  0.0573
  519loPI   C4A 8298   4.390  13.658   7.696  0.2030  0.2755  0.0574
  519loPI   C5A 8299   4.078  13.651   7.359  0.0802 -0.1030 -0.0812
  519loPI   C6A 8300   4.071  13.452   6.989  0.0401 -0.1716 -0.6178
  519loPI   C1B 8301   4.426  12.878   8.745 -0.1714  0.0967 -0.1262
  519loPI   C2B 8302   4.431  12.595   8.389 -0.0368  0.0918  0.2413
  519loPI   C3B 8303   4.488  12.262   8.049 -0.2472 -0.0930 -0.0153
  519loPI   C4B 8304   4.411  11.846   7.883  0.4475  0.2249  0.0202
  520loPI    C1 8305   4.095  11.754  10.192  0.0204 -0.0240  0.1522
  520loPI    C2 8306   3.945  12.119  10.121 -0.0082 -0.0715 -0.0371
  520loPI    C3 8307   4.102  12.033  10.479 -0.1338  0.0811  0.0559
  520loPI   PO4 8308   4.277  11.704   9.968 -0.3222 -0.2255  0.0160
  520loPI   GL1 8309   4.498  11.758   9.553  0.1405 -0.1750 -0.1374
  520loPI   GL2 8310   4.642  11.584   9.535  0.0304 -0.3554 -0.0456
  520loPI   C1A 8311   4.107  11.701   9.289  0.0139  0.2327 -0.3403
  520loPI   C2A 8312   4.079  11.681   8.807  0.0885  0.0225 -0.2089
  520loPI   C3A 8313   4.295  11.536   8.370 -0.2421 -0.0114  0.0451
  520loPI   C4A 8314   4.134  11.392   8.082  0.1985 -0.1043 -0.0296
  520loPI   C5A 8315   4.214  11.267   7.579  0.2441  0.0836  0.2624
  520loPI   C6A 8316   3.919  11.306   7.215 -0.1229  0.1066  0.0147
  520loPI   C1B 8317   4.617  11.679   9.051 -0.1750  0.2000  0.0235
  520loPI   C2B 8318   4.616  11.782   8.684 -0.0119  0.3170 -0.0739
  520loPI   C3B 8319   4.800  11.517   8.287  0.2616 -0.3485  0.2972
  520loPI   C4B 8320   4.647  11.323   7.907  0.0373 -0.0898 -0.1288
  521loPI    C1 8321   2.488  19.394   9.591  0.1984 -0.0931 -0.0196
  521loPI    C2 8322   2.870  19.285   9.643  0.2689  0.1291 -0.0627
  521loPI    C3 8323   2.749  19.650   9.753  0.1348  0.1622 -0.3118
  521loPI   PO4 8324   2.533  19.281   9.316 -0.1300  0.1145 -0.1780
  521loPI   GL1 8325   2.562  19.130   8.841  0.1715  0.0707 -0.3040
  521loPI   GL2 8326   2.320  19.149   8.768  0.0077 -0.2426 -0.1135
  521loPI   C1A 8327   2.787  19.094   8.590 -0.2308 -0.0321  0.0647
  521loPI   C2A 8328   3.033  18.970   8.167 -0.1389  0.0857 -0.0267
  521loPI   C3A 8329   3.117  19.212   7.756 -0.3159  0.2086  0.0875
  521loPI   C4A 8330   3.136  19.248   7.335  0.2109 -0.3752  0.0943
  521loPI   C5A 8331   3.466  19.326   7.025  0.4328  0.3438  0.0288
  521loPI   C6A 8332   3.831  19.503   6.798  0.0302  0.0519  0.3627
  521loPI   C1B 8333   2.145  19.067   8.346  0.0633 -0.2456 -0.4847
  521loPI   C2B 8334   2.080  19.124   8.017  0.1453 -0.0888  0.2036
  521loPI   C3B 8335   2.145  19.381   7.633  0.4261  0.2553 -0.3972
  521loPI   C4B 8336   2.254  19.683   7.290  0.3563  0.0440 -0.0287
  522loPI    C1 8337  13.121   3.267   9.660 -0.3114  0.0824  0.1325
  522loPI    C2 8338  12.987   3.564   9.893  0.0801  0.2057  0.2075
  522loPI    C3 8339  13.380   3.496   9.862  0.0086 -0.1162 -0.0455
  522loPI   PO4 8340  13.035   3.300   9.414 -0.1993  0.3277 -0.2644
  522loPI   GL1 8341  13.015   3.250   9.016 -0.0656 -0.1378 -0.2142
  522loPI   GL2 8342  12.806   3.451   8.882  0.0638  0.0695 -0.2166
  522loPI   C1A 8343  13.033   3.152   8.484 -0.0084  0.1438 -0.1426
  522loPI   C2A 8344  13.185   3.211   8.145  0.2617  0.2227 -0.1545
  522loPI   C3A 8345  13.246   2.956   7.777  0.0704  0.0630 -0.0775
  522loPI   C4A 8346  13.327   2.734   7.520  0.0289  0.0299 -0.2166
  522loPI   C5A 8347  13.328   2.762   7.137  0.1762  0.1526  0.2345
  522loPI   C6A 8348  13.579   2.866   6.796 -0.3223 -0.0975 -0.3127
  522loPI   C1B 8349  12.737   3.571   8.574 -0.1599 -0.1921 -0.0305
  522loPI   C2B 8350  12.650   3.537   8.066  0.0143  0.1797 -0.2788
  522loPI   C3B 8351  12.505   3.340   7.682  0.2050 -0.0582  0.2658
  522loPI   C4B 8352  12.353   3.046   7.396  0.0177 -0.0893 -0.1115
  523loPI    C1 8353   8.030   5.256   9.765  0.1885  0.0229 -0.0946
  523loPI    C2 8354   7.884   4.905   9.886  0.2364 -0.0108 -0.1338
  523loPI    C3 8355   7.923   5.205  10.147  0.4084 -0.1058 -0.0484
  523loPI   PO4 8356   8.280   5.197   9.585 -0.0481  0.1437 -0.2262
  523loPI   GL1 8357   8.434   5.248   9.197 -0.2038 -0.2324 -0.1322
  523loPI   GL2 8358   8.361   4.893   9.105  0.0963  0.0427  0.1108
  523loPI   C1A 8359   8.693   5.205   8.871  0.1673 -0.0860 -0.2099
  523loPI   C2A 8360   9.070   5.180   8.668 -0.1297  0.1949  0.0182
  523loPI   C3A 8361   9.170   5.371   8.291 -0.0804  0.0994 -0.0572
  523loPI   C4A 8362   9.063   5.387   7.843  0.2276  0.0960 -0.2575
  523loPI   C5A 8363   8.886   5.579   7.448 -0.1710  0.0726  0.3970
  523loPI   C6A 8364   8.499   5.596   7.295 -0.2190 -0.0515 -0.0168
  523loPI   C1B 8365   8.085   5.064   8.860  0.0573 -0.2152  0.1931
  523loPI   C2B 8366   8.325   5.233   8.523 -0.0232 -0.2628  0.0944
  523loPI   C3B 8367   8.652   4.900   8.329 -0.1170  0.1217  0.4049
  523loPI   C4B 8368   8.794   4.667   8.666  0.1703  0.1719  0.1797
  524loPI    C1 8369  18.552   7.772   9.573  0.1264  0.0192 -0.1920
  524loPI    C2 8370  18.359   7.728   9.920  0.2762 -0.0129 -0.1119
  524loPI    C3 8371  18.627   7.455   9.804  0.0374 -0.1401 -0.3783
  524loPI   PO4 8372  18.388   7.945   9.401 -0.3332 -0.0852  0.0045
  524loPI   GL1 8373  18.401   7.911   9.030 -0.0647  0.3873 -0.0573
  524loPI   GL2 8374  18.517   7.584   9.064 -0.1594 -0.0136  0.0104
  524loPI   C1A 8375  18.204   8.230   8.666 -0.0596 -0.0057 -0.1126
  524loPI   C2A 8376  18.006   8.491   8.409 -0.1296 -0.0594  0.4465
  524loPI   C3A 8377  17.722   8.543   8.089 -0.1182 -0.2858  0.2160
  524loPI   C4A 8378  17.518   8.669   7.649 -0.2970  0.0049  0.2397
  524loPI   C5A 8379  17.176   8.523   7.311  0.2169 -0.0612  0.2289
  524loPI   C6A 8380  17.143   8.381   6.846  0.2169  0.2806 -0.2409
  524loPI   C1B 8381  18.613   7.599   8.692 -0.0386 -0.0933 -0.2641
  524loPI   C2B 8382  18.869   7.766   8.437  0.2327 -0.0588 -0.1408
  524loPI   C3B 8383  19.057   7.598   8.094 -0.0962 -0.0314  0.0031
  524loPI   C4B 8384  19.147   7.629   7.655 -0.1320  0.3617 -0.2949
  525loPI    C1 8385   2.635   1.609   9.334  0.3274 -0.4964 -0.0451
  525loPI    C2 8386   2.739   1.567   9.718 -0.1422 -0.1252  0.1327
  525loPI    C3 8387   2.987   1.748   9.462  0.0294 -0.0659  0.3380
  525loPI   PO4 8388   2.326   1.606   9.434  0.3826  0.2393  0.0033
  525loPI   GL1 8389   1.874   1.521   9.154 -0.4292  0.1410  0.2713
  525loPI   GL2 8390   1.671   1.290   9.098 -0.1576  0.1534  0.1644
  525loPI   C1A 8391   1.685   1.878   8.957 -0.1031 -0.2996 -0.1640
  525loPI   C2A 8392   1.708   2.148   8.646  0.1206 -0.0549  0.0775
  525loPI   C3A 8393   1.659   2.429   8.347 -0.1658  0.1634  0.1255
  525loPI   C4A 8394   1.624   2.512   7.970 -0.0887 -0.0389 -0.1400
  525loPI   C5A 8395   1.518   2.762   7.668  0.1821  0.0121  0.2454
  525loPI   C6A 8396   1.606   2.975   7.313  0.2485  0.0709 -0.1056
  525loPI   C1B 8397   1.778   1.356   8.654 -0.3033 -0.0949 -0.0226
  525loPI   C2B 8398   1.853   1.393   8.299 -0.0884  0.1779 -0.2486
  525loPI   C3B 8399   2.035   1.178   7.999 -0.1051 -0.3584 -0.2179
  525loPI   C4B 8400   2.445   0.989   7.893 -0.0072 -0.0361 -0.1696
  526loPI    C1 8401  17.242   9.694   9.618  0.0573 -0.1242 -0.0042
  526loPI    C2 8402  17.597   9.730   9.801 -0.0989 -0.1025  0.3016
  526loPI    C3 8403  17.303   9.989   9.881 -0.1706 -0.0904  0.0126
  526loPI   PO4 8404  17.308   9.708   9.382 -0.1529  0.1416  0.4752
  526loPI   GL1 8405  17.304   9.601   8.996  0.2167  0.2097 -0.0256
  526loPI   GL2 8406  17.015   9.459   8.956  0.1170 -0.1804  0.1351
  526loPI   C1A 8407  17.658   9.630   8.739  0.1433  0.1306 -0.1424
  526loPI   C2A 8408  17.905   9.654   8.327  0.1853  0.0154  0.2395
  526loPI   C3A 8409  17.801   9.637   7.850  0.0449 -0.0805  0.0056
  526loPI   C4A 8410  17.642   9.257   7.705  0.1580  0.1301 -0.0212
  526loPI   C5A 8411  17.705   8.983   7.331  0.2595 -0.2563 -0.0191
  526loPI   C6A 8412  17.790   8.740   6.966  0.1354  0.1049 -0.1268
  526loPI   C1B 8413  17.202   9.257   8.574 -0.3865  0.0241  0.0731
  526loPI   C2B 8414  17.473   9.268   8.277 -0.5146  0.1419  0.0341
  526loPI   C3B 8415  17.810   8.998   8.123 -0.0051  0.2064  0.0849
  526loPI   C4B 8416  18.035   8.894   7.790 -0.0550 -0.4207  0.0966
  527loPI    C1 8417   9.755   7.105  10.103  0.2372 -0.0065  0.1370
  527loPI    C2 8418   9.479   7.370  10.218  0.1360 -0.0703  0.0440
  527loPI    C3 8419   9.619   7.101  10.479  0.1739  0.0170  0.1144
  527loPI   PO4 8420   9.747   7.185   9.849 -0.1159 -0.0602 -0.1321
  527loPI   GL1 8421   9.607   7.221   9.326  0.0551  0.2158 -0.0576
  527loPI   GL2 8422   9.469   6.955   9.224 -0.0428 -0.0577  0.0734
  527loPI   C1A 8423   9.489   7.461   9.000  0.0192  0.1186 -0.1201
  527loPI   C2A 8424   9.576   7.463   8.571 -0.1889 -0.0059  0.1313
  527loPI   C3A 8425   9.693   7.441   8.156  0.0485  0.1086  0.3319
  527loPI   C4A 8426   9.767   7.544   7.635 -0.1105 -0.2205  0.3410
  527loPI   C5A 8427   9.822   7.287   7.239  0.2385  0.2840  0.0502
  527loPI   C6A 8428   9.967   7.001   6.984  0.1406  0.1214 -0.2502
  527loPI   C1B 8429   9.499   6.969   8.825  0.0550 -0.0360 -0.0889
  527loPI   C2B 8430   9.712   6.985   8.446 -0.1333 -0.0004 -0.1117
  527loPI   C3B 8431  10.072   7.183   8.060 -0.0246  0.1064 -0.1946
  527loPI   C4B 8432  10.429   7.137   7.899  0.3072  0.3161 -0.0141
  528loPI    C1 8433  18.327   1.684   9.828 -0.1924  0.2974 -0.0639
  528loPI    C2 8434  17.998   1.839   9.994 -0.0986  0.1342  0.2824
  528loPI    C3 8435  18.328   1.787  10.214  0.0685  0.0270  0.0112
  528loPI   PO4 8436  18.419   1.888   9.577  0.0647  0.3176  0.1812
  528loPI   GL1 8437  18.395   2.238   9.269  0.4740 -0.3690  0.0563
  528loPI   GL2 8438  18.331   2.038   9.020  0.1160  0.1190  0.0182
  528loPI   C1A 8439  18.649   2.351   8.858  0.0910  0.1447  0.3250
  528loPI   C2A 8440  18.902   2.396   8.525 -0.0883 -0.2499  0.2865
  528loPI   C3A 8441  19.012   2.428   8.135 -0.0928 -0.0236  0.3005
  528loPI   C4A 8442  19.144   2.587   7.700 -0.4713 -0.0649  0.0813
  528loPI   C5A 8443  19.362   2.533   7.383  0.1053  0.1560 -0.0177
  528loPI   C6A 8444  19.135   2.430   7.003 -0.0178 -0.3022 -0.0653
  528loPI   C1B 8445  18.404   2.003   8.553 -0.2713  0.2817 -0.0454
  528loPI   C2B 8446  18.486   2.200   8.150 -0.1490  0.0796 -0.3030
  528loPI   C3B 8447  18.558   2.427   7.845 -0.0577  0.0290  0.1233
  528loPI   C4B 8448  18.336   2.587   7.476  0.0969  0.0994  0.0858
  529loPI    C1 8449  18.144   3.694   9.755  0.0337  0.0728 -0.0184
  529loPI    C2 8450  18.098   4.086   9.690 -0.2173  0.0404 -0.0458
  529loPI    C3 8451  18.464   3.935   9.748 -0.1172  0.2750 -0.0526
  529loPI   PO4 8452  17.974   3.579   9.568  0.2942 -0.0004  0.4275
  529loPI   GL1 8453  17.751   3.480   9.316  0.3892  0.0429  0.0839
  529loPI   GL2 8454  17.709   3.748   9.107  0.0213  0.0127  0.0442
  529loPI   C1A 8455  17.595   3.076   8.984  0.2538 -0.0426  0.2427
  529loPI   C2A 8456  17.306   2.987   8.638 -0.2833  0.1359  0.5359
  529loPI   C3A 8457  17.289   2.917   8.284  0.3067  0.2134 -0.0880
  529loPI   C4A 8458  17.154   2.773   7.873 -0.1805  0.1360 -0.1629
  529loPI   C5A 8459  16.985   2.666   7.442  0.0873  0.0074 -0.2154
  529loPI   C6A 8460  16.794   2.360   7.304 -0.0665 -0.1872 -0.1716
  529loPI   C1B 8461  17.769   3.973   8.659  0.0093 -0.0308  0.0149
  529loPI   C2B 8462  17.829   4.078   8.140 -0.2455 -0.0571 -0.1477
  529loPI   C3B 8463  17.889   3.928   7.856  0.2635 -0.1531 -0.1451
  529loPI   C4B 8464  17.726   3.921   7.454  0.0666 -0.2368  0.2631
  530loPI    C1 8465   1.818  11.610   9.995  0.0844  0.3070 -0.1651
  530loPI    C2 8466   1.633  11.902  10.196  0.0542  0.1446  0.0469
  530loPI    C3 8467   1.644  11.532  10.347 -0.1670 -0.0343 -0.3593
  530loPI   PO4 8468   1.926  11.717   9.723  0.2368 -0.2722 -0.1961
  530loPI   GL1 8469   2.066  11.610   9.366  0.0041  0.2452  0.0671
  530loPI   GL2 8470   2.363  11.595   9.146 -0.3716 -0.0762 -0.2475
  530loPI   C1A 8471   1.931  11.877   8.970 -0.1853 -0.2932  0.3102
  530loPI   C2A 8472   1.722  11.597   8.573  0.0141 -0.1027 -0.1159
  530loPI   C3A 8473   1.461  11.406   8.127  0.1601 -0.0494  0.2034
  530loPI   C4A 8474   1.209  11.146   7.893  0.2674  0.0955 -0.1114
  530loPI   C5A 8475   1.172  11.022   7.506  0.1659 -0.2520  0.1485
  530loPI   C6A 8476   1.260  10.876   7.071 -0.1668 -0.0797 -0.0500
  530loPI   C1B 8477   2.266  11.667   8.618  0.0272 -0.0325 -0.0087
  530loPI   C2B 8478   2.101  11.695   8.182 -0.0577 -0.1582  0.0019
  530loPI   C3B 8479   2.125  11.725   7.704 -0.1720  0.2707 -0.1468
  530loPI   C4B 8480   2.413  11.659   7.369  0.0327 -0.0338  0.3079
  531loPI    C1 8481  17.770   4.409   9.904  0.0683  0.0772 -0.0304
  531loPI    C2 8482  17.942   4.761   9.984  0.2143  0.0071 -0.0327
  531loPI    C3 8483  17.976   4.459  10.244  0.1905 -0.0416 -0.0861
  531loPI   PO4 8484  17.761   4.449   9.609  0.2500  0.1919 -0.0526
  531loPI   GL1 8485  17.481   4.700   9.215  0.1179  0.2955 -0.0228
  531loPI   GL2 8486  17.407   4.310   9.183 -0.4853 -0.0902  0.0731
  531loPI   C1A 8487  17.858   4.498   8.774  0.0979  0.2843 -0.3607
  531loPI   C2A 8488  18.195   4.415   8.587  0.0060  0.1373 -0.1292
  531loPI   C3A 8489  18.622   4.356   8.351 -0.0009 -0.1529 -0.0571
  531loPI   C4A 8490  18.666   4.338   7.977  0.2684 -0.2710 -0.1548
  531loPI   C5A 8491  18.755   4.387   7.537 -0.0623 -0.3229  0.2318
  531loPI   C6A 8492  18.495   4.359   7.152  0.1273  0.2374 -0.0480
  531loPI   C1B 8493  17.282   4.018   8.801 -0.0907 -0.0928  0.0231
  531loPI   C2B 8494  17.365   3.952   8.354  0.3177 -0.0934 -0.0657
  531loPI   C3B 8495  17.346   3.805   7.939 -0.1233 -0.2064 -0.1550
  531loPI   C4B 8496  17.299   3.649   7.490  0.0594 -0.0471  0.2413
  532loPI    C1 8497  10.971   8.310  10.147 -0.1045  0.0917 -0.1819
  532loPI    C2 8498  10.959   8.682  10.293 -0.0947  0.0029  0.0503
  532loPI    C3 8499  10.766   8.387  10.482 -0.2417 -0.0806 -0.2243
  532loPI   PO4 8500  10.986   8.365   9.886 -0.0904  0.1750  0.2971
  532loPI   GL1 8501  10.850   8.451   9.467 -0.0054 -0.1191  0.2928
  532loPI   GL2 8502  10.563   8.470   9.445  0.2213 -0.1225 -0.1987
  532loPI   C1A 8503  10.897   8.523   9.039 -0.2006 -0.0647 -0.2848
  532loPI   C2A 8504  10.679   8.483   8.679  0.0336 -0.4694 -0.1147
  532loPI   C3A 8505  10.646   8.412   8.276 -0.0700 -0.0448 -0.1494
  532loPI   C4A 8506  10.479   8.271   7.960 -0.0156  0.0772  0.0427
  532loPI   C5A 8507  10.523   8.178   7.453 -0.0373 -0.0424 -0.0446
  532loPI   C6A 8508  10.267   7.933   7.070 -0.3909  0.3044 -0.0619
  532loPI   C1B 8509  10.403   8.727   9.080  0.2033 -0.0916  0.0674
  532loPI   C2B 8510  10.282   8.805   8.617 -0.1714 -0.0617  0.3629
  532loPI   C3B 8511  10.427   8.881   8.139  0.1014 -0.0389 -0.2943
  532loPI   C4B 8512  10.599   8.680   7.754  0.0488 -0.3595 -0.0297
  533loPI    C1 8513   4.381  15.984  10.239  0.2317  0.0458 -0.2487
  533loPI    C2 8514   4.645  16.241  10.394  0.2740  0.0430 -0.3152
  533loPI    C3 8515   4.574  15.892  10.577  0.0850  0.1772 -0.1280
  533loPI   PO4 8516   4.436  15.930   9.953  0.2642 -0.1016  0.1185
  533loPI   GL1 8517   4.473  15.657   9.564 -0.0628 -0.0395  0.2797
  533loPI   GL2 8518   4.386  15.430   9.318  0.1390  0.1687  0.0862
  533loPI   C1A 8519   4.682  15.893   9.253 -0.0605 -0.2711  0.0800
  533loPI   C2A 8520   4.749  15.891   8.809  0.0178  0.4016 -0.0475
  533loPI   C3A 8521   4.717  15.865   8.380 -0.0116  0.4282  0.2701
  533loPI   C4A 8522   4.365  15.652   8.177 -0.1604 -0.0201  0.2384
  533loPI   C5A 8523   4.346  15.373   7.822  0.0481  0.1187  0.0524
  533loPI   C6A 8524   4.435  15.507   7.364  0.2205  0.3783  0.0361
  533loPI   C1B 8525   4.257  15.247   9.042 -0.0715 -0.0925  0.3270
  533loPI   C2B 8526   3.887  14.990   8.848 -0.1096 -0.0571  0.3118
  533loPI   C3B 8527   3.572  14.770   8.702 -0.0543  0.1672  0.2681
  533loPI   C4B 8528   3.318  14.834   8.415 -0.1407  0.1758  0.1661
  534loPI    C1 8529  18.908  13.403   9.842 -0.2493  0.0842  0.3171
  534loPI    C2 8530  18.832  13.044  10.002  0.0522 -0.0964  0.0671
  534loPI    C3 8531  19.147  13.256  10.127  0.1952 -0.1666 -0.1670
  534loPI   PO4 8532  18.939  13.297   9.592  0.2586 -0.2394 -0.0384
  534loPI   GL1 8533  19.090  13.135   9.254  0.2482  0.0734 -0.1903
  534loPI   GL2 8534  18.916  13.028   8.922 -0.2594  0.0168 -0.3252
  534loPI   C1A 8535  19.409  13.280   9.069  0.5162 -0.0623 -0.3356
  534loPI   C2A 8536  19.558  13.429   8.738 -0.0773  0.0889 -0.0715
  534loPI   C3A 8537  19.631  13.618   8.349 -0.0110 -0.0044 -0.1500
  534loPI   C4A 8538  19.611  13.978   8.042 -0.0722  0.0317 -0.3450
  534loPI   C5A 8539  19.698  14.252   7.738 -0.2708 -0.0169 -0.0117
  534loPI   C6A 8540  20.100  14.158   7.443 -0.0036 -0.1866 -0.5808
  534loPI   C1B 8541  18.619  13.069   8.471  0.1560  0.0808  0.0043
  534loPI   C2B 8542  18.791  13.049   8.011 -0.0422  0.0844 -0.1256
  534loPI   C3B 8543  19.036  13.145   7.586  0.0679 -0.1049 -0.4395
  534loPI   C4B 8544  19.371  13.147   7.268 -0.0812  0.0564  0.3700
  535loPI    C1 8545   6.343  13.113  10.301 -0.0728 -0.0425 -0.2676
  535loPI    C2 8546   6.293  13.507  10.354 -0.0260 -0.0690 -0.0139
  535loPI    C3 8547   6.071  13.247  10.562  0.0299 -0.1779 -0.0893
  535loPI   PO4 8548   6.453  13.190  10.043  0.0271 -0.3750 -0.0018
  535loPI   GL1 8549   6.188  13.102   9.614 -0.1795 -0.0307 -0.1896
  535loPI   GL2 8550   5.826  13.164   9.549 -0.0333 -0.1994  0.1081
  535loPI   C1A 8551   6.498  13.092   9.315 -0.0747 -0.2729 -0.3227
  535loPI   C2A 8552   6.584  13.008   8.918 -0.2217  0.2617 -0.1566
  535loPI   C3A 8553   6.679  12.987   8.471  0.2174 -0.0812  0.1748
  535loPI   C4A 8554   6.751  12.884   8.039  0.1436  0.1388  0.1803
  535loPI   C5A 8555   6.541  12.616   7.665  0.3175  0.0063 -0.1475
  535loPI   C6A 8556   6.379  12.725   7.218  0.2111 -0.1526 -0.2505
  535loPI   C1B 8557   5.978  13.031   9.058  0.1449  0.2063 -0.3149
  535loPI   C2B 8558   6.135  12.786   8.628  0.1839  0.4326  0.0434
  535loPI   C3B 8559   6.102  12.770   8.138 -0.3328 -0.1012 -0.2376
  535loPI   C4B 8560   6.069  12.865   7.669  0.2010  0.4619  0.4411
  536loPI    C1 8561  -0.112   1.399   9.482 -0.1210  0.2550  0.0034
  536loPI    C2 8562   0.249   1.547   9.573  0.0222 -0.1681  0.1494
  536loPI    C3 8563  -0.026   1.500   9.860 -0.1294  0.0924  0.0498
  536loPI   PO4 8564  -0.160   1.461   9.208  0.0117 -0.0664 -0.0525
  536loPI   GL1 8565  -0.232   1.413   8.823 -0.1852 -0.2875  0.0231
  536loPI   GL2 8566  -0.306   1.676   8.810  0.2701 -0.1606 -0.0462
  536loPI   C1A 8567   0.049   1.408   8.536  0.1419  0.0092  0.0551
  536loPI   C2A 8568   0.205   1.572   8.173 -0.0022  0.1434  0.1679
  536loPI   C3A 8569   0.239   1.539   7.713  0.0611 -0.0898  0.0763
  536loPI   C4A 8570   0.044   1.771   7.429  0.0402  0.0610 -0.2969
  536loPI   C5A 8571   0.021   1.817   6.975  0.0059 -0.2784 -0.0560
  536loPI   C6A 8572  -0.168   1.651   6.641 -0.0311 -0.0425  0.0622
  536loPI   C1B 8573  -0.358   1.692   8.397  0.0705 -0.1088 -0.2291
  536loPI   C2B 8574  -0.249   1.715   7.970  0.3537  0.0219  0.1009
  536loPI   C3B 8575  -0.364   1.558   7.595 -0.0712 -0.1356 -0.0928
  536loPI   C4B 8576  -0.402   1.557   7.125 -0.1372  0.1426 -0.0083
  537loPI    C1 8577   3.586  14.215  10.017 -0.0452 -0.2586 -0.0822
  537loPI    C2 8578   3.272  13.992  10.124 -0.1150 -0.0917  0.0644
  537loPI    C3 8579   3.578  14.040  10.377 -0.1559  0.0787  0.0828
  537loPI   PO4 8580   3.667  14.175   9.820 -0.0560  0.0886 -0.2062
  537loPI   GL1 8581   3.706  14.229   9.376  0.1080  0.3849 -0.0666
  537loPI   GL2 8582   3.345  14.210   9.216  0.3434 -0.1529 -0.1034
  537loPI   C1A 8583   3.959  14.517   8.949  0.0856  0.0156 -0.0079
  537loPI   C2A 8584   4.015  14.473   8.540  0.0439  0.1249 -0.1804
  537loPI   C3A 8585   4.233  14.344   8.229 -0.0260  0.5194  0.3347
  537loPI   C4A 8586   4.298  14.207   7.772  0.0515  0.0941  0.0360
  537loPI   C5A 8587   4.243  14.340   7.314  0.1711 -0.1247  0.2652
  537loPI   C6A 8588   4.458  14.455   6.948  0.1208 -0.1349 -0.2029
  537loPI   C1B 8589   3.593  14.144   8.893  0.2442  0.2738 -0.0246
  537loPI   C2B 8590   3.436  14.263   8.522 -0.0375  0.1390  0.2711
  537loPI   C3B 8591   3.678  14.442   8.178  0.1268  0.1303 -0.1939
  537loPI   C4B 8592   3.986  14.589   7.824 -0.1751 -0.1024 -0.2095
  538loPI    C1 8593   3.906   3.889   9.542  0.0606  0.0501  0.0412
  538loPI    C2 8594   3.529   4.024   9.536  0.0821  0.1049 -0.1193
  538loPI    C3 8595   3.691   3.899   9.880 -0.0499  0.1719 -0.0318
  538loPI   PO4 8596   4.020   3.985   9.444 -0.2321 -0.4688  0.3377
  538loPI   GL1 8597   3.955   4.159   9.053 -0.2551  0.1325  0.1965
  538loPI   GL2 8598   3.859   3.940   8.883 -0.0428 -0.2528 -0.1935
  538loPI   C1A 8599   3.964   4.430   8.767  0.1306  0.1003 -0.1243
  538loPI   C2A 8600   3.811   4.562   8.387  0.1470 -0.0171 -0.2669
  538loPI   C3A 8601   3.649   4.724   7.892 -0.3085 -0.0712 -0.0525
  538loPI   C4A 8602   3.632   4.962   7.486 -0.4226 -0.1616 -0.1332
  538loPI   C5A 8603   3.487   5.317   7.225  0.1411  0.0640 -0.0632
  538loPI   C6A 8604   3.247   5.512   7.023 -0.0774 -0.0190 -0.0305
  538loPI   C1B 8605   4.094   3.937   8.523  0.1041  0.4743  0.1464
  538loPI   C2B 8606   3.984   4.205   8.114 -0.0323  0.0320  0.2983
  538loPI   C3B 8607   3.486   4.279   8.006 -0.2508 -0.1327  0.1047
  538loPI   C4B 8608   3.238   3.986   7.847 -0.2947 -0.0272 -0.0388
  539loPI    C1 8609  10.626   1.529   9.739 -0.0914 -0.0864  0.0124
  539loPI    C2 8610  10.536   1.148   9.821 -0.0905 -0.0756  0.0644
  539loPI    C3 8611  10.428   1.438  10.074  0.2186 -0.0769  0.2022
  539loPI   PO4 8612  10.542   1.496   9.436 -0.2011  0.0499 -0.0109
  539loPI   GL1 8613  10.481   1.640   9.072  0.0238 -0.0733 -0.0517
  539loPI   GL2 8614  10.232   1.616   8.879 -0.0411 -0.1227  0.1713
  539loPI   C1A 8615  10.739   1.542   8.712 -0.0737  0.4805 -0.0121
  539loPI   C2A 8616  10.900   1.633   8.352  0.2097 -0.3213 -0.0997
  539loPI   C3A 8617  10.940   1.620   7.956 -0.1535 -0.0067  0.0146
  539loPI   C4A 8618  11.139   1.404   7.525  0.0133 -0.1628  0.2162
  539loPI   C5A 8619  11.403   1.419   7.245  0.3965 -0.3655 -0.3733
  539loPI   C6A 8620  11.806   1.497   6.968 -0.1099 -0.2656  0.0164
  539loPI   C1B 8621  10.351   1.574   8.385  0.0072 -0.0110  0.0099
  539loPI   C2B 8622  10.463   1.714   8.076 -0.1891 -0.1392 -0.0076
  539loPI   C3B 8623  10.328   1.667   7.633  0.3351  0.2745  0.3597
  539loPI   C4B 8624  10.450   1.810   7.192 -0.0407  0.0156  0.0625
  540loPI    C1 8625   2.010  17.235   9.539 -0.1768 -0.2878  0.3201
  540loPI    C2 8626   1.749  17.394   9.797  0.1173  0.1288  0.3707
  540loPI    C3 8627   2.138  17.478   9.830  0.1931 -0.0359 -0.0427
  540loPI   PO4 8628   1.919  17.278   9.290  0.0390  0.2479  0.0561
  540loPI   GL1 8629   1.989  17.648   8.908  0.1079 -0.0357 -0.5120
  540loPI   GL2 8630   1.829  17.926   8.749  0.0740 -0.1515  0.1775
  540loPI   C1A 8631   2.013  17.421   8.549 -0.1435 -0.2970 -0.1344
  540loPI   C2A 8632   2.203  17.335   8.118  0.0108  0.1766  0.0009
  540loPI   C3A 8633   2.433  17.315   7.751 -0.0693  0.3549  0.0311
  540loPI   C4A 8634   2.736  17.202   7.415 -0.0692 -0.2296  0.1700
  540loPI   C5A 8635   2.915  17.223   7.071  0.2212 -0.2138  0.0872
  540loPI   C6A 8636   3.271  17.178   6.913 -0.1053  0.0107  0.1551
  540loPI   C1B 8637   1.845  17.758   8.291  0.0888  0.1859 -0.0961
  540loPI   C2B 8638   1.796  17.582   7.926 -0.1588  0.0826  0.2119
  540loPI   C3B 8639   1.981  17.705   7.590  0.0139 -0.0732 -0.1423
  540loPI   C4B 8640   2.071  17.814   7.238 -0.1199  0.2395 -0.3578
  541loPI    C1 8641  16.488   2.053   9.643 -0.2529  0.2132  0.1162
  541loPI    C2 8642  16.767   1.909   9.891 -0.1506  0.0524 -0.0891
  541loPI    C3 8643  16.778   2.293   9.780 -0.1187  0.0917  0.0477
  541loPI   PO4 8644  16.439   1.883   9.478  0.0791  0.4953 -0.0677
  541loPI   GL1 8645  16.542   1.980   9.128 -0.4832  0.2175  0.0840
  541loPI   GL2 8646  16.539   1.893   8.773 -0.0164  0.0622 -0.0466
  541loPI   C1A 8647  16.427   2.363   8.843  0.2095  0.0290 -0.1210
  541loPI   C2A 8648  16.226   2.405   8.476  0.2424  0.0638 -0.3189
  541loPI   C3A 8649  16.072   2.471   8.002 -0.0532 -0.1253 -0.1156
  541loPI   C4A 8650  16.149   2.856   7.709 -0.1300  0.1781  0.0557
  541loPI   C5A 8651  16.198   3.209   7.491 -0.1558  0.2456  0.0306
  541loPI   C6A 8652  16.169   3.473   7.727  0.0616 -0.2280 -0.0659
  541loPI   C1B 8653  16.883   1.760   8.411 -0.0203  0.1847  0.2353
  541loPI   C2B 8654  16.822   1.453   8.111  0.0247  0.0609 -0.1331
  541loPI   C3B 8655  16.744   1.148   7.646  0.2624  0.1837  0.0053
  541loPI   C4B 8656  16.635   1.386   7.285 -0.1091  0.1120  0.0508
  542loPI    C1 8657  17.910   7.858   9.515  0.1720  0.0376  0.0337
  542loPI    C2 8658  17.948   8.234   9.384 -0.0662  0.0927  0.1181
  542loPI    C3 8659  18.021   8.147   9.768 -0.1088  0.0715  0.1215
  542loPI   PO4 8660  17.721   7.799   9.433 -0.1716  0.3709 -0.1072
  542loPI   GL1 8661  17.631   7.841   9.038  0.0898  0.1037  0.0162
  542loPI   GL2 8662  17.937   7.817   8.974  0.0790 -0.0195 -0.2199
  542loPI   C1A 8663  17.681   7.562   8.605 -0.1485  0.5122 -0.0293
  542loPI   C2A 8664  17.804   7.501   8.149  0.2608 -0.1991  0.1730
  542loPI   C3A 8665  17.896   7.419   7.746 -0.3484 -0.2138 -0.0193
  542loPI   C4A 8666  17.801   7.263   7.315  0.1721  0.0171 -0.0683
  542loPI   C5A 8667  17.510   7.471   6.983  0.0304  0.3587  0.0907
  542loPI   C6A 8668  17.166   7.579   6.805  0.0888 -0.0229 -0.0409
  542loPI   C1B 8669  18.119   7.688   8.680  0.0234 -0.5684 -0.2580
  542loPI   C2B 8670  18.424   7.721   8.252  0.1584 -0.0918  0.0722
  542loPI   C3B 8671  18.563   7.529   7.945  0.2581 -0.1522 -0.2194
  542loPI   C4B 8672  18.898   7.180   7.907  0.0460  0.2076  0.0667
  543loPI    C1 8673  15.620   3.973   9.974  0.0627 -0.0160  0.0479
  543loPI    C2 8674  15.815   4.189  10.249 -0.1016  0.1185  0.0606
  543loPI    C3 8675  15.915   3.806  10.187  0.1838  0.1929  0.0466
  543loPI   PO4 8676  15.632   4.098   9.699 -0.0067 -0.1301 -0.0043
  543loPI   GL1 8677  15.723   4.081   9.218 -0.2000 -0.0804 -0.2830
  543loPI   GL2 8678  16.015   3.889   9.401  0.3145 -0.2908  0.1567
  543loPI   C1A 8679  15.672   4.177   8.844 -0.1986  0.2932  0.0158
  543loPI   C2A 8680  15.560   4.376   8.472 -0.1044 -0.2388  0.0461
  543loPI   C3A 8681  15.435   4.254   8.032  0.1436 -0.0236 -0.2051
  543loPI   C4A 8682  15.598   4.299   7.583 -0.0148  0.1178 -0.2024
  543loPI   C5A 8683  15.392   4.133   7.215 -0.4655 -0.1431  0.2327
  543loPI   C6A 8684  15.162   4.229   6.851  0.1393  0.0744 -0.3327
  543loPI   C1B 8685  16.178   4.172   9.060  0.0741  0.5093 -0.0441
  543loPI   C2B 8686  16.125   4.105   8.605  0.2036 -0.1247  0.1615
  543loPI   C3B 8687  16.444   3.929   8.332  0.1507 -0.2291 -0.1007
  543loPI   C4B 8688  16.482   3.842   7.892  0.1700 -0.0298 -0.3988
  544loPI    C1 8689  16.521   6.806   9.682 -0.1112  0.1352 -0.0251
  544loPI    C2 8690  16.699   6.461   9.780 -0.1694  0.1109 -0.0039
  544loPI    C3 8691  16.785   6.796   9.982 -0.1530  0.0980  0.0105
  544loPI   PO4 8692  16.509   6.864   9.454  0.0393  0.0578  0.2998
  544loPI   GL1 8693  16.397   6.963   9.056 -0.1977  0.1155 -0.0747
  544loPI   GL2 8694  16.631   6.725   8.943  0.3658 -0.0949 -0.0203
  544loPI   C1A 8695  16.100   6.956   8.782 -0.4661  0.2626  0.1980
  544loPI   C2A 8696  16.121   6.889   8.377 -0.0786 -0.2451 -0.1664
  544loPI   C3A 8697  15.968   6.953   8.002  0.1277  0.0712 -0.3353
  544loPI   C4A 8698  15.892   6.686   7.710 -0.2220 -0.2960  0.0032
  544loPI   C5A 8699  16.085   6.430   7.399 -0.2934 -0.0111 -0.1475
  544loPI   C6A 8700  16.638   6.405   7.388  0.2312  0.1007  0.5720
  544loPI   C1B 8701  16.615   6.817   8.579 -0.0246  0.1450  0.2154
  544loPI   C2B 8702  16.865   6.953   8.349 -0.0380  0.0362 -0.2410
  544loPI   C3B 8703  16.879   7.291   8.037 -0.0121 -0.0194  0.0212
  544loPI   C4B 8704  16.861   7.672   8.238  0.0609  0.0277 -0.1808
  545loPI    C1 8705  17.382  19.210   9.482  0.0669  0.3232 -0.1732
  545loPI    C2 8706  17.641  19.157   9.782 -0.0246  0.4724 -0.0668
  545loPI    C3 8707  17.249  19.177   9.858 -0.0765  0.1611 -0.2364
  545loPI   PO4 8708  17.522  19.323   9.292 -0.0785  0.1668 -0.4291
  545loPI   GL1 8709  17.703  19.117   8.886  0.1027  0.2936 -0.0970
  545loPI   GL2 8710  17.393  19.499   8.817  0.2201 -0.3674  0.0523
  545loPI   C1A 8711  17.727  19.260   8.480 -0.0346  0.0506  0.1213
  545loPI   C2A 8712  17.548  19.437   8.141  0.0418  0.0943  0.1204
  545loPI   C3A 8713  17.255  19.127   8.011 -0.0190 -0.1542  0.1054
  545loPI   C4A 8714  17.050  19.018   7.536 -0.5733 -0.0515 -0.1657
  545loPI   C5A 8715  16.758  19.054   7.169 -0.1086 -0.2987 -0.0071
  545loPI   C6A 8716  16.700  18.925   6.753  0.2561  0.3387  0.1029
  545loPI   C1B 8717  17.582  19.741   8.545 -0.0487  0.1197  0.0106
  545loPI   C2B 8718  17.587  20.008   8.093 -0.0313  0.2261 -0.1396
  545loPI   C3B 8719  17.597  20.339   7.816 -0.1842  0.1256 -0.0957
  545loPI   C4B 8720  17.310  20.519   7.557 -0.1606 -0.1116  0.0232
  546loPI    C1 8721   3.907   5.288  10.219  0.1811 -0.2296 -0.1544
  546loPI    C2 8722   3.792   4.976  10.442  0.1657  0.1272  0.3557
  546loPI    C3 8723   4.181   5.050  10.387  0.1696  0.0403  0.2625
  546loPI   PO4 8724   3.804   5.236   9.988 -0.3421  0.2526  0.0256
  546loPI   GL1 8725   3.756   5.487   9.563 -0.0594 -0.2134  0.0369
  546loPI   GL2 8726   3.701   5.771   9.680 -0.5050  0.0947 -0.4371
  546loPI   C1A 8727   3.943   5.450   9.199 -0.0057 -0.0098 -0.1161
  546loPI   C2A 8728   3.865   5.588   8.740 -0.0429  0.1341  0.2941
  546loPI   C3A 8729   3.701   5.713   8.359  0.1387 -0.1352 -0.2599
  546loPI   C4A 8730   3.865   5.923   8.075  0.1819  0.0995  0.2877
  546loPI   C5A 8731   3.613   6.145   7.682  0.1666  0.3034 -0.2331
  546loPI   C6A 8732   3.474   6.215   7.228  0.0969 -0.0569  0.2389
  546loPI   C1B 8733   3.625   5.890   9.229 -0.0996 -0.0372  0.1898
  546loPI   C2B 8734   3.531   5.910   8.880  0.3590 -0.0827 -0.0429
  546loPI   C3B 8735   3.233   5.932   8.527 -0.1633  0.3711 -0.0815
  546loPI   C4B 8736   3.321   5.792   8.096 -0.0254 -0.4062 -0.4528
  547loPI    C1 8737  19.116  16.901   9.447 -0.0197  0.1880  0.0995
  547loPI    C2 8738  19.494  17.033   9.444  0.0628 -0.0451 -0.0597
  547loPI    C3 8739  19.374  16.777   9.727  0.0153  0.0513  0.0080
  547loPI   PO4 8740  19.062  17.016   9.152 -0.4406  0.1283  0.1103
  547loPI   GL1 8741  19.008  16.981   8.829  0.0190  0.3019  0.1116
  547loPI   GL2 8742  18.696  16.945   8.844  0.0053 -0.1069 -0.0484
  547loPI   C1A 8743  18.862  17.264   8.507 -0.1625  0.0213  0.3610
  547loPI   C2A 8744  18.757  17.317   8.216  0.2418  0.2571 -0.1512
  547loPI   C3A 8745  18.378  17.336   8.053  0.1566 -0.1070  0.4938
  547loPI   C4A 8746  18.193  17.066   7.851 -0.0657 -0.1304  0.1547
  547loPI   C5A 8747  18.100  16.674   7.609 -0.1372 -0.0348  0.0391
  547loPI   C6A 8748  18.386  16.677   7.236  0.0731 -0.0791 -0.1923
  547loPI   C1B 8749  18.834  16.760   8.339  0.3621  0.0004 -0.2397
  547loPI   C2B 8750  19.003  16.469   8.030  0.0954 -0.3964 -0.0321
  547loPI   C3B 8751  19.036  16.233   7.741 -0.0951 -0.0921 -0.1387
  547loPI   C4B 8752  19.394  16.095   7.572 -0.0105  0.0277  0.1536
  548loPI    C1 8753   7.971  15.232  10.097  0.0919 -0.0428 -0.1032
  548loPI    C2 8754   7.615  15.414  10.101  0.1257  0.0229 -0.0495
  548loPI    C3 8755   7.635  15.015  10.098  0.0518  0.0184  0.0005
  548loPI   PO4 8756   8.089  15.282   9.877 -0.0721 -0.2233  0.0863
  548loPI   GL1 8757   8.199  15.150   9.411  0.1768 -0.0173 -0.0894
  548loPI   GL2 8758   8.148  15.587   9.328 -0.3365 -0.1105 -0.1829
  548loPI   C1A 8759   8.015  15.252   8.988 -0.0697 -0.0844  0.0325
  548loPI   C2A 8760   7.855  15.143   8.556  0.1248  0.1561 -0.2594
  548loPI   C3A 8761   7.844  15.088   8.023 -0.0295  0.1233  0.0529
  548loPI   C4A 8762   7.792  14.992   7.600 -0.1240 -0.0587 -0.2872
  548loPI   C5A 8763   7.543  15.058   7.312  0.1032  0.0434 -0.2756
  548loPI   C6A 8764   7.240  14.674   7.217  0.3793 -0.1541  0.2088
  548loPI   C1B 8765   8.292  15.821   8.906 -0.3303  0.4688  0.0103
  548loPI   C2B 8766   8.527  15.713   8.465 -0.1065 -0.0443 -0.2789
  548loPI   C3B 8767   8.716  15.551   8.102 -0.0094 -0.1222 -0.0902
  548loPI   C4B 8768   8.783  15.620   7.692 -0.6857 -0.1283  0.2455
  549loPI    C1 8769   0.324  13.161   9.817 -0.2161 -0.1014 -0.1852
  549loPI    C2 8770   0.329  13.317  10.186 -0.1507 -0.3882 -0.0624
  549loPI    C3 8771   0.129  13.502   9.893 -0.0283 -0.0470  0.0654
  549loPI   PO4 8772   0.599  12.975   9.699 -0.0099  0.1535  0.1784
  549loPI   GL1 8773   0.572  12.897   9.263  0.0497 -0.0422 -0.2913
  549loPI   GL2 8774   0.358  12.672   9.163  0.1616  0.0628 -0.2076
  549loPI   C1A 8775   0.340  13.119   8.888 -0.0335  0.0435 -0.0338
  549loPI   C2A 8776   0.411  12.975   8.455 -0.2214 -0.4006  0.1002
  549loPI   C3A 8777   0.849  13.081   8.157 -0.4515  0.1422 -0.2510
  549loPI   C4A 8778   0.944  13.225   7.834 -0.2661 -0.1305  0.4792
  549loPI   C5A 8779   0.874  13.138   7.450 -0.3729  0.0487 -0.1341
  549loPI   C6A 8780   0.811  12.884   7.152  0.2211  0.0968 -0.1729
  549loPI   C1B 8781   0.588  12.534   8.824 -0.2211 -0.2460  0.1377
  549loPI   C2B 8782   0.469  12.473   8.474  0.0992  0.0884 -0.1077
  549loPI   C3B 8783   0.243  12.646   8.047 -0.0631  0.0631 -0.1408
  549loPI   C4B 8784   0.465  12.725   7.608 -0.0647  0.5171  0.0940
  550loPI    C1 8785   6.684   2.300   9.481 -0.0437  0.2454  0.0007
  550loPI    C2 8786   6.502   2.210   9.826 -0.1257  0.1588 -0.0648
  550loPI    C3 8787   6.871   2.363   9.829  0.0404 -0.2311  0.0491
  550loPI   PO4 8788   6.619   2.041   9.291 -0.4274 -0.1063 -0.0928
  550loPI   GL1 8789   6.551   1.778   8.860  0.0528 -0.1281 -0.2535
  550loPI   GL2 8790   6.834   1.550   8.747 -0.0088 -0.1298  0.0465
  550loPI   C1A 8791   6.446   1.658   8.466  0.0909  0.0937  0.1859
  550loPI   C2A 8792   6.392   1.459   8.092 -0.2689  0.0269 -0.3042
  550loPI   C3A 8793   6.111   1.300   7.779 -0.0108  0.2751 -0.2380
  550loPI   C4A 8794   6.006   1.059   7.447 -0.2108  0.0785 -0.3060
  550loPI   C5A 8795   5.899   0.843   7.105  0.2412  0.2638  0.0333
  550loPI   C6A 8796   5.707   0.591   6.779  0.0998 -0.1656  0.3656
  550loPI   C1B 8797   6.863   1.585   8.269 -0.2064 -0.3419  0.2710
  550loPI   C2B 8798   6.770   1.653   7.764 -0.0026 -0.1125  0.1786
  550loPI   C3B 8799   6.588   1.766   7.418 -0.1994 -0.4672 -0.1104
  550loPI   C4B 8800   6.155   1.602   7.270  0.1365  0.0296 -0.0259
  551loPI    C1 8801   9.589   0.424   9.663  0.0727  0.0381  0.1129
  551loPI    C2 8802   9.350   0.125   9.779  0.2504 -0.1566 -0.0138
  551loPI    C3 8803   9.438   0.421  10.033 -0.4512  0.1390 -0.0921
  551loPI   PO4 8804   9.495   0.441   9.414 -0.3616  0.0786 -0.4457
  551loPI   GL1 8805   9.693   0.543   9.008 -0.1601  0.0761  0.0204
  551loPI   GL2 8806   9.881   0.253   9.183 -0.1605 -0.4031  0.4216
  551loPI   C1A 8807   9.806   0.460   8.574  0.1508  0.4882 -0.1159
  551loPI   C2A 8808   9.820   0.495   8.197  0.2741 -0.0694  0.1281
  551loPI   C3A 8809   9.862   0.296   7.743 -0.2582  0.2947 -0.0566
  551loPI   C4A 8810   9.728  -0.048   7.477  0.0918  0.0195 -0.1699
  551loPI   C5A 8811   9.397  -0.223   7.193 -0.2833 -0.0427  0.2717
  551loPI   C6A 8812   9.052  -0.461   7.018  0.0067  0.1817 -0.3188
  551loPI   C1B 8813  10.174   0.119   8.723  0.1076 -0.0486  0.0408
  551loPI   C2B 8814  10.513   0.085   8.488 -0.0786 -0.0704 -0.1032
  551loPI   C3B 8815  10.434   0.217   8.070  0.0197  0.2783  0.1031
  551loPI   C4B 8816  10.337   0.188   7.617  0.0942  0.2898 -0.1118
  552loPI    C1 8817  12.177   0.998   9.521  0.0538 -0.0658 -0.0215
  552loPI    C2 8818  12.342   0.634   9.537 -0.0543 -0.1093  0.1248
  552loPI    C3 8819  12.248   0.826   9.875  0.0756  0.0887  0.0503
  552loPI   PO4 8820  12.226   0.981   9.178 -0.0755 -0.1076  0.0359
  552loPI   GL1 8821  12.240   0.836   8.719  0.0631 -0.0683 -0.0329
  552loPI   GL2 8822  12.127   0.420   8.577 -0.0886 -0.0284  0.0575
  552loPI   C1A 8823  12.105   0.915   8.356  0.3073 -0.0052 -0.1508
  552loPI   C2A 8824  11.601   1.055   8.176  0.0382  0.1022  0.0358
  552loPI   C3A 8825  11.282   1.025   7.878  0.0460  0.1896  0.5240
  552loPI   C4A 8826  11.236   0.953   7.441  0.2222 -0.0482  0.0240
  552loPI   C5A 8827  11.306   0.965   7.063 -0.0986 -0.0885 -0.3273
  552loPI   C6A 8828  11.067   1.031   6.662 -0.0994  0.0227  0.1285
  552loPI   C1B 8829  12.247   0.415   8.172 -0.1246  0.2577 -0.1244
  552loPI   C2B 8830  12.513   0.566   7.731  0.0522  0.3612 -0.3378
  552loPI   C3B 8831  12.711   0.863   7.410  0.0333  0.0629 -0.0239
  552loPI   C4B 8832  12.685   1.179   7.195  0.3686  0.1001  0.2585
  553loPI    C1 8833  13.808  10.431   9.426 -0.0342 -0.3347  0.0435
  553loPI    C2 8834  13.453  10.550   9.287  0.1021  0.1791  0.1152
  553loPI    C3 8835  13.512  10.517   9.681  0.1001 -0.0247  0.0994
  553loPI   PO4 8836  13.912  10.700   9.376  0.2223 -0.0838  0.0855
  553loPI   GL1 8837  14.057  11.020   9.111  0.1303 -0.0631  0.1026
  553loPI   GL2 8838  14.263  10.958   9.137  0.2212  0.2459 -0.2950
  553loPI   C1A 8839  14.026  10.948   8.664 -0.2661 -0.2564 -0.0063
  553loPI   C2A 8840  13.849  10.916   8.258  0.0563 -0.0885 -0.2051
  553loPI   C3A 8841  13.521  11.053   7.856  0.0987 -0.0729 -0.0553
  553loPI   C4A 8842  13.398  11.125   7.467  0.3678 -0.0859  0.2371
  553loPI   C5A 8843  13.157  11.194   7.113  0.0860  0.0629 -0.1591
  553loPI   C6A 8844  12.950  10.838   6.908  0.2203  0.1667  0.0229
  553loPI   C1B 8845  14.484  11.163   8.761  0.1719  0.2335 -0.2416
  553loPI   C2B 8846  14.604  11.290   8.368  0.1343 -0.0832 -0.1662
  553loPI   C3B 8847  14.492  11.215   7.990 -0.3849 -0.4801 -0.0273
  553loPI   C4B 8848  14.365  11.083   7.640 -0.1329  0.1468 -0.0826
  554loPI    C1 8849  12.718   4.219   9.580  0.1132 -0.1327  0.1015
  554loPI    C2 8850  12.409   3.973   9.646  0.0606 -0.1439 -0.1753
  554loPI    C3 8851  12.703   4.001   9.916 -0.3334  0.1016  0.2418
  554loPI   PO4 8852  12.850   4.257   9.433 -0.0883 -0.0443  0.2675
  554loPI   GL1 8853  12.857   4.326   9.023  0.2997 -0.0403  0.0907
  554loPI   GL2 8854  13.036   4.181   8.788  0.3042 -0.2014  0.0456
  554loPI   C1A 8855  12.713   4.550   8.586  0.2436  0.3661  0.0734
  554loPI   C2A 8856  12.658   4.546   8.192 -0.1881 -0.0274 -0.0862
  554loPI   C3A 8857  12.774   4.470   7.818 -0.0588  0.3578 -0.2379
  554loPI   C4A 8858  12.826   4.354   7.321 -0.0660 -0.2425 -0.1558
  554loPI   C5A 8859  12.534   4.459   6.987  0.0662 -0.2412  0.2805
  554loPI   C6A 8860  12.621   4.950   6.779 -0.1467 -0.2855  0.0206
  554loPI   C1B 8861  13.050   4.157   8.407  0.4797 -0.0235 -0.1809
  554loPI   C2B 8862  13.240   4.085   7.940  0.3153  0.0479 -0.0849
  554loPI   C3B 8863  13.142   3.934   7.488 -0.0948 -0.0979  0.2728
  554loPI   C4B 8864  13.210   3.770   7.050  0.3959  0.0656  0.0929
  555loPI    C1 8865   9.859   8.692   9.820  0.2677 -0.2464 -0.0041
  555loPI    C2 8866   9.842   8.751  10.215  0.1710 -0.1627 -0.0203
  555loPI    C3 8867   9.744   8.395  10.062 -0.0051 -0.1293  0.0133
  555loPI   PO4 8868  10.068   8.757   9.735  0.2079 -0.2170 -0.0533
  555loPI   GL1 8869  10.233   8.999   9.475  0.0687 -0.1480 -0.0838
  555loPI   GL2 8870  10.339   9.251   9.552  0.0419 -0.5120  0.0646
  555loPI   C1A 8871   9.833   9.106   9.260 -0.2828 -0.0695 -0.1410
  555loPI   C2A 8872   9.528   9.294   8.929 -0.0119  0.0847  0.1343
  555loPI   C3A 8873   9.529   9.577   8.540  0.1502  0.0717 -0.1717
  555loPI   C4A 8874   9.456   9.885   8.192 -0.0800 -0.1548 -0.0519
  555loPI   C5A 8875   9.491  10.329   8.221 -0.1657 -0.0341 -0.2951
  555loPI   C6A 8876   9.251  10.609   8.057  0.2811 -0.1386  0.1727
  555loPI   C1B 8877  10.166   9.456   9.173 -0.2172 -0.3656  0.1010
  555loPI   C2B 8878  10.022   9.332   8.778  0.3281 -0.0462 -0.0690
  555loPI   C3B 8879   9.990   9.209   8.365  0.1433 -0.0678  0.0506
  555loPI   C4B 8880   9.816   9.108   7.986  0.3959  0.1073 -0.2367
  556loPI    C1 8881  12.537   2.193   9.226  0.0530 -0.2114 -0.1525
  556loPI    C2 8882  12.276   2.263   9.521 -0.0434  0.0807 -0.3028
  556loPI    C3 8883  12.503   1.933   9.528 -0.0794  0.0598  0.0701
  556loPI   PO4 8884  12.561   2.401   9.104 -0.3689 -0.1330  0.0536
  556loPI   GL1 8885  12.382   2.423   8.758 -0.0463 -0.1559  0.1423
  556loPI   GL2 8886  12.249   2.659   8.660  0.0945 -0.3682  0.2392
  556loPI   C1A 8887  12.303   2.130   8.411  0.1779 -0.1671 -0.1935
  556loPI   C2A 8888  12.313   2.125   7.935  0.0216  0.0244  0.0441
  556loPI   C3A 8889  12.548   2.040   7.535  0.0166 -0.1109  0.1657
  556loPI   C4A 8890  12.622   2.130   7.157 -0.0535 -0.2734  0.3684
  556loPI   C5A 8891  12.521   2.079   6.849  0.5459  0.3785 -0.1813
  556loPI   C6A 8892  12.943   2.114   6.673 -0.0733  0.0224 -0.2745
  556loPI   C1B 8893  12.176   2.618   8.257 -0.3912 -0.1338  0.0663
  556loPI   C2B 8894  12.206   2.677   7.761  0.2266 -0.2082  0.0483
  556loPI   C3B 8895  12.423   2.545   7.372 -0.4303  0.0237  0.0423
  556loPI   C4B 8896  12.443   2.614   6.812  0.0077  0.0017  0.1172
  557loPI    C1 8897   1.128   4.321   9.905 -0.1759  0.2263 -0.0884
  557loPI    C2 8898   1.166   4.676  10.086 -0.0367  0.0395  0.2592
  557loPI    C3 8899   1.352   4.355  10.235 -0.2104 -0.1943 -0.0164
  557loPI   PO4 8900   1.173   4.353   9.633 -0.2912  0.0750  0.0395
  557loPI   GL1 8901   1.531   4.300   9.381 -0.1335 -0.0617 -0.0649
  557loPI   GL2 8902   1.720   4.582   9.347 -0.1220 -0.1866  0.1867
  557loPI   C1A 8903   1.555   4.331   8.943 -0.3133  0.0451  0.2052
  557loPI   C2A 8904   1.720   4.227   8.665 -0.2140  0.0763 -0.1305
  557loPI   C3A 8905   1.559   4.137   8.389  0.1288 -0.3165 -0.1850
  557loPI   C4A 8906   1.399   4.264   7.931  0.0331 -0.0295  0.1410
  557loPI   C5A 8907   1.262   4.241   7.501  0.0498  0.1431  0.1568
  557loPI   C6A 8908   1.017   4.433   7.275 -0.2268  0.0936  0.0298
  557loPI   C1B 8909   1.851   4.777   8.895 -0.1083  0.1042  0.0707
  557loPI   C2B 8910   1.778   5.141   8.560  0.0692 -0.1300 -0.1826
  557loPI   C3B 8911   1.767   5.072   8.087 -0.1922 -0.2187 -0.1121
  557loPI   C4B 8912   1.654   5.145   7.648  0.1149  0.2416  0.0828
  558loPI    C1 8913   8.069  11.572   9.740  0.0305 -0.1068 -0.1047
  558loPI    C2 8914   8.012  11.925   9.560  0.0240 -0.0729 -0.0367
  558loPI    C3 8915   7.727  11.772   9.795  0.0639 -0.0797  0.0074
  558loPI   PO4 8916   8.083  11.403   9.523 -0.1160  0.1794 -0.0827
  558loPI   GL1 8917   8.117  11.672   9.129  0.2793 -0.0432 -0.1081
  558loPI   GL2 8918   8.322  11.471   9.059 -0.0424  0.0974 -0.0056
  558loPI   C1A 8919   7.789  11.827   8.988 -0.1184  0.2524  0.1633
  558loPI   C2A 8920   7.827  11.912   8.533 -0.0949 -0.3611 -0.1411
  558loPI   C3A 8921   7.913  12.076   8.154 -0.0600  0.1368 -0.0389
  558loPI   C4A 8922   7.782  12.391   7.874 -0.0612 -0.1622  0.0637
  558loPI   C5A 8923   7.946  12.758   7.832  0.3119  0.1070 -0.2409
  558loPI   C6A 8924   8.300  13.140   7.938  0.2193  0.0057  0.2420
  558loPI   C1B 8925   8.142  11.295   8.774 -0.1362 -0.3081 -0.0229
  558loPI   C2B 8926   8.097  11.222   8.377  0.0342 -0.0791 -0.3306
  558loPI   C3B 8927   8.086  10.931   8.016  0.1015 -0.1324  0.2605
  558loPI   C4B 8928   8.253  10.567   7.891  0.1441  0.1007  0.0193
  559loPI    C1 8929   2.808  14.509   9.981 -0.0426  0.0603 -0.0585
  559loPI    C2 8930   3.118  14.436  10.223 -0.2036 -0.0757  0.1102
  559loPI    C3 8931   2.804  14.645  10.357 -0.0977  0.2416 -0.1238
  559loPI   PO4 8932   2.919  14.714   9.798 -0.0683 -0.1242 -0.0360
  559loPI   GL1 8933   2.852  14.832   9.438  0.0496 -0.1655 -0.1151
  559loPI   GL2 8934   3.034  14.565   9.327  0.0180 -0.2430 -0.1561
  559loPI   C1A 8935   2.738  14.906   9.056 -0.0668  0.3381 -0.0760
  559loPI   C2A 8936   2.711  14.902   8.671  0.2546  0.1210  0.2196
  559loPI   C3A 8937   2.872  14.850   8.229 -0.1960 -0.0241 -0.2961
  559loPI   C4A 8938   2.976  14.801   7.739  0.2680  0.2747  0.1340
  559loPI   C5A 8939   3.056  14.678   7.316  0.3145 -0.1306  0.2838
  559loPI   C6A 8940   2.957  14.667   6.899 -0.3227  0.2153  0.1461
  559loPI   C1B 8941   3.133  14.534   8.906  0.1975  0.0034 -0.3583
  559loPI   C2B 8942   2.965  14.474   8.567 -0.2534  0.0546  0.4601
  559loPI   C3B 8943   3.157  14.490   8.070 -0.1430  0.0223 -0.1392
  559loPI   C4B 8944   3.429  14.453   7.673 -0.1207  0.0976 -0.0609
  560loPI    C1 8945  10.816  15.524  10.228  0.1687 -0.0025 -0.0296
  560loPI    C2 8946  10.856  15.835  10.476  0.2065 -0.0438  0.0162
  560loPI    C3 8947  10.634  15.520  10.584  0.1022  0.0022 -0.0634
  560loPI   PO4 8948  10.761  15.598   9.970  0.2825 -0.2859 -0.1882
  560loPI   GL1 8949  10.709  15.472   9.667  0.1885  0.0111  0.0955
  560loPI   GL2 8950  10.496  15.680   9.493 -0.1387 -0.3922  0.1072
  560loPI   C1A 8951  10.694  15.362   9.185  0.1826 -0.2661 -0.0948
  560loPI   C2A 8952  10.649  15.528   8.843 -0.0019 -0.1216 -0.1044
  560loPI   C3A 8953  10.815  15.739   8.412 -0.2100  0.1482 -0.4089
  560loPI   C4A 8954  10.956  15.680   7.971  0.0258 -0.2389 -0.0270
  560loPI   C5A 8955  10.988  15.649   7.492  0.1343  0.0201  0.1330
  560loPI   C6A 8956  10.873  15.977   7.253 -0.1530  0.1801 -0.1124
  560loPI   C1B 8957  10.593  15.985   9.174  0.1291  0.1232 -0.1084
  560loPI   C2B 8958  10.823  16.096   8.731 -0.0554 -0.1653 -0.3385
  560loPI   C3B 8959  11.009  16.200   8.240  0.0865  0.0945  0.0795
  560loPI   C4B 8960  11.069  16.283   7.854 -0.2592  0.2387  0.0768
  561loPI    C1 8961  10.771   4.130   9.719  0.0160 -0.0302  0.0698
  561loPI    C2 8962  10.766   4.523   9.645  0.2991 -0.0376  0.0033
  561loPI    C3 8963  10.427   4.334   9.739  0.1563  0.2169  0.0093
  561loPI   PO4 8964  10.858   3.872   9.446  0.5366 -0.0047  0.1236
  561loPI   GL1 8965  10.809   3.868   9.059  0.1909  0.1830 -0.0404
  561loPI   GL2 8966  10.997   4.104   8.952  0.1056 -0.1918 -0.1498
  561loPI   C1A 8967  10.694   3.760   8.672  0.2861  0.0206  0.0373
  561loPI   C2A 8968  10.362   3.848   8.405 -0.4179  0.1829 -0.0530
  561loPI   C3A 8969   9.942   3.946   8.235 -0.2324  0.1593 -0.3240
  561loPI   C4A 8970   9.707   4.082   7.934 -0.1531 -0.0266  0.0157
  561loPI   C5A 8971   9.491   4.085   7.510 -0.2293  0.2747 -0.1733
  561loPI   C6A 8972   9.315   3.944   7.141 -0.0211 -0.0823  0.1436
  561loPI   C1B 8973  11.168   3.996   8.495 -0.0399 -0.1618  0.0954
  561loPI   C2B 8974  11.277   4.197   8.109  0.0897  0.1169 -0.0177
  561loPI   C3B 8975  11.349   4.348   7.686  0.0564  0.0097 -0.2031
  561loPI   C4B 8976  11.407   4.390   7.266 -0.1625 -0.3354 -0.2458
  562loPI    C1 8977  15.528   6.724   9.630  0.3229 -0.0061  0.0669
  562loPI    C2 8978  15.475   7.056   9.415  0.0872 -0.0876 -0.0041
  562loPI    C3 8979  15.621   7.080   9.786  0.2671  0.0752 -0.0838
  562loPI   PO4 8980  15.694   6.468   9.438  0.0054 -0.0232 -0.1456
  562loPI   GL1 8981  15.953   6.622   9.214 -0.0772  0.3552 -0.1152
  562loPI   GL2 8982  15.961   6.885   9.337 -0.3491  0.1589 -0.2949
  562loPI   C1A 8983  16.104   6.500   8.849 -0.1939  0.0090 -0.1592
  562loPI   C2A 8984  16.316   6.399   8.451  0.0075 -0.0644  0.1854
  562loPI   C3A 8985  16.271   6.512   7.967  0.0330  0.1418  0.0494
  562loPI   C4A 8986  16.302   6.826   7.511 -0.2463 -0.1149  0.0837
  562loPI   C5A 8987  16.651   6.934   7.254 -0.2553  0.2647  0.0286
  562loPI   C6A 8988  16.939   6.617   6.974 -0.2596  0.1941  0.2793
  562loPI   C1B 8989  15.640   6.859   8.946 -0.0341  0.1930 -0.0217
  562loPI   C2B 8990  15.743   6.611   8.509 -0.2554  0.0370  0.5982
  562loPI   C3B 8991  15.580   6.615   8.093  0.0999  0.0975 -0.1438
  562loPI   C4B 8992  15.245   6.528   7.832 -0.0806  0.1463  0.2124
  563loPI    C1 8993  10.653   7.958  10.251 -0.1228  0.0834 -0.0473
  563loPI    C2 8994  10.891   7.640  10.206  0.0042  0.1836 -0.0905
  563loPI    C3 8995  10.997   7.936  10.453 -0.1862  0.1236  0.0659
  563loPI   PO4 8996  10.590   8.013   9.976 -0.0212  0.0433 -0.2421
  563loPI   GL1 8997  10.544   7.883   9.584 -0.0068  0.0472 -0.0603
  563loPI   GL2 8998  10.258   7.944   9.423 -0.3827  0.3266  0.1983
  563loPI   C1A 8999  10.768   7.945   9.192  0.0858  0.1269 -0.1616
  563loPI   C2A 9000  10.863   7.987   8.796 -0.2336  0.2893 -0.0658
  563loPI   C3A 9001  10.870   8.019   8.388 -0.3106 -0.3046 -0.2329
  563loPI   C4A 9002  10.943   8.135   7.957  0.0749  0.3239 -0.0684
  563loPI   C5A 9003  11.022   7.974   7.538  0.3588 -0.2849 -0.1594
  563loPI   C6A 9004  10.950   7.935   7.109 -0.5028 -0.1448  0.1754
  563loPI   C1B 9005  10.271   8.222   9.015  0.1131 -0.0056  0.1353
  563loPI   C2B 9006  10.233   8.295   8.496  0.1617 -0.0676 -0.2006
  563loPI   C3B 9007   9.981   8.227   8.110 -0.0070 -0.2671  0.1112
  563loPI   C4B 9008  10.021   7.985   7.769  0.0651  0.0397 -0.2713
  564loPI    C1 9009   2.939   6.918   9.918 -0.0004  0.2656 -0.0342
  564loPI    C2 9010   3.207   7.126  10.130  0.0711  0.1161  0.0237
  564loPI    C3 9011   3.071   6.776  10.268  0.0598  0.0545 -0.1410
  564loPI   PO4 9012   2.861   7.102   9.769  0.1291 -0.0845 -0.0174
  564loPI   GL1 9013   2.577   7.071   9.430 -0.0750 -0.1309  0.1627
  564loPI   GL2 9014   2.290   7.165   9.485 -0.3129  0.4410 -0.2034
  564loPI   C1A 9015   2.724   7.169   8.999  0.1724 -0.1926  0.0320
  564loPI   C2A 9016   3.021   7.025   8.664  0.3411  0.0010 -0.1297
  564loPI   C3A 9017   2.992   6.886   8.260 -0.0118  0.0038 -0.0711
  564loPI   C4A 9018   3.150   6.860   7.852 -0.2552  0.4654  0.1269
  564loPI   C5A 9019   3.315   7.047   7.527 -0.2307  0.0387  0.0111
  564loPI   C6A 9020   3.495   7.204   7.074  0.1725 -0.0710  0.2562
  564loPI   C1B 9021   1.949   7.194   9.183  0.2240  0.2752 -0.4259
  564loPI   C2B 9022   1.876   7.226   8.742 -0.0972  0.0362 -0.3527
  564loPI   C3B 9023   1.786   7.030   8.415 -0.2575 -0.3189  0.3161
  564loPI   C4B 9024   1.458   6.888   8.176 -0.1085  0.1715 -0.4620
  565loPI    C1 9025  11.792  15.841  10.238 -0.0247 -0.2343  0.0943
  565loPI    C2 9026  11.545  16.024  10.494  0.0338 -0.0291  0.0070
  565loPI    C3 9027  11.901  15.892  10.620  0.0696  0.0865  0.0283
  565loPI   PO4 9028  11.585  15.608  10.098 -0.2317 -0.0354 -0.1795
  565loPI   GL1 9029  11.215  15.554   9.677 -0.0331 -0.0742  0.0150
  565loPI   GL2 9030  11.393  15.884   9.590  0.1486  0.0109  0.1920
  565loPI   C1A 9031  11.202  15.413   9.211  0.1260  0.0336  0.2778
  565loPI   C2A 9032  11.566  15.338   8.896  0.2589 -0.0104 -0.0600
  565loPI   C3A 9033  11.690  15.399   8.455  0.2826  0.1498 -0.1306
  565loPI   C4A 9034  11.810  15.557   8.066  0.4310  0.0815  0.2439
  565loPI   C5A 9035  11.947  15.671   7.569 -0.1116  0.4699 -0.1772
  565loPI   C6A 9036  12.290  16.130   7.367  0.1959 -0.0280  0.1126
  565loPI   C1B 9037  11.540  15.993   9.216 -0.2219 -0.1136 -0.3307
  565loPI   C2B 9038  11.826  15.848   8.899  0.3739 -0.0159 -0.0525
  565loPI   C3B 9039  11.984  15.961   8.401  0.1585  0.0649  0.2332
  565loPI   C4B 9040  11.963  16.041   7.926 -0.0360  0.0240 -0.1998
  566loPI    C1 9041  15.649   8.032   9.659 -0.1837 -0.2062 -0.0378
  566loPI    C2 9042  15.889   8.023   9.979 -0.0762  0.2519 -0.0984
  566loPI    C3 9043  15.493   7.984  10.024 -0.0227 -0.1916  0.0337
  566loPI   PO4 9044  15.742   7.917   9.525  0.4234  0.1819 -0.1722
  566loPI   GL1 9045  15.713   8.046   9.131 -0.0357  0.0172  0.1307
  566loPI   GL2 9046  15.407   8.173   8.962 -0.2276 -0.2614 -0.0321
  566loPI   C1A 9047  15.812   7.795   8.719  0.1469 -0.0710  0.2743
  566loPI   C2A 9048  15.886   7.858   8.301  0.1091  0.2924 -0.0266
  566loPI   C3A 9049  15.889   7.999   7.865  0.1541  0.1839  0.1515
  566loPI   C4A 9050  16.093   7.755   7.616  0.0119  0.0570 -0.0106
  566loPI   C5A 9051  16.353   7.418   7.671  0.1001 -0.2686  0.0303
  566loPI   C6A 9052  16.417   7.098   7.919  0.0574  0.0384  0.2598
  566loPI   C1B 9053  15.396   8.585   8.652 -0.0314  0.1520 -0.0544
  566loPI   C2B 9054  15.688   8.910   8.478 -0.2577 -0.0683  0.1552
  566loPI   C3B 9055  15.861   9.154   8.152  0.0437 -0.0524  0.3243
  566loPI   C4B 9056  16.123   9.478   8.178 -0.0300  0.2420 -0.1112
  567loPI    C1 9057  19.733  14.370   9.712  0.1878 -0.0314 -0.2810
  567loPI    C2 9058  19.788  13.989   9.820  0.0239  0.1141  0.3642
  567loPI    C3 9059  19.418  14.133   9.779  0.0852  0.1980  0.0828
  567loPI   PO4 9060  19.990  14.438   9.511 -0.2309 -0.2334  0.1601
  567loPI   GL1 9061  20.186  14.531   9.132  0.1069  0.2153 -0.1342
  567loPI   GL2 9062  20.177  14.822   9.054 -0.3929  0.3353 -0.0408
  567loPI   C1A 9063  20.196  14.493   8.660 -0.0698 -0.2045  0.0849
  567loPI   C2A 9064  20.100  14.546   8.107  0.1964  0.3406  0.1506
  567loPI   C3A 9065  20.056  14.609   7.768 -0.1786  0.2575 -0.1645
  567loPI   C4A 9066  20.361  14.637   7.382 -0.1660  0.1429 -0.1587
  567loPI   C5A 9067  20.228  14.707   6.957 -0.0113 -0.1267  0.0318
  567loPI   C6A 9068  20.220  14.575   6.456  0.4907 -0.0850  0.0827
  567loPI   C1B 9069  19.933  14.851   8.756 -0.1832 -0.1843  0.1330
  567loPI   C2B 9070  19.912  14.980   8.392  0.0590  0.2044 -0.2312
  567loPI   C3B 9071  20.058  15.114   7.961 -0.2498  0.0069  0.1181
  567loPI   C4B 9072  20.412  14.966   7.771 -0.2875 -0.2641  0.1259
  568loPI    C1 9073   8.344   7.741  10.028 -0.0009  0.2020  0.0069
  568loPI    C2 9074   8.670   7.883  10.211  0.1371 -0.1352  0.0281
  568loPI    C3 9075   8.431   7.624  10.400 -0.0714  0.0083 -0.0365
  568loPI   PO4 9076   8.415   7.755   9.767 -0.1196 -0.0520  0.0364
  568loPI   GL1 9077   8.387   8.002   9.408  0.0968 -0.2806  0.0772
  568loPI   GL2 9078   8.047   7.800   9.320  0.1067 -0.1425  0.0688
  568loPI   C1A 9079   8.692   7.909   9.126 -0.0897 -0.1514  0.1332
  568loPI   C2A 9080   8.859   7.981   8.675  0.0018  0.3150  0.0893
  568loPI   C3A 9081   8.761   8.066   8.212 -0.0940  0.1702  0.0053
  568loPI   C4A 9082   8.633   8.181   7.847 -0.1557 -0.1453 -0.0518
  568loPI   C5A 9083   8.409   8.315   7.498 -0.4103 -0.1814  0.1823
  568loPI   C6A 9084   8.101   8.064   7.280  0.1105 -0.0556 -0.2462
  568loPI   C1B 9085   8.010   8.032   8.962 -0.1615 -0.1761  0.1584
  568loPI   C2B 9086   7.899   7.919   8.582  0.0313 -0.3662 -0.3822
  568loPI   C3B 9087   7.939   7.826   8.208  0.1838  0.0911 -0.0423
  568loPI   C4B 9088   7.883   7.889   7.763  0.3146 -0.3654  0.0596
  569loPI    C1 9089  18.984   8.194  10.047  0.0964  0.1437 -0.2134
  569loPI    C2 9090  18.763   7.875  10.146  0.2873  0.1176  0.1443
  569loPI    C3 9091  18.748   8.207  10.370  0.2350  0.2940 -0.1165
  569loPI   PO4 9092  18.920   8.177   9.701 -0.1215 -0.0839 -0.1721
  569loPI   GL1 9093  18.796   8.163   9.223 -0.1267  0.2398 -0.0798
  569loPI   GL2 9094  19.029   7.855   9.269  0.3664  0.1281  0.0940
  569loPI   C1A 9095  18.685   8.162   8.753 -0.0220 -0.0924 -0.3102
  569loPI   C2A 9096  18.562   8.215   8.336 -0.2334  0.2313 -0.1806
  569loPI   C3A 9097  18.338   8.373   8.023  0.1759 -0.0609 -0.4084
  569loPI   C4A 9098  18.334   8.324   7.610 -0.0304  0.0032  0.2534
  569loPI   C5A 9099  18.191   8.688   7.357 -0.1461 -0.0695 -0.1063
  569loPI   C6A 9100  18.289   9.050   7.158 -0.1350  0.0552  0.0019
  569loPI   C1B 9101  19.081   7.810   8.883 -0.0589  0.2601  0.1784
  569loPI   C2B 9102  19.344   7.625   8.607  0.0893  0.2060 -0.0434
  569loPI   C3B 9103  19.559   7.671   8.311  0.1236 -0.0636  0.1267
  569loPI   C4B 9104  19.598   7.681   7.822 -0.2115  0.3271  0.0260
  570loPI    C1 9105   9.374   9.312  10.229 -0.1728 -0.0692 -0.1106
  570loPI    C2 9106   9.541   9.447  10.567 -0.1126 -0.2066 -0.0847
  570loPI    C3 9107   9.168   9.302  10.573 -0.1145 -0.2014 -0.0788
  570loPI   PO4 9108   9.601   9.216  10.138  0.1969 -0.4142 -0.2456
  570loPI   GL1 9109   9.753   9.201   9.724  0.1107  0.1110  0.0531
  570loPI   GL2 9110   9.744   9.438   9.647 -0.2240  0.2331 -0.1525
  570loPI   C1A 9111   9.358   9.140   9.431  0.1737 -0.0003  0.0374
  570loPI   C2A 9112   9.094   9.336   9.097 -0.0933 -0.1695 -0.2924
  570loPI   C3A 9113   9.008   9.624   8.860  0.1732  0.3330  0.1135
  570loPI   C4A 9114   9.038   9.730   8.464 -0.5914  0.1869 -0.1428
  570loPI   C5A 9115   8.916   9.783   8.138 -0.2706 -0.0737 -0.1212
  570loPI   C6A 9116   8.842   9.811   7.629  0.0700  0.2387  0.1184
  570loPI   C1B 9117   9.503   9.607   9.389  0.0320 -0.2769 -0.0178
  570loPI   C2B 9118   9.422   9.865   9.003 -0.1371 -0.0195 -0.0126
  570loPI   C3B 9119   9.547  10.053   8.645 -0.0598 -0.1828 -0.1423
  570loPI   C4B 9120   9.881  10.205   8.490  0.2961  0.2153  0.2214
  571loPI    C1 9121   0.740  14.251   9.666 -0.0189 -0.1984 -0.0693
  571loPI    C2 9122   0.992  13.952   9.751  0.2177  0.0563  0.1457
  571loPI    C3 9123   1.050  14.314   9.912 -0.1881  0.1648  0.0584
  571loPI   PO4 9124   0.763  14.301   9.458 -0.0377  0.2348  0.4005
  571loPI   GL1 9125   0.864  14.378   9.068  0.2871  0.2598 -0.1814
  571loPI   GL2 9126   0.888  14.698   8.984 -0.1746 -0.3632 -0.0100
  571loPI   C1A 9127   0.927  14.072   8.678  0.1422 -0.0305  0.0187
  571loPI   C2A 9128   0.613  14.134   8.306  0.1228  0.1403  0.3906
  571loPI   C3A 9129   0.619  14.150   7.859  0.0437  0.1273  0.0231
  571loPI   C4A 9130   0.884  14.229   7.521  0.2540 -0.0713  0.3745
  571loPI   C5A 9131   1.079  14.333   7.195  0.1233 -0.0017  0.1527
  571loPI   C6A 9132   1.323  14.277   6.883  0.3661 -0.3058  0.2850
  571loPI   C1B 9133   1.178  14.584   8.733 -0.0941 -0.0301  0.0258
  571loPI   C2B 9134   1.340  14.696   8.370  0.0341 -0.1755  0.1703
  571loPI   C3B 9135   1.525  14.470   8.008  0.1053  0.0959 -0.0825
  571loPI   C4B 9136   1.683  14.067   8.109 -0.2748  0.0519  0.0389
  572loPI    C1 9137  10.368  11.848   9.836 -0.0660 -0.2087  0.0930
  572loPI    C2 9138  10.653  11.888  10.113 -0.1131  0.0104  0.1112
  572loPI    C3 9139  10.277  11.996  10.196 -0.1156  0.1355 -0.0572
  572loPI   PO4 9140  10.576  11.802   9.612 -0.2612 -0.0146 -0.1801
  572loPI   GL1 9141  10.596  11.769   9.174  0.2318  0.2178 -0.1812
  572loPI   GL2 9142  10.496  11.495   9.090  0.1146  0.3845 -0.2237
  572loPI   C1A 9143  10.393  11.884   8.856 -0.1475  0.0778 -0.0243
  572loPI   C2A 9144  10.504  11.876   8.400  0.1199 -0.1419  0.0808
  572loPI   C3A 9145  10.737  11.973   8.162  0.0881 -0.0437  0.1128
  572loPI   C4A 9146  11.122  12.034   8.020 -0.0634 -0.1008  0.1179
  572loPI   C5A 9147  11.351  12.100   7.706 -0.0140 -0.0569 -0.0031
  572loPI   C6A 9148  11.208  12.442   7.450 -0.0596  0.0664  0.0250
  572loPI   C1B 9149  10.667  11.469   8.762 -0.0816 -0.0048 -0.0703
  572loPI   C2B 9150  10.543  11.323   8.431 -0.0485  0.1245  0.0787
  572loPI   C3B 9151  10.433  11.424   8.015 -0.0031 -0.0818  0.1939
  572loPI   C4B 9152  10.443  11.417   7.555  0.0960  0.0242 -0.2488
  573loPI    C1 9153  16.871   0.277   9.707  0.0388  0.0285  0.1266
  573loPI    C2 9154  16.689   0.618   9.809 -0.1749 -0.0580  0.0404
  573loPI    C3 9155  16.485   0.274   9.811  0.0298 -0.1807  0.0908
  573loPI   PO4 9156  17.005   0.346   9.434 -0.5011  0.1508  0.1129
  573loPI   GL1 9157  16.900   0.300   9.008 -0.3600 -0.3397  0.3677
  573loPI   GL2 9158  16.928   0.716   9.078  0.1089 -0.1026  0.0142
  573loPI   C1A 9159  17.057   0.114   8.610  0.1577  0.0804 -0.0553
  573loPI   C2A 9160  17.162  -0.152   8.286  0.0227 -0.3318  0.3534
  573loPI   C3A 9161  17.222  -0.153   7.859  0.0588  0.1377 -0.1317
  573loPI   C4A 9162  17.535  -0.377   7.540 -0.4586  0.2912  0.2932
  573loPI   C5A 9163  17.594  -0.771   7.363  0.1349 -0.1293 -0.2115
  573loPI   C6A 9164  17.900  -0.992   7.129 -0.0753 -0.0482  0.0326
  573loPI   C1B 9165  16.896   0.762   8.677  0.2881 -0.0377  0.1619
  573loPI   C2B 9166  16.976   0.487   8.344 -0.3593  0.1420  0.1609
  573loPI   C3B 9167  17.110   0.393   7.883  0.1587 -0.1992  0.1351
  573loPI   C4B 9168  17.239   0.211   7.511  0.2082  0.0791 -0.0228
  574loPI    C1 9169  10.877   5.624   9.596 -0.0708  0.1230 -0.1013
  574loPI    C2 9170  10.604   5.420   9.387 -0.0160  0.0940 -0.1449
  574loPI    C3 9171  10.511   5.565   9.748  0.0586 -0.3308  0.0516
  574loPI   PO4 9172  10.923   5.768   9.500  0.2101 -0.0625  0.2081
  574loPI   GL1 9173  10.968   5.743   9.051 -0.1199  0.0657 -0.0428
  574loPI   GL2 9174  10.599   5.922   9.101 -0.0487  0.0054 -0.0188
  574loPI   C1A 9175  10.886   6.071   8.660  0.2209  0.0097  0.2807
  574loPI   C2A 9176  10.770   6.186   8.119  0.2699  0.1762  0.0907
  574loPI   C3A 9177  10.622   6.139   7.672 -0.1087 -0.1777  0.0124
  574loPI   C4A 9178  10.317   6.297   7.444  0.1419 -0.0153  0.0756
  574loPI   C5A 9179  10.160   6.249   7.080 -0.0258 -0.1347  0.3488
  574loPI   C6A 9180  10.140   6.517   6.821  0.3280 -0.0688 -0.1928
  574loPI   C1B 9181  10.543   5.695   8.684  0.0670  0.0578 -0.0414
  574loPI   C2B 9182  10.510   5.472   8.293 -0.3356 -0.1569 -0.0302
  574loPI   C3B 9183  10.626   5.315   7.963 -0.0135  0.1789 -0.1401
  574loPI   C4B 9184  10.735   4.975   7.663 -0.0648  0.1326  0.2925
  575loPI    C1 9185   0.150  19.013   9.652  0.0249 -0.0532  0.0767
  575loPI    C2 9186   0.531  18.915   9.580 -0.0710 -0.1463 -0.3323
  575loPI    C3 9187   0.445  19.223   9.820  0.2616 -0.0726 -0.3036
  575loPI   PO4 9188   0.027  18.949   9.423 -0.0120 -0.1320 -0.0728
  575loPI   GL1 9189   0.156  18.920   8.976  0.0277  0.0192 -0.1459
  575loPI   GL2 9190   0.467  19.055   9.096 -0.0829  0.0552  0.0500
  575loPI   C1A 9191   0.245  18.649   8.703  0.1799 -0.2176 -0.1227
  575loPI   C2A 9192   0.361  18.449   8.433 -0.3258  0.2927 -0.2368
  575loPI   C3A 9193   0.566  18.377   7.960 -0.2472  0.0395  0.1339
  575loPI   C4A 9194   0.624  18.353   7.544  0.1124  0.1847  0.2060
  575loPI   C5A 9195   0.924  18.314   7.137 -0.2446 -0.2106  0.0619
  575loPI   C6A 9196   1.123  18.623   6.859  0.0071 -0.0145  0.3512
  575loPI   C1B 9197   0.620  18.930   8.591  0.0999 -0.1395  0.1040
  575loPI   C2B 9198   0.779  18.802   8.175 -0.2334  0.2744  0.0067
  575loPI   C3B 9199   0.985  18.717   7.768  0.1510  0.1073 -0.2175
  575loPI   C4B 9200   1.043  18.799   7.353  0.3743  0.4529 -0.1989
  576loPI    C1 9201  15.614   2.179   9.852  0.1278 -0.0343  0.2092
  576loPI    C2 9202  15.250   2.044   9.947  0.0683  0.0378  0.0863
  576loPI    C3 9203  15.559   1.791   9.931  0.0063 -0.0394  0.1028
  576loPI   PO4 9204  15.565   2.257   9.576  0.0351  0.1700 -0.1605
  576loPI   GL1 9205  15.841   2.162   9.219 -0.1252  0.1342 -0.2291
  576loPI   GL2 9206  16.071   2.081   9.067  0.1392 -0.0331  0.2208
  576loPI   C1A 9207  15.995   2.564   9.006  0.0843  0.1992  0.2458
  576loPI   C2A 9208  15.902   2.862   8.634 -0.2114  0.1717 -0.0102
  576loPI   C3A 9209  15.679   2.712   8.176  0.0945 -0.0693 -0.1032
  576loPI   C4A 9210  15.606   2.762   7.749  0.0306 -0.4506 -0.1722
  576loPI   C5A 9211  15.324   2.896   7.456  0.0513 -0.3032  0.3859
  576loPI   C6A 9212  15.401   2.927   7.033 -0.0723  0.6026  0.1589
  576loPI   C1B 9213  15.718   2.187   8.720 -0.0146  0.0817 -0.1250
  576loPI   C2B 9214  15.687   2.202   8.310  0.0763  0.0026  0.1684
  576loPI   C3B 9215  15.299   2.419   8.034 -0.0055 -0.2196  0.0328
  576loPI   C4B 9216  14.860   2.492   7.936  0.2975 -0.1465  0.0692
  577loPI    C1 9217  15.434  18.374   9.362 -0.0658  0.0025  0.0779
  577loPI    C2 9218  15.147  18.121   9.479  0.0448 -0.0684  0.1980
  577loPI    C3 9219  15.079  18.515   9.483 -0.1865 -0.0999 -0.1500
  577loPI   PO4 9220  15.472  18.388   9.147 -0.1094  0.1810 -0.1568
  577loPI   GL1 9221  15.140  18.391   8.858  0.0637  0.0992 -0.1120
  577loPI   GL2 9222  14.869  18.263   9.020 -0.1039 -0.3795  0.0997
  577loPI   C1A 9223  15.079  17.933   8.641 -0.0766  0.2790 -0.0045
  577loPI   C2A 9224  15.096  17.883   8.177  0.3434 -0.0779  0.1490
  577loPI   C3A 9225  15.071  17.919   7.797  0.1086  0.2140 -0.0999
  577loPI   C4A 9226  15.151  18.173   7.461 -0.0119  0.2940  0.2169
  577loPI   C5A 9227  15.173  18.224   7.042  0.1105  0.0999 -0.4268
  577loPI   C6A 9228  15.152  18.332   6.659  0.0297  0.2298 -0.0921
  577loPI   C1B 9229  14.760  18.337   8.532 -0.1364  0.0025  0.1859
  577loPI   C2B 9230  14.572  18.506   8.151 -0.0747 -0.0367 -0.2956
  577loPI   C3B 9231  14.383  18.607   7.798  0.0597  0.1217  0.1820
  577loPI   C4B 9232  14.429  18.606   7.328 -0.4443  0.1301 -0.1545
  578loPI    C1 9233   0.821   2.692   9.755 -0.2229  0.1244  0.0018
  578loPI    C2 9234   1.147   2.498   9.628 -0.2235  0.2083 -0.1295
  578loPI    C3 9235   0.915   2.335   9.911 -0.0682  0.1483 -0.0352
  578loPI   PO4 9236   0.845   2.912   9.490  0.1219 -0.2452  0.0512
  578loPI   GL1 9237   0.760   3.105   9.186  0.0828 -0.2598  0.0383
  578loPI   GL2 9238   0.447   3.365   9.233  0.0516 -0.0071 -0.0323
  578loPI   C1A 9239   0.553   3.287   8.721  0.1784  0.1325  0.0328
  578loPI   C2A 9240   0.513   3.221   8.269  0.0560  0.2977  0.0447
  578loPI   C3A 9241   0.672   3.012   7.900 -0.0983  0.0819 -0.2675
  578loPI   C4A 9242   0.847   2.902   7.472 -0.0169 -0.0576 -0.1733
  578loPI   C5A 9243   1.093   3.207   7.202  0.0331 -0.3679  0.0911
  578loPI   C6A 9244   1.040   3.535   6.962 -0.1407 -0.0133 -0.1056
  578loPI   C1B 9245   0.112   3.193   8.938  0.1704 -0.1044 -0.2275
  578loPI   C2B 9246   0.016   2.893   8.603 -0.0632  0.1465 -0.0751
  578loPI   C3B 9247   0.147   2.909   8.298 -0.0826 -0.0591 -0.0356
  578loPI   C4B 9248   0.175   3.018   7.865  0.4710 -0.0748  0.1091
  579loPI    C1 9249   9.274  17.422   9.746  0.0214 -0.1524 -0.2367
  579loPI    C2 9250   9.632  17.255   9.688  0.1376  0.0090 -0.0017
  579loPI    C3 9251   9.434  17.187  10.028 -0.0571 -0.0797 -0.1309
  579loPI   PO4 9252   9.138  17.431   9.564  0.1030 -0.1036  0.0376
  579loPI   GL1 9253   8.850  17.643   9.221  0.0651  0.0313  0.2429
  579loPI   GL2 9254   8.660  17.818   9.217 -0.3393 -0.2771 -0.2253
  579loPI   C1A 9255   9.145  17.601   8.911 -0.2472 -0.1629 -0.1519
  579loPI   C2A 9256   9.326  17.796   8.625 -0.3236  0.0838  0.3366
  579loPI   C3A 9257   9.495  17.723   8.312 -0.0256 -0.1929  0.0326
  579loPI   C4A 9258   9.481  17.864   7.855 -0.1968  0.2690 -0.1530
  579loPI   C5A 9259   9.428  17.762   7.478 -0.0762  0.2663  0.0366
  579loPI   C6A 9260   9.268  17.532   7.198 -0.1487 -0.0009  0.0439
  579loPI   C1B 9261   8.590  17.663   8.759  0.1925 -0.3213  0.3186
  579loPI   C2B 9262   8.371  17.609   8.358 -0.2082 -0.0947 -0.1999
  579loPI   C3B 9263   8.478  17.536   7.940  0.0990  0.0511 -0.0034
  579loPI   C4B 9264   8.236  17.679   7.554 -0.0985 -0.1597 -0.0222
  580loPI    C1 9265  11.570   1.355   9.615  0.1665  0.0414  0.2428
  580loPI    C2 9266  11.471   1.618   9.331  0.4058 -0.1795 -0.0518
  580loPI    C3 9267  11.194   1.490   9.589  0.1643 -0.0390 -0.2362
  580loPI   PO4 9268  11.748   1.209   9.423  0.4792  0.0709  0.1809
  580loPI   GL1 9269  11.826   1.084   8.972 -0.0249  0.0082 -0.2111
  580loPI   GL2 9270  11.910   1.380   8.981 -0.1465 -0.0076  0.0517
  580loPI   C1A 9271  11.632   0.942   8.667  0.1651 -0.1921  0.2161
  580loPI   C2A 9272  11.686   0.574   8.307  0.0439 -0.2700  0.0651
  580loPI   C3A 9273  11.848   0.666   7.991 -0.0981 -0.2794 -0.1596
  580loPI   C4A 9274  12.042   0.738   7.651  0.1845  0.1490  0.1890
  580loPI   C5A 9275  12.293   0.794   7.154  0.4563  0.0565  0.0528
  580loPI   C6A 9276  12.559   0.701   6.926  0.0042 -0.0129  0.0411
  580loPI   C1B 9277  11.648   1.424   8.555 -0.0994 -0.1224  0.1687
  580loPI   C2B 9278  11.560   1.614   8.243  0.1145 -0.0289  0.0571
  580loPI   C3B 9279  11.580   1.473   7.937 -0.5712  0.2460 -0.0562
  580loPI   C4B 9280  11.695   1.088   7.647  0.1581 -0.0758 -0.1110
  581loPI    C1 9281   7.344  13.031   9.635  0.0078 -0.1193 -0.0126
  581loPI    C2 9282   7.294  13.373   9.836  0.1038 -0.0245 -0.1477
  581loPI    C3 9283   7.179  13.026   9.999  0.1588  0.0534  0.0596
  581loPI   PO4 9284   7.553  13.080   9.519  0.0577 -0.0703 -0.1162
  581loPI   GL1 9285   7.694  13.005   9.168 -0.1627 -0.0371 -0.1996
  581loPI   GL2 9286   7.542  13.190   8.940  0.0646  0.2420 -0.0508
  581loPI   C1A 9287   7.907  12.801   8.744  0.0301  0.0221 -0.0409
  581loPI   C2A 9288   7.959  12.509   8.399 -0.0248 -0.0276 -0.0144
  581loPI   C3A 9289   8.225  12.490   8.068 -0.3754  0.0183  0.0671
  581loPI   C4A 9290   8.408  12.660   7.782  0.1533 -0.0908 -0.1154
  581loPI   C5A 9291   8.403  12.833   7.378  0.3072 -0.5675  0.2222
  581loPI   C6A 9292   8.728  12.622   7.207 -0.0398 -0.1656 -0.1112
  581loPI   C1B 9293   7.316  13.312   8.492 -0.0191  0.0950  0.5627
  581loPI   C2B 9294   7.317  13.151   8.024  0.1422  0.1878  0.3793
  581loPI   C3B 9295   7.397  13.245   7.577 -0.1468  0.0345 -0.2056
  581loPI   C4B 9296   7.295  13.435   7.102  0.0753 -0.0214  0.1463
  582loPI    C1 9297   8.270   7.247   9.951 -0.3354 -0.1160 -0.0193
  582loPI    C2 9298   8.042   7.269  10.279 -0.0686  0.0042  0.1613
  582loPI    C3 9299   8.212   6.922  10.177  0.1735  0.0559  0.3779
  582loPI   PO4 9300   8.161   7.288   9.705  0.0620 -0.1466  0.1481
  582loPI   GL1 9301   8.324   7.407   9.265  0.3831 -0.2724  0.0197
  582loPI   GL2 9302   8.301   7.118   9.248  0.0305  0.3816 -0.1968
  582loPI   C1A 9303   8.303   7.678   8.781 -0.1550 -0.3866  0.0225
  582loPI   C2A 9304   8.379   8.019   8.550  0.2244  0.0445  0.4015
  582loPI   C3A 9305   8.175   8.216   8.312  0.0623 -0.0579  0.1331
  582loPI   C4A 9306   8.178   8.366   7.941 -0.0199 -0.2558  0.3895
  582loPI   C5A 9307   8.439   8.702   7.861  0.1359 -0.2548  0.0115
  582loPI   C6A 9308   8.538   8.850   7.504 -0.2981  0.5501  0.0019
  582loPI   C1B 9309   8.022   7.118   8.894  0.0156 -0.1061 -0.0206
  582loPI   C2B 9310   7.815   6.904   8.566 -0.0700 -0.0489  0.1580
  582loPI   C3B 9311   7.643   6.802   8.190 -0.2277  0.2763 -0.1889
  582loPI   C4B 9312   7.584   6.663   7.791  0.1295  0.1774  0.0829
  583loPI    C1 9313  10.233   3.505   9.285 -0.0022  0.1688 -0.1144
  583loPI    C2 9314  10.334   3.829   9.497 -0.0222  0.1474 -0.0723
  583loPI    C3 9315  10.557   3.497   9.519  0.0067  0.1630 -0.1270
  583loPI   PO4 9316  10.224   3.541   9.045  0.0294  0.0478 -0.1460
  583loPI   GL1 9317  10.070   3.400   8.703  0.3746  0.0363 -0.3528
  583loPI   GL2 9318   9.797   3.678   8.733 -0.2145 -0.4867 -0.1772
  583loPI   C1A 9319   9.973   3.081   8.400  0.0901  0.2413  0.0539
  583loPI   C2A 9320   9.853   2.684   8.276  0.0047 -0.4100  0.0905
  583loPI   C3A 9321   9.889   2.433   7.754  0.1898  0.0144 -0.0972
  583loPI   C4A 9322   9.634   2.284   7.335  0.2317 -0.3859  0.2753
  583loPI   C5A 9323   9.404   2.189   7.059  0.0067 -0.0691 -0.3108
  583loPI   C6A 9324   9.184   2.024   6.916  0.0599 -0.1797  0.2001
  583loPI   C1B 9325   9.534   4.074   8.613 -0.3820 -0.2921  0.1725
  583loPI   C2B 9326   9.388   4.167   8.266  0.2045 -0.2026  0.1964
  583loPI   C3B 9327   9.336   4.398   7.870  0.1419 -0.1800 -0.1381
  583loPI   C4B 9328   9.247   4.553   7.364 -0.1293 -0.2127  0.0268
  584loPI    C1 9329   6.949  18.848   9.457 -0.0526 -0.0230  0.1220
  584loPI    C2 9330   6.783  18.866   9.094  0.1624  0.1259  0.0287
  584loPI    C3 9331   7.072  19.124   9.194  0.4168 -0.1987  0.1477
  584loPI   PO4 9332   6.983  18.596   9.511 -0.1485 -0.0002  0.1817
  584loPI   GL1 9333   7.103  18.388   9.242  0.1500 -0.0620 -0.1753
  584loPI   GL2 9334   6.948  18.181   8.997  0.0729  0.4288 -0.2605
  584loPI   C1A 9335   7.275  18.740   8.878  0.0399 -0.0785 -0.2628
  584loPI   C2A 9336   7.377  18.991   8.527  0.2384  0.0068  0.3236
  584loPI   C3A 9337   7.551  19.168   8.110 -0.3530  0.1774  0.0529
  584loPI   C4A 9338   7.690  19.147   7.695  0.3150  0.2369 -0.2884
  584loPI   C5A 9339   7.503  19.371   7.330 -0.2452  0.0125 -0.2038
  584loPI   C6A 9340   7.392  19.793   7.263  0.0110  0.0273  0.1038
  584loPI   C1B 9341   7.276  18.302   8.675 -0.2459 -0.1364 -0.4303
  584loPI   C2B 9342   7.408  18.298   8.316 -0.2018 -0.1405 -0.1611
  584loPI   C3B 9343   7.575  18.374   7.887  0.1168  0.5108  0.0451
  584loPI   C4B 9344   7.744  18.146   7.466 -0.1753  0.1266 -0.1355
  585loPI    C1 9345   3.056  18.378   9.447 -0.0947  0.0819 -0.1025
  585loPI    C2 9346   3.223  18.577   9.751  0.0040 -0.0225 -0.0873
  585loPI    C3 9347   3.234  18.177   9.744 -0.0790 -0.0237 -0.1825
  585loPI   PO4 9348   3.117  18.458   9.254 -0.4666 -0.1507  0.1447
  585loPI   GL1 9349   3.260  18.334   8.937  0.2078  0.1010 -0.0800
  585loPI   GL2 9350   2.952  18.139   8.889 -0.1630 -0.3674  0.1286
  585loPI   C1A 9351   3.463  18.097   8.556 -0.1538 -0.5732  0.1275
  585loPI   C2A 9352   3.484  17.844   8.138  0.2622 -0.1765 -0.2383
  585loPI   C3A 9353   3.444  17.830   7.654  0.1493 -0.0220  0.2242
  585loPI   C4A 9354   3.197  18.079   7.262  0.0691  0.0909  0.0420
  585loPI   C5A 9355   3.477  18.424   6.947 -0.1626  0.0867 -0.0655
  585loPI   C6A 9356   3.441  18.692   6.572 -0.0154  0.0296 -0.0833
  585loPI   C1B 9357   2.808  17.802   8.559  0.3201 -0.2186 -0.2740
  585loPI   C2B 9358   2.928  17.644   8.165 -0.0110 -0.2915  0.0533
  585loPI   C3B 9359   2.931  17.544   7.843  0.2666  0.2125  0.0806
  585loPI   C4B 9360   2.947  17.697   7.456 -0.0565 -0.2189 -0.0471
  586loPI    C1 9361   5.655   2.571   9.341  0.1398 -0.0562  0.0593
  586loPI    C2 9362   5.496   2.306   9.596  0.3404 -0.0580  0.1844
  586loPI    C3 9363   5.757   2.580   9.728  0.1687  0.1752  0.0477
  586loPI   PO4 9364   5.365   2.631   9.190  0.2388  0.0552  0.2445
  586loPI   GL1 9365   5.212   2.616   8.752 -0.2008 -0.0975 -0.0237
  586loPI   GL2 9366   4.994   2.683   8.518  0.2571 -0.1011  0.2177
  586loPI   C1A 9367   5.510   2.623   8.411  0.0290  0.1019 -0.0890
  586loPI   C2A 9368   5.377   2.425   8.060  0.0437 -0.0488 -0.1234
  586loPI   C3A 9369   5.265   2.395   7.644  0.0057  0.1945  0.2601
  586loPI   C4A 9370   5.183   2.453   7.220 -0.1994  0.0222  0.0090
  586loPI   C5A 9371   5.238   2.285   6.892 -0.4807  0.2417 -0.4588
  586loPI   C6A 9372   5.113   1.805   6.935  0.3106  0.3200  0.1598
  586loPI   C1B 9373   4.820   2.406   8.185 -0.0801  0.1952  0.0198
  586loPI   C2B 9374   4.928   2.134   7.942 -0.3039 -0.0106  0.2026
  586loPI   C3B 9375   4.832   2.192   7.508 -0.0478  0.0751 -0.2032
  586loPI   C4B 9376   4.546   2.093   7.169 -0.0310  0.3224  0.4168
  587loPI    C1 9377  15.550  11.567  10.077 -0.0710 -0.1409 -0.2033
  587loPI    C2 9378  15.889  11.356  10.090 -0.1470 -0.2670 -0.2483
  587loPI    C3 9379  15.630  11.338  10.395 -0.0423 -0.0497 -0.1445
  587loPI   PO4 9380  15.392  11.505   9.839 -0.0017 -0.1117 -0.0045
  587loPI   GL1 9381  15.159  11.753   9.446  0.1492  0.2454  0.3086
  587loPI   GL2 9382  15.206  11.359   9.408  0.0197  0.1810 -0.0281
  587loPI   C1A 9383  15.232  11.693   8.994 -0.0572  0.1833  0.1181
  587loPI   C2A 9384  15.488  11.582   8.575 -0.0163  0.3372 -0.2208
  587loPI   C3A 9385  15.480  11.710   8.165  0.2238 -0.4238 -0.3660
  587loPI   C4A 9386  15.519  11.805   7.681  0.4074  0.1555  0.0376
  587loPI   C5A 9387  15.615  11.795   7.312 -0.1678  0.0392 -0.0636
  587loPI   C6A 9388  15.614  11.928   6.785  0.2272 -0.0409 -0.0580
  587loPI   C1B 9389  15.118  11.066   9.003  0.1232  0.1311 -0.0502
  587loPI   C2B 9390  14.985  10.956   8.612 -0.1187 -0.1605  0.2497
  587loPI   C3B 9391  14.822  10.849   8.154  0.0578  0.1979  0.0324
  587loPI   C4B 9392  14.773  10.743   7.664 -0.0804 -0.0101 -0.1127
  588loPI    C1 9393  11.755  11.459   9.682  0.3922  0.2983 -0.3219
  588loPI    C2 9394  11.973  11.782   9.771  0.2167  0.2956  0.1456
  588loPI    C3 9395  11.948  11.479  10.032  0.0823  0.0629 -0.1317
  588loPI   PO4 9396  11.830  11.367   9.459  0.0303 -0.3680 -0.1841
  588loPI   GL1 9397  11.792  11.381   9.076 -0.3517 -0.3126  0.2117
  588loPI   GL2 9398  11.534  11.490   9.084 -0.1798 -0.0652  0.0071
  588loPI   C1A 9399  11.854  11.371   8.646 -0.0868 -0.1218 -0.1408
  588loPI   C2A 9400  11.889  11.637   8.396 -0.2003 -0.1216  0.4405
  588loPI   C3A 9401  11.924  12.055   8.297  0.0497 -0.0040  0.0458
  588loPI   C4A 9402  11.777  12.290   8.014  0.0736  0.0033 -0.1575
  588loPI   C5A 9403  11.699  12.595   7.708  0.1032  0.0709 -0.2619
  588loPI   C6A 9404  11.764  12.907   7.404  0.0030 -0.1571  0.1246
  588loPI   C1B 9405  11.450  11.681   8.734 -0.0315 -0.0026  0.0224
  588loPI   C2B 9406  11.477  11.930   8.452  0.1853  0.1383  0.0962
  588loPI   C3B 9407  11.487  12.352   8.375  0.1736  0.1111  0.0656
  588loPI   C4B 9408  11.565  12.760   8.192 -0.3334  0.3773 -0.1571
  589loPI    C1 9409  10.574   9.564  10.223 -0.2433  0.0155 -0.1337
  589loPI    C2 9410  10.410   9.898  10.369 -0.0684  0.0217  0.0537
  589loPI    C3 9411  10.354   9.549  10.557 -0.0779 -0.0194 -0.0249
  589loPI   PO4 9412  10.505   9.630   9.830  0.3015 -0.3849 -0.0704
  589loPI   GL1 9413  10.599   9.739   9.460 -0.2881 -0.0289  0.0618
  589loPI   GL2 9414  10.822   9.851   9.453 -0.3121 -0.1676  0.0592
  589loPI   C1A 9415  10.600   9.701   8.961 -0.0074 -0.0145  0.1547
  589loPI   C2A 9416  10.526   9.872   8.583 -0.4590  0.1042 -0.3361
  589loPI   C3A 9417  10.304  10.051   8.253 -0.0992 -0.2451 -0.1163
  589loPI   C4A 9418   9.969  10.145   7.996  0.4672  0.2539 -0.2935
  589loPI   C5A 9419   9.988  10.012   7.513 -0.5415 -0.1721 -0.0573
  589loPI   C6A 9420  10.333  10.022   7.277 -0.2446  0.2788 -0.3221
  589loPI   C1B 9421  10.465  10.150   9.197 -0.3127 -0.2212 -0.1174
  589loPI   C2B 9422  10.245  10.448   8.761  0.1485  0.0460 -0.0664
  589loPI   C3B 9423  10.197  10.585   8.287  0.1212 -0.1018  0.0006
  589loPI   C4B 9424  10.103  10.670   7.874 -0.3197 -0.1171 -0.2418
  590loPI    C1 9425  12.860  13.015   9.633 -0.0607  0.4027 -0.0047
  590loPI    C2 9426  12.830  12.814   9.977 -0.1310 -0.0378 -0.2606
  590loPI    C3 9427  12.528  13.045   9.853 -0.1404  0.0538 -0.0699
  590loPI   PO4 9428  12.943  12.830   9.454 -0.1256  0.2441 -0.0655
  590loPI   GL1 9429  13.147  12.817   9.098 -0.1161  0.0973  0.4031
  590loPI   GL2 9430  13.389  12.627   9.209  0.0018 -0.0470  0.2928
  590loPI   C1A 9431  13.064  12.646   8.651 -0.0076  0.2181  0.1264
  590loPI   C2A 9432  13.182  12.487   8.251  0.0968  0.1926  0.1717
  590loPI   C3A 9433  13.430  12.547   7.910  0.0584 -0.0685 -0.4039
  590loPI   C4A 9434  13.304  12.692   7.498 -0.2175  0.3194  0.1439
  590loPI   C5A 9435  13.559  12.875   7.179 -0.4271 -0.1822  0.0704
  590loPI   C6A 9436  13.555  13.328   7.089  0.0404  0.2215 -0.2629
  590loPI   C1B 9437  13.500  12.864   8.790  0.0753 -0.0832 -0.2832
  590loPI   C2B 9438  13.649  12.943   8.464  0.2192 -0.3635  0.0112
  590loPI   C3B 9439  13.468  12.992   8.168  0.1082  0.4270  0.0109
  590loPI   C4B 9440  13.554  13.080   7.736  0.0216 -0.0125  0.1550
  591loPI    C1 9441  14.862  12.210  10.034  0.0337 -0.2522  0.1527
  591loPI    C2 9442  14.517  12.272   9.842  0.2168 -0.1432 -0.1476
  591loPI    C3 9443  14.524  12.260  10.242 -0.0728  0.2440 -0.1249
  591loPI   PO4 9444  14.969  12.178   9.764 -0.2156  0.1935 -0.0264
  591loPI   GL1 9445  14.822  12.274   9.377  0.3522 -0.0707  0.1182
  591loPI   GL2 9446  14.609  12.009   9.363  0.2015 -0.1954 -0.1951
  591loPI   C1A 9447  14.992  12.074   8.912 -0.3080 -0.1723 -0.2332
  591loPI   C2A 9448  15.128  12.057   8.466  0.0777  0.1139  0.1087
  591loPI   C3A 9449  15.199  12.133   8.005 -0.0262 -0.2271  0.2941
  591loPI   C4A 9450  15.161  12.279   7.574 -0.0583  0.4675 -0.3679
  591loPI   C5A 9451  15.146  12.324   7.222  0.0865 -0.1136  0.1058
  591loPI   C6A 9452  15.236  12.621   6.807 -0.1552 -0.0190 -0.0439
  591loPI   C1B 9453  14.503  12.026   8.907  0.1921  0.3803  0.0889
  591loPI   C2B 9454  14.558  11.894   8.532  0.1578  0.1045  0.1252
  591loPI   C3B 9455  14.670  11.870   8.177 -0.0490 -0.1376  0.0395
  591loPI   C4B 9456  14.954  11.670   7.884  0.0451  0.2864  0.1559
  592loPI    C1 9457  10.297   7.460   9.693  0.1158 -0.0508  0.0537
  592loPI    C2 9458  10.280   7.167   9.964  0.0949  0.0383  0.1490
  592loPI    C3 9459  10.383   7.537  10.076  0.1796  0.0546  0.0186
  592loPI   PO4 9460  10.067   7.431   9.547 -0.0457  0.0253 -0.1704
  592loPI   GL1 9461  10.032   7.298   9.135 -0.0020 -0.0271  0.0092
  592loPI   GL2 9462  10.284   7.135   9.156 -0.0622 -0.2734  0.2114
  592loPI   C1A 9463   9.985   7.602   8.884 -0.2337  0.0663 -0.0021
  592loPI   C2A 9464   9.873   7.855   8.446  0.1389  0.1391 -0.0364
  592loPI   C3A 9465   9.548   7.928   8.160 -0.0605 -0.1400 -0.0103
  592loPI   C4A 9466   9.350   7.671   7.899  0.2103  0.2919  0.2577
  592loPI   C5A 9467   9.316   7.578   7.434 -0.4723  0.1272 -0.2516
  592loPI   C6A 9468   9.210   7.832   7.019 -0.1017  0.0156 -0.0107
  592loPI   C1B 9469  10.137   7.167   8.674  0.0319  0.0907 -0.0908
  592loPI   C2B 9470  10.430   7.246   8.412 -0.1178 -0.0662 -0.1536
  592loPI   C3B 9471  10.765   7.402   8.316 -0.1748  0.0017 -0.0923
  592loPI   C4B 9472  10.868   7.646   7.978  0.2427  0.1740 -0.2804
  593loPI    C1 9473   9.036  15.857   9.839 -0.2604 -0.2342 -0.0509
  593loPI    C2 9474   8.973  16.105  10.147 -0.0959 -0.1149 -0.1118
  593loPI    C3 9475   9.027  15.714  10.213  0.2383 -0.0466  0.0404
  593loPI   PO4 9476   8.817  15.860   9.661 -0.3061 -0.0518 -0.0498
  593loPI   GL1 9477   8.647  15.754   9.283  0.1320  0.0245  0.0290
  593loPI   GL2 9478   8.746  15.877   8.933  0.0774 -0.0205  0.0387
  593loPI   C1A 9479   8.556  15.409   9.134  0.1291 -0.3602  0.2031
  593loPI   C2A 9480   8.398  15.252   8.696 -0.2642  0.1491 -0.1591
  593loPI   C3A 9481   8.285  15.276   8.280  0.2983 -0.1698  0.1644
  593loPI   C4A 9482   8.331  15.156   7.933 -0.2300 -0.4304 -0.2670
  593loPI   C5A 9483   8.448  15.275   7.556 -0.3448 -0.0529 -0.3075
  593loPI   C6A 9484   8.476  15.176   7.116 -0.3342  0.0556  0.1531
  593loPI   C1B 9485   8.685  16.242   8.637  0.0935 -0.0593 -0.1699
  593loPI   C2B 9486   8.469  16.497   8.244  0.0529 -0.2325 -0.0348
  593loPI   C3B 9487   8.406  16.554   7.713 -0.2053 -0.0888  0.0777
  593loPI   C4B 9488   8.459  16.818   7.380 -0.2804  0.1153 -0.1713
  594loPI    C1 9489  14.454   8.873   9.674 -0.0158  0.0737  0.0886
  594loPI    C2 9490  14.273   9.209   9.792  0.2450  0.1917  0.1592
  594loPI    C3 9491  14.525   9.020  10.039  0.1832  0.0035  0.0797
  594loPI   PO4 9492  14.355   8.842   9.370 -0.1469 -0.1511  0.1192
  594loPI   GL1 9493  14.410   8.977   8.939 -0.1609  0.2821  0.0641
  594loPI   GL2 9494  14.115   9.097   8.932  0.0167 -0.0827 -0.1995
  594loPI   C1A 9495  14.647   9.011   8.476  0.2082  0.0865 -0.1179
  594loPI   C2A 9496  14.581   9.093   8.011 -0.0003 -0.1758 -0.2123
  594loPI   C3A 9497  14.286   9.189   7.729  0.1260 -0.1652  0.0748
  594loPI   C4A 9498  13.891   9.233   7.557 -0.1868 -0.1240 -0.3710
  594loPI   C5A 9499  13.652   9.686   7.442 -0.1305 -0.0659  0.3062
  594loPI   C6A 9500  13.606  10.034   7.232 -0.0950  0.0238  0.0893
  594loPI   C1B 9501  14.161   9.036   8.491  0.2637 -0.4379  0.1898
  594loPI   C2B 9502  13.932   9.004   8.036 -0.0304 -0.0728  0.0823
  594loPI   C3B 9503  13.983   8.692   7.664 -0.0006  0.0308  0.0664
  594loPI   C4B 9504  13.762   8.466   7.417 -0.2714  0.1054 -0.1643
  595loPI    C1 9505   3.014   2.212   9.617 -0.0717  0.0280  0.0214
  595loPI    C2 9506   3.304   2.006   9.801 -0.0187  0.0264 -0.0638
  595loPI    C3 9507   2.930   1.991   9.940  0.1157  0.4534  0.3720
  595loPI   PO4 9508   3.045   2.263   9.370  0.1626 -0.3799 -0.0298
  595loPI   GL1 9509   2.960   1.991   9.028  0.2014 -0.0105  0.0811
  595loPI   GL2 9510   3.192   1.819   8.855 -0.0918  0.1729 -0.3392
  595loPI   C1A 9511   2.632   1.978   8.854  0.1557 -0.0835  0.2375
  595loPI   C2A 9512   2.502   1.933   8.352 -0.1335  0.2846  0.0096
  595loPI   C3A 9513   2.479   2.112   7.981 -0.1212 -0.0834 -0.0116
  595loPI   C4A 9514   2.365   2.059   7.590  0.1144 -0.0069  0.0902
  595loPI   C5A 9515   2.246   2.265   7.213 -0.2115 -0.2516 -0.0755
  595loPI   C6A 9516   2.137   2.713   6.993 -0.0628  0.0827  0.0717
  595loPI   C1B 9517   2.995   2.078   8.538 -0.1213 -0.0269 -0.0181
  595loPI   C2B 9518   3.279   2.016   8.196 -0.1625 -0.2600  0.0280
  595loPI   C3B 9519   3.363   2.088   7.760 -0.1744  0.2428 -0.1300
  595loPI   C4B 9520   3.451   2.219   7.332  0.0190  0.0441  0.0854
  596loPI    C1 9521  13.010   9.851   9.923  0.1110  0.0790 -0.0327
  596loPI    C2 9522  12.672  10.059   9.874  0.0421 -0.0140  0.0431
  596loPI    C3 9523  12.934  10.166  10.157  0.0820  0.0654 -0.0236
  596loPI   PO4 9524  13.158   9.834   9.648 -0.1467  0.1977 -0.0930
  596loPI   GL1 9525  13.241   9.822   9.161 -0.2582 -0.0997 -0.4659
  596loPI   GL2 9526  13.206  10.111   9.269 -0.3279 -0.0208 -0.0355
  596loPI   C1A 9527  12.887   9.851   8.842 -0.0447  0.0153 -0.1457
  596loPI   C2A 9528  12.778   9.784   8.372 -0.1074  0.0043 -0.2297
  596loPI   C3A 9529  12.695   9.582   8.091  0.1640  0.1422 -0.0308
  596loPI   C4A 9530  12.900   9.503   7.633  0.0116 -0.0049  0.0989
  596loPI   C5A 9531  13.153   9.491   7.286  0.1252 -0.3510 -0.3389
  596loPI   C6A 9532  13.468   9.279   7.215 -0.2959  0.1698  0.0418
  596loPI   C1B 9533  13.144  10.301   8.921  0.2014  0.0524  0.0822
  596loPI   C2B 9534  13.043  10.232   8.548  0.0516 -0.0483  0.2271
  596loPI   C3B 9535  13.059  10.107   8.105  0.0244  0.4744  0.1846
  596loPI   C4B 9536  13.063   9.873   7.866  0.3129 -0.1500 -0.3577
  597loPI    C1 9537   2.169   0.160   9.610 -0.0262 -0.0045  0.0177
  597loPI    C2 9538   2.262  -0.089   9.909 -0.0154 -0.0061  0.0130
  597loPI    C3 9539   2.482   0.239   9.846  0.0783 -0.0883 -0.0916
  597loPI   PO4 9540   2.061  -0.126   9.410  0.0711  0.0349 -0.1467
  597loPI   GL1 9541   1.854  -0.096   8.988  0.0359 -0.0735  0.0472
  597loPI   GL2 9542   1.816   0.205   8.987  0.2906 -0.0376 -0.3100
  597loPI   C1A 9543   2.127  -0.164   8.609  0.1035 -0.0923 -0.0151
  597loPI   C2A 9544   2.229   0.158   8.285 -0.0852 -0.0699  0.2713
  597loPI   C3A 9545   2.181   0.551   8.190 -0.1473  0.0381  0.2755
  597loPI   C4A 9546   1.990   0.757   7.747  0.0281  0.0907 -0.1765
  597loPI   C5A 9547   1.804   0.757   7.357  0.2659  0.3695 -0.2330
  597loPI   C6A 9548   1.528   0.976   7.098  0.2491 -0.1313 -0.2661
  597loPI   C1B 9549   2.096   0.394   8.675  0.0193 -0.3202  0.0344
  597loPI   C2B 9550   2.576   0.404   8.642  0.0025 -0.0164  0.2898
  597loPI   C3B 9551   2.967   0.467   8.549 -0.0102  0.3930  0.1959
  597loPI   C4B 9552   3.201   0.750   8.235  0.2355  0.1532  0.1715
  598loPI    C1 9553   6.288  14.454  10.080 -0.0477 -0.1352  0.0594
  598loPI    C2 9554   6.051  14.351  10.386  0.1275 -0.4095  0.1061
  598loPI    C3 9555   6.446  14.391  10.442  0.1071 -0.0295  0.0115
  598loPI   PO4 9556   6.231  14.676   9.888  0.0359  0.2049 -0.2617
  598loPI   GL1 9557   6.500  14.524   9.495 -0.0351 -0.3876  0.4216
  598loPI   GL2 9558   6.284  14.802   9.409  0.3210  0.4320 -0.2977
  598loPI   C1A 9559   6.474  14.291   9.029 -0.2040  0.2233  0.0979
  598loPI   C2A 9560   6.316  14.257   8.626  0.2078  0.2417  0.0343
  598loPI   C3A 9561   6.369  14.116   8.142  0.0661 -0.2294  0.3232
  598loPI   C4A 9562   6.446  14.262   7.803 -0.0462  0.1052  0.0020
  598loPI   C5A 9563   6.434  14.487   7.478  0.0688 -0.3448  0.5386
  598loPI   C6A 9564   6.697  14.794   7.277 -0.2444  0.2512 -0.1301
  598loPI   C1B 9565   6.371  14.749   8.911 -0.0228  0.1779 -0.2160
  598loPI   C2B 9566   6.434  14.713   8.470  0.1745  0.3003  0.0175
  598loPI   C3B 9567   6.416  14.835   7.946 -0.0243  0.0396 -0.3395
  598loPI   C4B 9568   6.556  15.139   7.643 -0.2110  0.1278  0.1223
  599loPI    C1 9569   7.396   3.972   9.823 -0.0564  0.0451 -0.0626
  599loPI    C2 9570   7.154   3.679   9.701  0.2301 -0.2307  0.0168
  599loPI    C3 9571   7.156   3.789  10.085  0.0055 -0.0081 -0.0428
  599loPI   PO4 9572   7.370   4.239   9.664 -0.2795 -0.1893  0.0501
  599loPI   GL1 9573   7.561   4.360   9.217  0.0702  0.1843  0.1839
  599loPI   GL2 9574   7.266   4.240   9.039  0.1380 -0.3156 -0.0468
  599loPI   C1A 9575   7.773   4.558   8.893  0.2864  0.1874 -0.2713
  599loPI   C2A 9576   7.792   4.445   8.395 -0.1410 -0.3667 -0.0992
  599loPI   C3A 9577   7.916   4.510   7.938 -0.2820 -0.0449 -0.0794
  599loPI   C4A 9578   7.873   4.359   7.587 -0.0433 -0.1328  0.3586
  599loPI   C5A 9579   7.993   4.284   7.103  0.0681  0.1979 -0.1721
  599loPI   C6A 9580   7.947   4.085   6.734 -0.1913 -0.0439 -0.0918
  599loPI   C1B 9581   7.256   4.627   8.827  0.1735 -0.2551  0.0285
  599loPI   C2B 9582   7.115   4.815   8.439  0.2260 -0.0943  0.1415
  599loPI   C3B 9583   7.053   4.633   8.124  0.0545  0.0387 -0.2994
  599loPI   C4B 9584   6.875   4.644   7.766 -0.2428  0.2006  0.1188
  600loPI    C1 9585  13.294  14.753   9.984 -0.0478  0.2084 -0.0401
  600loPI    C2 9586  13.057  14.765  10.306 -0.1433  0.0004 -0.1009
  600loPI    C3 9587  13.454  14.768  10.350 -0.1534 -0.2814  0.0339
  600loPI   PO4 9588  13.156  14.925   9.825 -0.0826  0.1457  0.3230
  600loPI   GL1 9589  13.093  14.882   9.340 -0.0668 -0.1894 -0.1112
  600loPI   GL2 9590  12.956  15.062   9.216 -0.1486  0.2778 -0.0394
  600loPI   C1A 9591  13.052  14.586   9.028 -0.2338  0.3195 -0.2286
  600loPI   C2A 9592  13.023  14.580   8.573  0.0302 -0.1575  0.3737
  600loPI   C3A 9593  12.903  14.722   8.191  0.1704  0.1454  0.1310
  600loPI   C4A 9594  12.879  14.770   7.737 -0.0972  0.2464  0.0890
  600loPI   C5A 9595  13.033  14.679   7.414 -0.1872  0.0891  0.1351
  600loPI   C6A 9596  13.342  14.841   7.206 -0.0679 -0.1188 -0.1667
  600loPI   C1B 9597  13.127  15.082   8.828  0.1945 -0.0614 -0.0372
  600loPI   C2B 9598  13.061  15.135   8.398 -0.0998  0.1832  0.1848
  600loPI   C3B 9599  13.210  15.058   7.991  0.1820 -0.1693  0.1233
  600loPI   C4B 9600  13.274  15.230   7.564  0.1153 -0.0332 -0.0033
  601loPI    C1 9601   6.793   6.380  10.116  0.0090 -0.4703 -0.1451
  601loPI    C2 9602   7.174   6.502  10.101 -0.1394  0.0029 -0.2388
  601loPI    C3 9603   7.076   6.176  10.311  0.3114 -0.1107 -0.1956
  601loPI   PO4 9604   6.704   6.445   9.905 -0.3706  0.0295  0.0894
  601loPI   GL1 9605   6.632   6.450   9.473 -0.3515 -0.0964  0.2120
  601loPI   GL2 9606   6.469   6.740   9.487  0.1236  0.0494 -0.2813
  601loPI   C1A 9607   6.556   6.318   9.097 -0.0542 -0.0924 -0.0328
  601loPI   C2A 9608   6.764   6.568   8.668 -0.3038  0.0101  0.0846
  601loPI   C3A 9609   6.754   6.504   8.412  0.2246 -0.0247 -0.0026
  601loPI   C4A 9610   6.686   6.599   7.935  0.2819  0.1279  0.0760
  601loPI   C5A 9611   6.599   6.737   7.545 -0.0909  0.0205  0.0916
  601loPI   C6A 9612   6.330   6.786   7.251 -0.1037 -0.3075 -0.2439
  601loPI   C1B 9613   6.719   6.826   9.159  0.0346  0.0572 -0.0375
  601loPI   C2B 9614   6.870   7.142   8.827  0.2172  0.0815  0.3120
  601loPI   C3B 9615   6.868   7.021   8.441 -0.0386  0.1099 -0.2704
  601loPI   C4B 9616   6.837   7.064   7.988  0.1376  0.2687 -0.0018
  602loPI    C1 9617   1.962  14.468  10.077 -0.0420 -0.0079 -0.0856
  602loPI    C2 9618   2.340  14.521  10.194 -0.0702 -0.0502  0.0269
  602loPI    C3 9619   2.090  14.833  10.178 -0.0809 -0.0527  0.1328
  602loPI   PO4 9620   1.983  14.363   9.698  0.0187 -0.1717  0.0502
  602loPI   GL1 9621   2.064  14.457   9.345  0.1668  0.3015 -0.0469
  602loPI   GL2 9622   1.907  14.669   9.187  0.0525 -0.2566  0.0922
  602loPI   C1A 9623   2.395  14.501   9.096  0.3388 -0.0483  0.1916
  602loPI   C2A 9624   2.407  14.532   8.616 -0.0299  0.0688 -0.2980
  602loPI   C3A 9625   2.513  14.503   8.145  0.1768  0.0144  0.1218
  602loPI   C4A 9626   2.568  14.425   7.668  0.1398 -0.0142 -0.3220
  602loPI   C5A 9627   2.740  14.325   7.213  0.0904  0.0285 -0.0047
  602loPI   C6A 9628   2.706  14.137   6.862 -0.2799 -0.0554  0.0574
  602loPI   C1B 9629   1.791  14.670   8.842 -0.0488  0.0355 -0.4290
  602loPI   C2B 9630   1.799  14.538   8.466  0.2804 -0.0955  0.0985
  602loPI   C3B 9631   2.011  14.524   8.136 -0.3264  0.0914 -0.1220
  602loPI   C4B 9632   2.068  14.337   7.718 -0.0180  0.0532  0.0496
  603loPI    C1 9633   4.162   8.246  10.068  0.0534  0.1641  0.0963
  603loPI    C2 9634   3.980   8.309  10.419 -0.0989 -0.1949  0.0857
  603loPI    C3 9635   4.334   8.124  10.409  0.1326  0.2381  0.0830
  603loPI   PO4 9636   4.026   8.122   9.944 -0.0216  0.1933  0.0145
  603loPI   GL1 9637   4.053   8.018   9.530  0.3103 -0.2329 -0.1848
  603loPI   GL2 9638   3.818   8.227   9.456 -0.2818  0.2970  0.0661
  603loPI   C1A 9639   4.064   8.066   9.064 -0.0260 -0.5986  0.0041
  603loPI   C2A 9640   4.158   8.124   8.642  0.2988  0.0873 -0.0817
  603loPI   C3A 9641   4.156   8.367   8.190  0.1058 -0.1077  0.0161
  603loPI   C4A 9642   4.072   8.788   7.874  0.0142 -0.1292  0.2979
  603loPI   C5A 9643   4.104   8.972   7.536 -0.1162  0.0964  0.1994
  603loPI   C6A 9644   3.892   9.178   7.161 -0.2213  0.1774 -0.1169
  603loPI   C1B 9645   3.875   8.493   9.020  0.0912 -0.0738 -0.1034
  603loPI   C2B 9646   3.945   8.593   8.591  0.4598 -0.1512 -0.1982
  603loPI   C3B 9647   3.666   8.589   8.223  0.0508 -0.2806 -0.1141
  603loPI   C4B 9648   3.233   8.443   8.170  0.3836  0.0440 -0.0512
  604loPI    C1 9649   1.222  10.436  10.346 -0.2017 -0.1251 -0.2665
  604loPI    C2 9650   0.830  10.370  10.388 -0.2138  0.0795 -0.0361
  604loPI    C3 9651   1.012  10.644  10.616  0.0516  0.0312 -0.1864
  604loPI   PO4 9652   1.255  10.377  10.079 -0.1915  0.0773  0.0382
  604loPI   GL1 9653   1.492  10.346   9.583 -0.2356  0.3296 -0.2094
  604loPI   GL2 9654   1.763  10.197   9.498 -0.0979  0.0303  0.3024
  604loPI   C1A 9655   1.308  10.231   9.272 -0.3462 -0.0439 -0.1282
  604loPI   C2A 9656   1.283  10.295   8.886 -0.1506 -0.0767  0.2279
  604loPI   C3A 9657   1.075  10.305   8.530 -0.0980  0.0499  0.2785
  604loPI   C4A 9658   1.070  10.132   8.077 -0.1407 -0.3346 -0.0796
  604loPI   C5A 9659   1.114   9.997   7.679 -0.1652  0.1043  0.1700
  604loPI   C6A 9660   1.412  10.010   7.409 -0.1659 -0.1288  0.1044
  604loPI   C1B 9661   1.739   9.993   9.071 -0.1013 -0.0143 -0.0622
  604loPI   C2B 9662   1.740   9.670   8.852 -0.1909 -0.0747  0.0654
  604loPI   C3B 9663   1.675   9.597   8.486 -0.0493 -0.1884  0.2664
  604loPI   C4B 9664   1.443   9.877   8.190 -0.2207  0.0570  0.3115
  605loPI    C1 9665  10.310   0.659   9.878  0.2706  0.3438  0.0355
  605loPI    C2 9666  10.094   0.968  10.014 -0.0410  0.0831  0.1474
  605loPI    C3 9667   9.939   0.599  10.016  0.3726 -0.0966  0.1332
  605loPI   PO4 9668  10.359   0.732   9.534 -0.2396  0.2243  0.1775
  605loPI   GL1 9669  10.117   0.777   9.188 -0.2782 -0.0402  0.1174
  605loPI   GL2 9670  10.214   1.105   9.063 -0.1628 -0.1610  0.1580
  605loPI   C1A 9671  10.121   0.702   8.805 -0.2894 -0.0343  0.1067
  605loPI   C2A 9672  10.341   0.668   8.425 -0.0384  0.2115 -0.0335
  605loPI   C3A 9673  10.264   0.684   7.939  0.3219  0.0965  0.1785
  605loPI   C4A 9674  10.520   0.647   7.654 -0.0683  0.0741  0.3899
  605loPI   C5A 9675  10.841   0.668   7.331  0.2088 -0.0009 -0.1515
  605loPI   C6A 9676  10.955   0.569   6.862  0.0596  0.3120 -0.0022
  605loPI   C1B 9677  10.172   1.125   8.619  0.1989 -0.0279 -0.1693
  605loPI   C2B 9678  10.167   1.172   8.162 -0.1698  0.1202 -0.3523
  605loPI   C3B 9679  10.232   1.118   7.697 -0.1487 -0.2480 -0.0232
  605loPI   C4B 9680  10.136   0.982   7.291  0.0768  0.1207 -0.1623
  606loPI    C1 9681   5.830  17.478   9.650  0.1030 -0.3337  0.0509
  606loPI    C2 9682   5.681  17.113   9.587 -0.0711 -0.2629  0.0466
  606loPI    C3 9683   5.610  17.300   9.933  0.0969 -0.2707  0.0861
  606loPI   PO4 9684   6.067  17.495   9.635 -0.0366 -0.0497  0.4138
  606loPI   GL1 9685   6.252  17.395   9.225  0.0187  0.1414  0.3919
  606loPI   GL2 9686   6.150  17.110   9.038 -0.0146  0.1152 -0.1905
  606loPI   C1A 9687   6.408  17.504   8.691  0.1963  0.0612 -0.1002
  606loPI   C2A 9688   6.219  17.694   8.448 -0.4746 -0.2761  0.1749
  606loPI   C3A 9689   5.992  17.749   8.012 -0.2763  0.0323  0.1693
  606loPI   C4A 9690   5.970  17.925   7.676 -0.1570 -0.0125  0.3321
  606loPI   C5A 9691   5.903  18.235   7.340  0.3055  0.3403 -0.1287
  606loPI   C6A 9692   5.914  18.517   7.061 -0.1715 -0.0896  0.0291
  606loPI   C1B 9693   6.014  17.245   8.676  0.0092 -0.3240  0.3060
  606loPI   C2B 9694   5.718  17.381   8.479 -0.2731  0.2693 -0.2761
  606loPI   C3B 9695   5.619  17.362   7.989 -0.0101  0.0710 -0.1962
  606loPI   C4B 9696   5.723  17.513   7.610  0.1237 -0.1313 -0.0100
  607loPI    C1 9697  13.940   3.375   9.455  0.0328 -0.2361 -0.0219
  607loPI    C2 9698  13.596   3.181   9.517 -0.1316  0.0711  0.0447
  607loPI    C3 9699  13.827   3.283   9.827  0.0197 -0.1309  0.0004
  607loPI   PO4 9700  13.857   3.484   9.247  0.3728  0.0529  0.1365
  607loPI   GL1 9701  13.765   3.707   8.877  0.2270  0.0494 -0.2911
  607loPI   GL2 9702  13.537   3.890   8.811  0.1581 -0.0088  0.0241
  607loPI   C1A 9703  13.980   3.733   8.499  0.2520  0.2445  0.0361
  607loPI   C2A 9704  14.111   3.591   8.033 -0.1300 -0.3778  0.0787
  607loPI   C3A 9705  14.110   3.743   7.635 -0.0034  0.1356 -0.0547
  607loPI   C4A 9706  13.987   3.570   7.190  0.1536  0.2622  0.0232
  607loPI   C5A 9707  13.648   3.451   6.857 -0.0710  0.0342 -0.1312
  607loPI   C6A 9708  13.433   3.652   6.519 -0.0408 -0.0357 -0.0617
  607loPI   C1B 9709  13.547   3.966   8.451 -0.0396  0.0224 -0.0053
  607loPI   C2B 9710  13.640   3.714   8.038 -0.1691  0.2173  0.2305
  607loPI   C3B 9711  13.617   3.567   7.571  0.3902  0.0025  0.1200
  607loPI   C4B 9712  13.516   3.252   7.282 -0.3256 -0.0327 -0.2869
  608loPI    C1 9713  12.559   3.868   9.154 -0.0192 -0.1392  0.0780
  608loPI    C2 9714  12.958   3.853   9.129 -0.0496 -0.4757 -0.3174
  608loPI    C3 9715  12.773   3.717   9.457  0.1664 -0.0846 -0.0244
  608loPI   PO4 9716  12.450   4.034   9.122  0.0284 -0.1681 -0.3162
  608loPI   GL1 9717  12.189   4.227   8.815 -0.0390 -0.4496 -0.0746
  608loPI   GL2 9718  12.494   4.096   8.617  0.1159 -0.1188 -0.0395
  608loPI   C1A 9719  12.153   4.350   8.356 -0.0392 -0.0539  0.0105
  608loPI   C2A 9720  12.264   4.453   7.984  0.0116 -0.1241 -0.0521
  608loPI   C3A 9721  12.367   4.724   7.603 -0.0062  0.3149 -0.2552
  608loPI   C4A 9722  12.370   4.881   7.221  0.0586  0.1840 -0.2172
  608loPI   C5A 9723  12.176   5.192   7.065  0.5639  0.0017  0.3633
  608loPI   C6A 9724  12.030   5.505   7.128 -0.2793  0.1084 -0.0116
  608loPI   C1B 9725  12.559   4.066   8.174  0.1294 -0.1595  0.1770
  608loPI   C2B 9726  12.781   3.937   7.834  0.1241  0.0539 -0.3354
  608loPI   C3B 9727  12.708   3.741   7.404  0.1608  0.0670 -0.0806
  608loPI   C4B 9728  12.689   3.305   7.245 -0.1058 -0.2629 -0.0491
  609loPI    C1 9729   9.613  19.192   9.758  0.1487  0.2321  0.2076
  609loPI    C2 9730   9.974  19.200   9.586  0.1538 -0.1333  0.1923
  609loPI    C3 9731   9.928  19.334   9.960  0.2927 -0.0353  0.1752
  609loPI   PO4 9732   9.390  19.307   9.597  0.0971 -0.0639 -0.4492
  609loPI   GL1 9733   9.119  19.509   9.382  0.0642 -0.1176 -0.0934
  609loPI   GL2 9734   9.365  19.711   9.343 -0.0780  0.1906 -0.1293
  609loPI   C1A 9735   9.117  19.517   8.925 -0.3091  0.0251 -0.0393
  609loPI   C2A 9736   9.028  19.965   8.644  0.0345  0.1417 -0.0497
  609loPI   C3A 9737   8.959  19.905   8.190  0.2397  0.0922  0.0274
  609loPI   C4A 9738   8.761  20.003   7.855  0.2515 -0.0421  0.3598
  609loPI   C5A 9739   8.544  20.245   7.582  0.1128  0.2064 -0.0254
  609loPI   C6A 9740   8.572  20.369   7.132 -0.2503 -0.0787  0.1503
  609loPI   C1B 9741   9.447  19.887   8.947  0.1469  0.0888  0.2718
  609loPI   C2B 9742   9.768  19.727   8.562  0.1539 -0.1863  0.1897
  609loPI   C3B 9743   9.970  19.795   8.233 -0.1169 -0.0294 -0.1244
  609loPI   C4B 9744  10.058  19.640   7.872  0.1707  0.1491  0.0826
  610loPI    C1 9745  15.141   3.883   9.517 -0.1687  0.2050 -0.3522
  610loPI    C2 9746  15.486   3.690   9.457 -0.1064  0.1620  0.1090
  610loPI    C3 9747  15.139   3.493   9.428 -0.0747  0.1220 -0.0058
  610loPI   PO4 9748  15.127   4.082   9.362  0.1546  0.3225 -0.2305
  610loPI   GL1 9749  15.253   3.928   8.980 -0.1830 -0.0025  0.0149
  610loPI   GL2 9750  15.291   3.738   9.004 -0.5713 -0.0141  0.0958
  610loPI   C1A 9751  15.449   3.903   8.495  0.1461 -0.3107 -0.2022
  610loPI   C2A 9752  15.792   4.047   8.234 -0.1964 -0.1089  0.0832
  610loPI   C3A 9753  16.063   4.139   7.862 -0.2407  0.0074 -0.1290
  610loPI   C4A 9754  16.007   4.056   7.409  0.0464  0.0534  0.2944
  610loPI   C5A 9755  16.181   4.114   6.964 -0.0177  0.2876  0.2394
  610loPI   C6A 9756  16.099   4.155   6.557  0.0991  0.1165 -0.2064
  610loPI   C1B 9757  15.119   3.526   8.561 -0.2531  0.0640  0.3603
  610loPI   C2B 9758  14.878   3.423   8.231  0.0578 -0.0650 -0.2046
  610loPI   C3B 9759  14.638   3.676   8.000  0.0344 -0.2823  0.0179
  610loPI   C4B 9760  14.604   3.885   7.693 -0.1219 -0.1505  0.0839
  611loPI    C1 9761   0.931  17.276   9.839  0.0905  0.0121 -0.0038
  611loPI    C2 9762   1.125  17.245  10.187  0.1356 -0.1022 -0.0386
  611loPI    C3 9763   1.310  17.149   9.846  0.0531 -0.1054 -0.0825
  611loPI   PO4 9764   0.817  17.450   9.787  0.2076 -0.1608 -0.1117
  611loPI   GL1 9765   0.799  17.557   9.367  0.1135 -0.3894  0.0836
  611loPI   GL2 9766   0.975  17.464   9.086  0.0347  0.1146  0.1541
  611loPI   C1A 9767   0.572  17.696   8.932 -0.0740  0.4018 -0.0014
  611loPI   C2A 9768   0.705  17.505   8.435  0.2254 -0.3154 -0.0899
  611loPI   C3A 9769   0.525  17.268   8.155 -0.1206  0.2206 -0.1520
  611loPI   C4A 9770   0.314  17.484   7.775  0.1472  0.1871  0.0101
  611loPI   C5A 9771   0.316  17.566   7.321  0.3301 -0.1424  0.1557
  611loPI   C6A 9772   0.240  17.670   6.864 -0.1597  0.1279  0.4381
  611loPI   C1B 9773   0.789  17.157   8.911  0.0124 -0.1962  0.2149
  611loPI   C2B 9774   0.381  17.212   8.698  0.0116 -0.1085 -0.0420
  611loPI   C3B 9775   0.183  16.935   8.373 -0.1373  0.0075 -0.0868
  611loPI   C4B 9776   0.105  16.641   8.026  0.1007 -0.0951  0.1768
  612loPI    C1 9777  16.282   7.339   9.908 -0.2742 -0.0462 -0.0247
  612loPI    C2 9778  16.334   7.004  10.119 -0.0963 -0.0676 -0.1001
  612loPI    C3 9779  16.386   7.360  10.293 -0.2278 -0.0792 -0.0354
  612loPI   PO4 9780  16.127   7.212   9.695 -0.0987  0.1305  0.1633
  612loPI   GL1 9781  16.076   7.335   9.160 -0.3278 -0.2202  0.0590
  612loPI   GL2 9782  15.755   7.453   9.287  0.0016  0.0597  0.3306
  612loPI   C1A 9783  16.112   7.449   8.898 -0.0054 -0.0665 -0.2161
  612loPI   C2A 9784  15.946   7.396   8.449  0.1583  0.3668 -0.0823
  612loPI   C3A 9785  15.972   7.447   8.027 -0.0852 -0.0912  0.0549
  612loPI   C4A 9786  15.924   7.323   7.539  0.0977  0.2650 -0.1136
  612loPI   C5A 9787  15.866   7.004   7.175  0.2928 -0.0665 -0.2711
  612loPI   C6A 9788  16.233   6.771   7.008 -0.1335  0.0613  0.2469
  612loPI   C1B 9789  15.611   7.387   8.801 -0.1451 -0.1033 -0.2831
  612loPI   C2B 9790  15.504   7.115   8.392 -0.0528  0.0511  0.3546
  612loPI   C3B 9791  15.459   7.064   7.959  0.3456 -0.1166  0.1020
  612loPI   C4B 9792  15.467   7.000   7.520  0.0747 -0.2045  0.2025
  613loPI    C1 9793   2.515   4.027   9.758 -0.0578 -0.1251  0.0598
  613loPI    C2 9794   2.158   3.927   9.910  0.0190 -0.1078  0.2548
  613loPI    C3 9795   2.340   4.263  10.030 -0.1306  0.1550 -0.2237
  613loPI   PO4 9796   2.468   3.947   9.489  0.2314 -0.0598 -0.0923
  613loPI   GL1 9797   2.293   3.898   9.147 -0.1562  0.2545 -0.0242
  613loPI   GL2 9798   2.348   3.589   9.137  0.0603  0.1241  0.1745
  613loPI   C1A 9799   2.152   3.926   8.672 -0.1525 -0.1517  0.0428
  613loPI   C2A 9800   2.005   4.127   8.197  0.0150 -0.2386  0.2301
  613loPI   C3A 9801   1.840   3.907   7.809  0.2791  0.3190 -0.1098
  613loPI   C4A 9802   2.037   3.641   7.566 -0.0674  0.0778  0.0722
  613loPI   C5A 9803   2.495   3.491   7.412  0.0943 -0.1961  0.2169
  613loPI   C6A 9804   2.824   3.158   7.376 -0.0119 -0.0448  0.0105
  613loPI   C1B 9805   2.575   3.453   8.796  0.1040 -0.0339  0.1434
  613loPI   C2B 9806   2.651   3.301   8.340  0.1902  0.1584 -0.1542
  613loPI   C3B 9807   2.547   3.317   7.902  0.3774 -0.0458 -0.0956
  613loPI   C4B 9808   2.462   3.022   7.658  0.0231 -0.1391 -0.0765
  614loPI    C1 9809   3.123   8.103  10.150  0.3918 -0.1326 -0.0312
  614loPI    C2 9810   3.484   7.966  10.254  0.1905 -0.5606  0.1277
  614loPI    C3 9811   3.323   8.274  10.451  0.3940 -0.4788  0.1691
  614loPI   PO4 9812   3.130   8.090   9.903  0.0544 -0.1109  0.1221
  614loPI   GL1 9813   3.259   8.308   9.546 -0.1540 -0.1706 -0.0236
  614loPI   GL2 9814   2.959   8.469   9.516 -0.3570 -0.1197  0.0116
  614loPI   C1A 9815   3.420   8.121   9.217  0.1197 -0.1414  0.1094
  614loPI   C2A 9816   3.243   7.951   8.802 -0.0425 -0.1428  0.3361
  614loPI   C3A 9817   3.204   7.811   8.327 -0.0122  0.1033 -0.1006
  614loPI   C4A 9818   3.410   7.846   7.947  0.3280  0.2375 -0.0575
  614loPI   C5A 9819   3.796   7.889   7.646 -0.2844 -0.1509 -0.1683
  614loPI   C6A 9820   4.224   7.871   7.793  0.1635 -0.1177 -0.2541
  614loPI   C1B 9821   3.004   8.375   9.046 -0.1323  0.0701  0.2663
  614loPI   C2B 9822   2.863   8.338   8.618  0.0772 -0.1724  0.0573
  614loPI   C3B 9823   2.816   8.139   8.310  0.2330 -0.0912  0.3998
  614loPI   C4B 9824   2.849   7.956   7.880 -0.0989 -0.1980 -0.0427
  615loPI    C1 9825   6.009   3.050   9.829  0.0668  0.0356  0.2308
  615loPI    C2 9826   5.633   3.058   9.963 -0.0481 -0.2260 -0.0615
  615loPI    C3 9827   5.909   2.842  10.156  0.0315  0.2074  0.3305
  615loPI   PO4 9828   6.047   2.968   9.632  0.3433  0.4015  0.0431
  615loPI   GL1 9829   6.084   2.804   9.100  0.0793  0.0559 -0.0450
  615loPI   GL2 9830   5.822   2.612   8.855 -0.0821  0.1278 -0.0710
  615loPI   C1A 9831   6.341   2.968   8.839  0.1361  0.0313  0.3256
  615loPI   C2A 9832   6.397   3.237   8.466  0.0871  0.1385  0.3532
  615loPI   C3A 9833   6.368   3.094   7.995 -0.0268 -0.2958 -0.0754
  615loPI   C4A 9834   6.641   3.193   7.652 -0.3207  0.0560 -0.1272
  615loPI   C5A 9835   6.991   3.447   7.385 -0.2177  0.2085  0.0253
  615loPI   C6A 9836   7.273   3.503   6.965  0.0463  0.2480  0.0631
  615loPI   C1B 9837   6.142   2.604   8.589  0.1849  0.1804  0.1865
  615loPI   C2B 9838   5.981   2.587   8.130 -0.2191  0.2021 -0.0097
  615loPI   C3B 9839   5.989   2.544   7.726  0.0462 -0.0406  0.3217
  615loPI   C4B 9840   6.075   2.583   7.254  0.1540  0.1224 -0.0659
  616loPI    C1 9841   2.030  18.236   9.505  0.0382  0.1761  0.0769
  616loPI    C2 9842   2.021  17.988   9.818  0.0323 -0.1357 -0.1649
  616loPI    C3 9843   2.196  18.346   9.852 -0.3055 -0.0044  0.3041
  616loPI   PO4 9844   1.750  18.240   9.499  0.3069 -0.1070 -0.1716
  616loPI   GL1 9845   1.545  18.288   9.090 -0.2123  0.0156 -0.0914
  616loPI   GL2 9846   1.260  18.387   8.898 -0.0696 -0.0083 -0.1402
  616loPI   C1A 9847   1.627  18.539   8.616 -0.0979 -0.0152 -0.0696
  616loPI   C2A 9848   1.890  18.687   8.334 -0.1212  0.0344 -0.1691
  616loPI   C3A 9849   1.972  18.604   7.889  0.3621 -0.1217  0.0076
  616loPI   C4A 9850   2.299  18.752   7.620  0.1400 -0.0874  0.2071
  616loPI   C5A 9851   2.159  19.006   7.243 -0.1237 -0.1151  0.0432
  616loPI   C6A 9852   1.900  19.203   6.910 -0.0742  0.2773 -0.3820
  616loPI   C1B 9853   1.413  18.103   8.471 -0.4742 -0.2300 -0.1404
  616loPI   C2B 9854   1.400  17.906   8.071 -0.2799  0.1285  0.0459
  616loPI   C3B 9855   1.605  18.041   7.639 -0.0027  0.2897  0.0490
  616loPI   C4B 9856   1.486  18.548   7.532 -0.2030  0.2216  0.2631
  617loPI    C1 9857  13.380  19.524   9.479  0.0825  0.0878  0.1090
  617loPI    C2 9858  13.067  19.279   9.522  0.1261  0.0067 -0.0287
  617loPI    C3 9859  13.038  19.662   9.635 -0.0090 -0.0104 -0.0032
  617loPI   PO4 9860  13.431  19.414   9.185  0.2460  0.0753  0.0685
  617loPI   GL1 9861  13.340  19.416   8.822 -0.0269 -0.0517  0.1167
  617loPI   GL2 9862  13.109  19.635   8.687 -0.0309  0.3942 -0.1050
  617loPI   C1A 9863  13.515  19.582   8.481  0.0774 -0.1036 -0.1053
  617loPI   C2A 9864  13.477  19.454   7.985 -0.0539 -0.0670 -0.0449
  617loPI   C3A 9865  13.380  19.499   7.546  0.4102 -0.0881  0.1520
  617loPI   C4A 9866  13.557  19.405   7.108  0.0549 -0.2401 -0.0932
  617loPI   C5A 9867  13.311  19.362   6.749  0.3669 -0.0088 -0.2197
  617loPI   C6A 9868  12.900  19.435   6.764  0.0504  0.0547 -0.0574
  617loPI   C1B 9869  13.093  19.457   8.281  0.1048  0.1475 -0.1040
  617loPI   C2B 9870  13.002  19.615   7.819  0.0410  0.1536  0.1680
  617loPI   C3B 9871  12.783  19.896   7.579 -0.2036 -0.2209 -0.0510
  617loPI   C4B 9872  12.740  20.156   7.265 -0.2329  0.0729 -0.1088
  618loPI    C1 9873   2.253  12.218   9.764  0.0185  0.2022  0.0895
  618loPI    C2 9874   2.106  12.048  10.094  0.1437 -0.3482 -0.1272
  618loPI    C3 9875   1.864  12.255   9.852  0.0469  0.0418  0.2882
  618loPI   PO4 9876   2.370  12.082   9.658 -0.0907 -0.2164  0.3846
  618loPI   GL1 9877   2.627  11.927   9.362  0.2530  0.0189 -0.2921
  618loPI   GL2 9878   2.856  11.904   9.097 -0.1783  0.1601  0.0240
  618loPI   C1A 9879   2.403  12.079   8.969  0.0061  0.2951 -0.0197
  618loPI   C2A 9880   2.044  12.140   8.587 -0.4512 -0.0943 -0.2751
  618loPI   C3A 9881   1.848  12.075   8.315  0.2940  0.0422 -0.0796
  618loPI   C4A 9882   1.669  11.877   7.953  0.3778  0.1219 -0.0971
  618loPI   C5A 9883   1.643  11.708   7.523  0.0739  0.0139 -0.2968
  618loPI   C6A 9884   1.833  11.628   7.223  0.2139 -0.1212 -0.3321
  618loPI   C1B 9885   2.854  12.163   8.750  0.0691  0.1097  0.0492
  618loPI   C2B 9886   2.971  12.145   8.299 -0.1466 -0.0223  0.0004
  618loPI   C3B 9887   2.991  12.320   7.858 -0.4077  0.1000  0.1324
  618loPI   C4B 9888   2.782  12.022   7.421  0.3725 -0.2403 -0.0155
  619loPI    C1 9889  13.957   1.933   8.829 -0.0985  0.3255  0.0019
  619loPI    C2 9890  14.132   2.230   8.626  0.0106  0.1644 -0.1425
  619loPI    C3 9891  14.277   2.117   8.981 -0.1336  0.3951 -0.0081
  619loPI   PO4 9892  13.766   1.917   8.852 -0.0287  0.3201  0.1685
  619loPI   GL1 9893  13.450   1.670   8.558  0.0533  0.2263 -0.1228
  619loPI   GL2 9894  13.100   1.635   8.671 -0.2108 -0.2227  0.0618
  619loPI   C1A 9895  13.608   1.677   8.079  0.1079 -0.3766 -0.1178
  619loPI   C2A 9896  13.888   1.577   7.785  0.3079 -0.1135  0.1733
  619loPI   C3A 9897  14.053   1.172   7.467 -0.0182 -0.1761  0.1435
  619loPI   C4A 9898  13.960   1.077   7.065 -0.0711 -0.0207  0.0980
  619loPI   C5A 9899  14.157   1.347   6.736  0.5136 -0.2189  0.2219
  619loPI   C6A 9900  14.316   1.792   6.594 -0.0082 -0.0765  0.2635
  619loPI   C1B 9901  13.058   1.519   8.214 -0.0531  0.1208  0.1250
  619loPI   C2B 9902  13.210   1.607   7.763 -0.0643 -0.0547  0.2001
  619loPI   C3B 9903  13.462   1.701   7.492 -0.2298  0.0185 -0.0958
  619loPI   C4B 9904  13.517   1.887   7.053 -0.1103 -0.1575  0.2012
  620loPI    C1 9905   5.473   1.801   9.556 -0.0869  0.1696 -0.1116
  620loPI    C2 9906   5.293   1.447   9.510 -0.0581  0.1481 -0.0585
  620loPI    C3 9907   5.354   1.594   9.877  0.3151  0.0091 -0.0605
  620loPI   PO4 9908   5.689   1.784   9.359  0.2749  0.0649  0.1849
  620loPI   GL1 9909   5.601   1.621   8.953 -0.1850  0.1961  0.1085
  620loPI   GL2 9910   5.319   1.632   8.886 -0.0850  0.0898 -0.1507
  620loPI   C1A 9911   5.607   1.553   8.444 -0.1194 -0.2250 -0.0654
  620loPI   C2A 9912   5.714   1.531   8.034 -0.0343  0.0068  0.1533
  620loPI   C3A 9913   5.747   1.587   7.540 -0.0420  0.0439 -0.0942
  620loPI   C4A 9914   5.723   1.401   7.121 -0.1472 -0.2240  0.0475
  620loPI   C5A 9915   5.460   1.463   6.729 -0.3387 -0.0320  0.0441
  620loPI   C6A 9916   5.096   1.502   6.492 -0.1009  0.0275 -0.1383
  620loPI   C1B 9917   5.149   1.628   8.528  0.0430 -0.0714  0.1695
  620loPI   C2B 9918   4.983   1.639   8.110  0.2075 -0.0024 -0.1045
  620loPI   C3B 9919   4.878   1.691   7.676 -0.1662 -0.0662 -0.0092
  620loPI   C4B 9920   4.797   1.680   7.276 -0.2295  0.2567 -0.3209
  621loPI    C1 9921   3.693  17.325   9.437  0.2709  0.0191  0.0254
  621loPI    C2 9922   3.418  17.176   9.686  0.2411 -0.2138 -0.1434
  621loPI    C3 9923   3.687  17.440   9.820  0.0179 -0.0825  0.0539
  621loPI   PO4 9924   3.765  17.059   9.301  0.3473  0.1895 -0.1219
  621loPI   GL1 9925   3.833  17.081   8.919 -0.3341  0.2028  0.2504
  621loPI   GL2 9926   4.046  17.245   8.767 -0.0297  0.1682 -0.3127
  621loPI   C1A 9927   3.953  16.716   8.705 -0.1805  0.1299  0.0649
  621loPI   C2A 9928   3.903  16.489   8.295 -0.3812 -0.2827 -0.1354
  621loPI   C3A 9929   3.942  16.393   7.927  0.1312  0.1990 -0.2202
  621loPI   C4A 9930   3.845  16.432   7.537  0.3088  0.1035 -0.2766
  621loPI   C5A 9931   3.961  16.804   7.274 -0.1468  0.0534 -0.0789
  621loPI   C6A 9932   3.726  17.153   7.195 -0.3081 -0.2076 -0.1996
  621loPI   C1B 9933   3.804  17.369   8.391 -0.4349 -0.2325  0.1297
  621loPI   C2B 9934   3.847  17.509   7.984 -0.3786  0.2554 -0.1430
  621loPI   C3B 9935   3.802  17.529   7.571 -0.1161  0.5808 -0.2633
  621loPI   C4B 9936   3.570  17.700   7.160 -0.1645 -0.3482 -0.3530
  622loPI    C1 9937  13.131   5.004   9.669 -0.0064  0.0447  0.1617
  622loPI    C2 9938  12.993   5.277   9.927  0.3266  0.3167  0.0603
  622loPI    C3 9939  12.983   4.888  10.022 -0.2603  0.3464  0.1588
  622loPI   PO4 9940  13.151   5.140   9.388 -0.1060 -0.0835  0.0333
  622loPI   GL1 9941  13.051   5.259   9.051 -0.0812 -0.1154  0.0926
  622loPI   GL2 9942  12.842   5.417   9.060  0.1924 -0.0557  0.1236
  622loPI   C1A 9943  13.300   5.377   8.722 -0.2356  0.1886  0.1343
  622loPI   C2A 9944  13.411   5.299   8.305  0.5065 -0.0777 -0.1715
  622loPI   C3A 9945  13.404   5.176   7.778  0.0942 -0.0188 -0.3001
  622loPI   C4A 9946  13.286   5.144   7.342  0.0121 -0.1326  0.0783
  622loPI   C5A 9947  12.752   5.207   7.191 -0.1724 -0.1185  0.3263
  622loPI   C6A 9948  12.711   5.482   6.798  0.2712  0.1065 -0.2424
  622loPI   C1B 9949  12.859   5.751   8.784 -0.0815  0.0672  0.0354
  622loPI   C2B 9950  12.744   5.873   8.404  0.0762 -0.0788  0.0756
  622loPI   C3B 9951  12.624   6.244   8.101 -0.2291  0.3698  0.2789
  622loPI   C4B 9952  12.616   6.188   7.716 -0.0606 -0.0893 -0.0398
  623loPI    C1 9953  18.215   7.224   9.948 -0.2636  0.0308  0.1754
  623loPI    C2 9954  18.269   6.956  10.240 -0.3382  0.0051  0.1658
  623loPI    C3 9955  18.471   7.301  10.246 -0.2655 -0.0376  0.1947
  623loPI   PO4 9956  18.034   7.066   9.739 -0.3139  0.2288 -0.5569
  623loPI   GL1 9957  18.045   6.956   9.338  0.0141  0.0316 -0.0812
  623loPI   GL2 9958  18.329   6.724   9.377  0.1005 -0.0847 -0.3690
  623loPI   C1A 9959  17.862   6.717   9.084 -0.1495 -0.1519 -0.0234
  623loPI   C2A 9960  17.741   6.649   8.700  0.0759 -0.2003  0.0970
  623loPI   C3A 9961  17.700   6.556   8.264 -0.1849  0.1296 -0.3140
  623loPI   C4A 9962  17.759   6.334   7.917  0.1960 -0.1384  0.3403
  623loPI   C5A 9963  17.518   6.085   7.588 -0.0968  0.1803 -0.3935
  623loPI   C6A 9964  17.472   5.696   7.342  0.1203  0.2455 -0.0111
  623loPI   C1B 9965  18.481   6.623   8.909  0.0751  0.1462  0.1657
  623loPI   C2B 9966  18.597   6.670   8.480  0.2037 -0.0603  0.1140
  623loPI   C3B 9967  18.692   6.755   8.021 -0.0840  0.1136 -0.2305
  623loPI   C4B 9968  18.791   6.697   7.665  0.1587  0.1090  0.0190
  624loPI    C1 9969   6.301  14.040   9.848  0.0811 -0.0979 -0.0039
  624loPI    C2 9970   6.469  13.967  10.204 -0.2082  0.0061  0.1580
  624loPI    C3 9971   6.081  13.887  10.146 -0.1826  0.0675 -0.1099
  624loPI   PO4 9972   6.567  14.020   9.678  0.1462  0.0679 -0.2293
  624loPI   GL1 9973   6.572  13.842   9.303  0.0577 -0.2670 -0.0261
  624loPI   GL2 9974   6.761  13.543   9.273  0.0485  0.3362 -0.1121
  624loPI   C1A 9975   6.469  13.801   8.747 -0.2106  0.2687 -0.1234
  624loPI   C2A 9976   6.468  13.682   8.323  0.1411  0.1979  0.1185
  624loPI   C3A 9977   6.506  13.758   7.843  0.0458 -0.2304  0.0296
  624loPI   C4A 9978   6.232  13.608   7.446  0.2173 -0.1756 -0.0019
  624loPI   C5A 9979   5.895  13.254   7.368 -0.4704  0.2107  0.2405
  624loPI   C6A 9980   5.734  12.951   7.058  0.0219 -0.1098 -0.0446
  624loPI   C1B 9981   6.996  13.145   9.182  0.2929  0.0172 -0.1206
  624loPI   C2B 9982   7.078  12.987   8.847  0.2154 -0.3579  0.2379
  624loPI   C3B 9983   7.382  12.835   8.564 -0.0139 -0.1633  0.2136
  624loPI   C4B 9984   7.601  12.805   8.269  0.3345  0.0016 -0.2014
  625loPI    C1 9985   8.448  12.221   9.661 -0.4468 -0.2287 -0.2067
  625loPI    C2 9986   8.398  12.301  10.050 -0.3224 -0.1523 -0.2060
  625loPI    C3 9987   8.442  11.923   9.928 -0.0743 -0.1558 -0.1117
  625loPI   PO4 9988   8.272  12.366   9.492 -0.1614  0.1075  0.2064
  625loPI   GL1 9989   8.227  12.186   9.124  0.6224  0.2719 -0.0042
  625loPI   GL2 9990   7.922  12.334   9.191  0.2089  0.2790 -0.1775
  625loPI   C1A 9991   8.205  12.160   8.720  0.0130 -0.0607  0.0133
  625loPI   C2A 9992   8.406  12.104   8.360 -0.0713  0.2708  0.3861
  625loPI   C3A 9993   8.531  11.979   7.998  0.0533 -0.1833  0.0331
  625loPI   C4A 9994   8.264  12.149   7.677  0.2248  0.1464  0.0690
  625loPI   C5A 9995   8.060  12.486   7.436 -0.0197 -0.3531  0.1593
  625loPI   C6A 9996   7.693  12.516   7.224  0.3458  0.3817 -0.1191
  625loPI   C1B 9997   7.686  12.304   8.788 -0.3762  0.0553  0.1322
  625loPI   C2B 9998   7.494  12.277   8.325 -0.1600 -0.0929 -0.1203
  625loPI   C3B 9999   7.359  12.176   7.912 -0.0405 -0.0434 -0.1602
  625loPI   C4B10000   7.496  12.093   7.421 -0.0805 -0.1150 -0.2981
  626loPI    C110001   1.589   0.126   9.402  0.2874  0.3615  0.1217
  626loPI    C210002   1.665   0.232   9.780 -0.1827 -0.2123  0.3935
  626loPI    C310003   1.622  -0.154   9.686  0.0237 -0.0849 -0.2733
  626loPI   PO410004   1.406   0.300   9.286  0.2439 -0.2849  0.1457
  626loPI   GL110005   1.329   0.330   8.803  0.0798  0.0114  0.1160
  626loPI   GL210006   1.097   0.511   8.748 -0.0488  0.2561  0.2899
  626loPI   C1A10007   1.641   0.459   8.484  0.1529 -0.2421  0.0447
  626loPI   C2A10008   1.801   0.241   8.129  0.1220 -0.0016  0.0299
  626loPI   C3A10009   1.726   0.328   7.805  0.0428 -0.1418 -0.1954
  626loPI   C4A10010   1.862   0.172   7.475 -0.1529  0.1075  0.1631
  626loPI   C5A10011   2.123   0.268   7.042  0.1630  0.0364  0.0331
  626loPI   C6A10012   2.016   0.246   6.622  0.0189 -0.3907 -0.1285
  626loPI   C1B10013   1.206   0.230   8.300 -0.0914 -0.2871  0.3896
  626loPI   C2B10014   1.234   0.160   7.798  0.1174  0.2234  0.1121
  626loPI   C3B10015   1.409   0.084   7.374 -0.2135  0.2216 -0.1294
  626loPI   C4B10016   1.298   0.024   6.963  0.0115  0.2047  0.2137
  627loPI    C110017  18.446  16.437   9.906 -0.2694  0.1083  0.0884
  627loPI    C210018  18.665  16.266  10.193  0.0135  0.2051 -0.0661
  627loPI    C310019  18.491  16.619  10.259  0.1801  0.2859 -0.0535
  627loPI   PO410020  18.528  16.363   9.667 -0.2904  0.1229 -0.1216
  627loPI   GL110021  18.609  16.290   9.186 -0.1507  0.1345  0.1192
  627loPI   GL210022  18.869  16.516   8.976  0.2203  0.0570  0.1624
  627loPI   C1A10023  18.543  16.272   8.672  0.0058  0.3234  0.0521
  627loPI   C2A10024  18.538  16.284   8.220 -0.0733  0.0808  0.0108
  627loPI   C3A10025  18.550  16.315   7.753  0.0434  0.0529 -0.3239
  627loPI   C4A10026  18.327  16.180   7.427 -0.3774  0.2634  0.1143
  627loPI   C5A10027  18.041  16.254   7.112  0.0217  0.1049  0.0798
  627loPI   C6A10028  17.737  16.510   6.801  0.1715  0.1291  0.2295
  627loPI   C1B10029  19.108  16.488   8.675 -0.0477 -0.0011  0.0632
  627loPI   C2B10030  19.486  16.324   8.456 -0.1750  0.2421 -0.1990
  627loPI   C3B10031  19.561  16.211   8.015  0.2886 -0.2558 -0.1375
  627loPI   C4B10032  19.864  15.987   7.840 -0.0060  0.0896 -0.1084
  628loPI    C110033   3.640  19.826   9.615  0.0024 -0.1678  0.0856
  628loPI    C210034   3.606  19.509   9.856 -0.2945 -0.0123  0.2531
  628loPI    C310035   3.287  19.644   9.656 -0.1118  0.0269 -0.0175
  628loPI   PO410036   3.901  19.763   9.475 -0.2138 -0.2448 -0.0860
  628loPI   GL110037   4.026  19.537   9.103 -0.0350 -0.0360  0.0615
  628loPI   GL210038   3.676  19.389   8.961  0.4069  0.1538 -0.0494
  628loPI   C1A10039   4.233  19.444   8.684  0.3488 -0.1143 -0.3729
  628loPI   C2A10040   4.441  19.461   8.174 -0.0575 -0.0970 -0.3554
  628loPI   C3A10041   4.570  19.437   7.776  0.2577 -0.0224 -0.2052
  628loPI   C4A10042   4.583  19.475   7.308  0.0538 -0.0931 -0.3040
  628loPI   C5A10043   4.834  19.795   7.048 -0.0047 -0.2618 -0.2978
  628loPI   C6A10044   4.931  19.831   6.612  0.1095  0.0501 -0.1601
  628loPI   C1B10045   3.758  19.532   8.559  0.1868 -0.2239 -0.0941
  628loPI   C2B10046   3.684  19.569   8.090  0.0865 -0.0595  0.2681
  628loPI   C3B10047   3.599  19.749   7.605  0.4341 -0.1073 -0.1260
  628loPI   C4B10048   3.680  19.769   7.217  0.0804 -0.0165  0.2199
  629loPI    C110049   8.846   0.718   9.476 -0.1837  0.0771 -0.0346
  629loPI    C210050   8.743   0.795   9.854 -0.0493  0.0199  0.0140
  629loPI    C310051   9.105   0.646   9.772 -0.1997 -0.2898 -0.1047
  629loPI   PO410052   8.851   0.956   9.302  0.2046  0.1739 -0.1985
  629loPI   GL110053   8.777   1.189   8.910 -0.0554  0.1832 -0.1337
  629loPI   GL210054   8.574   0.997   8.739  0.1296 -0.1614 -0.0351
  629loPI   C1A10055   9.176   1.033   8.632 -0.0014 -0.1325 -0.1264
  629loPI   C2A10056   9.128   1.151   8.146  0.4318 -0.2531 -0.1189
  629loPI   C3A10057   9.317   1.128   7.740  0.1244  0.1362 -0.2315
  629loPI   C4A10058   9.378   1.298   7.360 -0.1392  0.0187 -0.0585
  629loPI   C5A10059   9.755   1.329   6.983 -0.0704  0.0562 -0.1471
  629loPI   C6A10060  10.151   1.412   7.021 -0.3061 -0.0777  0.1504
  629loPI   C1B10061   8.630   1.171   8.295 -0.1143 -0.0712  0.1136
  629loPI   C2B10062   8.735   1.223   7.835 -0.0174  0.2977  0.1993
  629loPI   C3B10063   8.956   1.595   7.704 -0.0990  0.0881  0.3371
  629loPI   C4B10064   8.726   1.899   7.593 -0.0997  0.2534 -0.2684
  630loPI    C110065   9.250  18.400   9.816 -0.0183  0.1625 -0.2630
  630loPI    C210066   9.475  18.685   9.982  0.2249 -0.1143 -0.1075
  630loPI    C310067   9.187  18.509  10.196  0.1536 -0.0689 -0.1655
  630loPI   PO410068   9.406  18.309   9.627 -0.1496  0.1398  0.0712
  630loPI   GL110069   9.408  18.267   9.265 -0.0759  0.1264  0.4041
  630loPI   GL210070   9.161  18.127   9.073  0.1142  0.1183 -0.1548
  630loPI   C1A10071   9.602  18.147   8.868  0.1317  0.3159  0.0944
  630loPI   C2A10072   9.606  18.223   8.412 -0.0648 -0.1535 -0.1671
  630loPI   C3A10073   9.663  18.285   7.967 -0.1664  0.0158  0.0101
  630loPI   C4A10074   9.658  18.193   7.495  0.1214 -0.0803  0.0002
  630loPI   C5A10075   9.786  18.347   7.137 -0.4004 -0.0382  0.0616
  630loPI   C6A10076   9.631  18.574   6.755  0.4410  0.0941  0.3232
  630loPI   C1B10077   8.903  18.049   8.688 -0.1498 -0.2099  0.0294
  630loPI   C2B10078   8.851  17.882   8.269 -0.1660  0.6106  0.0853
  630loPI   C3B10079   8.972  17.862   7.847 -0.2581  0.2548  0.0109
  630loPI   C4B10080   8.845  17.567   7.556  0.0703 -0.0728  0.0038
  631loPI    C110081   6.713  19.458   9.408 -0.0103 -0.0947  0.0585
  631loPI    C210082   7.065  19.416   9.592 -0.0574 -0.2234  0.1205
  631loPI    C310083   6.782  19.648   9.753  0.0656  0.0341 -0.0265
  631loPI   PO410084   6.587  19.205   9.358  0.1403  0.1162  0.1673
  631loPI   GL110085   6.326  19.149   8.978 -0.0286  0.1321 -0.3448
  631loPI   GL210086   6.533  19.378   8.843  0.3007  0.0048  0.3582
  631loPI   C1A10087   6.374  18.874   8.633 -0.0061  0.0148 -0.1979
  631loPI   C2A10088   6.439  18.684   8.223  0.2043  0.2533 -0.1762
  631loPI   C3A10089   6.499  18.514   7.859 -0.1232  0.2480  0.0308
  631loPI   C4A10090   6.363  18.206   7.594  0.0752 -0.2844  0.1984
  631loPI   C5A10091   6.446  17.749   7.640 -0.2038  0.0665 -0.1230
  631loPI   C6A10092   6.269  17.401   7.834 -0.2976 -0.2770  0.5549
  631loPI   C1B10093   6.284  19.340   8.478 -0.0048  0.0629  0.0076
  631loPI   C2B10094   6.245  19.380   8.078  0.3796 -0.0866 -0.1455
  631loPI   C3B10095   5.888  19.421   7.812  0.4377  0.2548 -0.5647
  631loPI   C4B10096   5.573  19.285   7.490  0.3473  0.0888  0.0205
  632loPI    C110097   1.705  15.484  10.133  0.0928 -0.0019 -0.0696
  632loPI    C210098   1.715  15.851   9.976 -0.1982  0.1260  0.1993
  632loPI    C310099   1.834  15.792  10.353  0.2789 -0.1387  0.0157
  632loPI   PO410100   1.729  15.300   9.886 -0.5224  0.0725 -0.1460
  632loPI   GL110101   1.455  15.039   9.588  0.0113  0.4551  0.2809
  632loPI   GL210102   1.223  15.256   9.339 -0.0105  0.0773 -0.1517
  632loPI   C1A10103   1.757  15.154   9.229  0.0338  0.3425  0.2835
  632loPI   C2A10104   1.770  15.238   8.854 -0.1690  0.3696  0.3306
  632loPI   C3A10105   1.656  15.133   8.498  0.0533  0.1042  0.1147
  632loPI   C4A10106   1.794  14.995   8.108  0.0366 -0.1378 -0.1647
  632loPI   C5A10107   1.961  15.192   7.788  0.0443  0.1183 -0.0506
  632loPI   C6A10108   1.817  15.406   7.337  0.0321 -0.1014 -0.0030
  632loPI   C1B10109   1.502  15.568   9.216 -0.1241 -0.2895 -0.2007
  632loPI   C2B10110   1.895  15.690   8.945 -0.1403  0.0124 -0.0360
  632loPI   C3B10111   2.213  16.071   8.877  0.3922  0.2208  0.0357
  632loPI   C4B10112   2.559  16.278   8.651  0.1892  0.1963 -0.0402
  633loPI    C110113   9.607  13.201  10.237 -0.3573  0.2652 -0.3616
  633loPI    C210114   9.851  13.517  10.223 -0.1700  0.1364 -0.0928
  633loPI    C310115   9.535  13.520  10.468 -0.0082  0.0078  0.1214
  633loPI   PO410116   9.565  13.230   9.932 -0.0823  0.1934  0.0339
  633loPI   GL110117   9.843  13.089   9.525 -0.1198 -0.2137 -0.2049
  633loPI   GL210118   9.535  12.893   9.392 -0.3014  0.4624 -0.0469
  633loPI   C1A10119   9.888  13.338   9.251 -0.2856  0.1698 -0.0528
  633loPI   C2A10120   9.655  13.461   8.812 -0.0789  0.0395  0.2942
  633loPI   C3A10121   9.779  13.390   8.344 -0.0828 -0.1306  0.0286
  633loPI   C4A10122   9.802  13.465   7.845 -0.0337  0.1083 -0.0885
  633loPI   C5A10123   9.653  13.618   7.430  0.1478  0.0491 -0.2188
  633loPI   C6A10124   9.465  13.264   7.186 -0.0543 -0.1777 -0.0026
  633loPI   C1B10125   9.609  13.048   9.012  0.1175  0.2660  0.1207
  633loPI   C2B10126   9.518  13.011   8.593 -0.0688 -0.2017 -0.1374
  633loPI   C3B10127   9.627  12.938   8.106 -0.0145 -0.0510 -0.4493
  633loPI   C4B10128   9.491  12.990   7.725 -0.0244  0.0150  0.0174
  634loPI    C110129  10.752  13.414   9.931  0.0369 -0.0189 -0.2091
  634loPI    C210130  10.931  13.072  10.035  0.0531  0.0693  0.0598
  634loPI    C310131  10.773  13.309  10.316 -0.4598  0.0108 -0.1673
  634loPI   PO410132  10.583  13.377   9.753 -0.2570  0.0080 -0.1627
  634loPI   GL110133  10.432  13.209   9.350  0.0692  0.1264  0.1528
  634loPI   GL210134  10.383  13.559   9.314 -0.1595  0.0314  0.1369
  634loPI   C1A10135  10.590  13.323   8.994  0.3458  0.2496  0.1703
  634loPI   C2A10136  10.353  13.418   8.623  0.1828  0.1141 -0.0773
  634loPI   C3A10137  10.243  13.303   8.168 -0.0593 -0.0070  0.0672
  634loPI   C4A10138  10.097  13.039   7.770  0.0422 -0.0048 -0.0908
  634loPI   C5A10139   9.955  13.195   7.297 -0.2397  0.3297  0.0345
  634loPI   C6A10140   9.805  13.474   6.932 -0.1928 -0.0210  0.0759
  634loPI   C1B10141  10.155  13.753   8.905 -0.1254  0.2730 -0.0466
  634loPI   C2B10142  10.031  13.778   8.453 -0.2308  0.0593 -0.0551
  634loPI   C3B10143  10.126  13.788   7.993  0.3150  0.1898  0.2494
  634loPI   C4B10144  10.174  13.578   7.550  0.1570  0.0617  0.2048
  635loPI    C110145   0.543   9.800   9.849 -0.1160  0.1080 -0.1604
  635loPI    C210146   0.348   9.488   9.693  0.0072 -0.0956  0.0852
  635loPI    C310147   0.229   9.643  10.042  0.1639 -0.0961  0.1398
  635loPI   PO410148   0.628   9.933   9.678  0.3299  0.3152  0.0189
  635loPI   GL110149   0.622   9.931   9.310 -0.1930 -0.0943  0.0900
  635loPI   GL210150   0.763  10.265   9.285 -0.2524  0.0973 -0.0210
  635loPI   C1A10151   0.295   9.986   9.056 -0.0718 -0.2921  0.1217
  635loPI   C2A10152  -0.042  10.075   8.792  0.0927  0.1118 -0.1140
  635loPI   C3A10153   0.156  10.159   8.439 -0.0773 -0.2644  0.0690
  635loPI   C4A10154   0.165  10.287   8.038 -0.0775  0.1141 -0.2409
  635loPI   C5A10155  -0.006  10.169   7.596  0.2559  0.0526  0.1501
  635loPI   C6A10156  -0.050   9.862   7.302 -0.0936  0.0086 -0.1373
  635loPI   C1B10157   0.727  10.453   8.963  0.1224  0.2047 -0.0386
  635loPI   C2B10158   0.632  10.466   8.609  0.1292 -0.2029 -0.0305
  635loPI   C3B10159   0.615  10.263   8.266  0.0740 -0.0984 -0.2105
  635loPI   C4B10160   0.685  10.340   7.825 -0.0804 -0.0867  0.1199
  636loPI    C110161   8.107  11.115  10.076  0.1021 -0.0354  0.3849
  636loPI    C210162   7.730  10.985  10.100 -0.0402  0.1606 -0.4527
  636loPI    C310163   7.814  11.368  10.179  0.0398  0.0557  0.0006
  636loPI   PO410164   8.129  11.050   9.865 -0.0172  0.0127  0.1923
  636loPI   GL110165   8.164  10.923   9.498 -0.1511  0.0752 -0.2062
  636loPI   GL210166   8.474  11.048   9.371  0.1098  0.1312 -0.0325
  636loPI   C1A10167   8.053  10.851   9.100 -0.1694 -0.1985 -0.1623
  636loPI   C2A10168   8.288  10.594   8.825 -0.1895 -0.2620  0.3615
  636loPI   C3A10169   8.446  10.526   8.405  0.0332  0.3094 -0.1749
  636loPI   C4A10170   8.698  10.574   8.134  0.2025 -0.2084 -0.1033
  636loPI   C5A10171   8.903  10.801   7.801 -0.0849  0.0776 -0.3685
  636loPI   C6A10172   8.929  10.957   7.317  0.1694 -0.0435 -0.0075
  636loPI   C1B10173   8.565  11.079   8.958  0.1825 -0.0442 -0.0402
  636loPI   C2B10174   8.440  10.990   8.558 -0.0492 -0.0574 -0.0714
  636loPI   C3B10175   8.546  11.083   8.090  0.1867 -0.0676 -0.2161
  636loPI   C4B10176   8.444  10.978   7.643  0.0993 -0.3857  0.1813
  637loPI    C110177   8.637   3.856   9.569 -0.0080 -0.1844  0.0148
  637loPI    C210178   8.382   4.156   9.497 -0.2864 -0.4790 -0.2608
  637loPI    C310179   8.403   3.996   9.863  0.0412  0.0288 -0.0464
  637loPI   PO410180   8.617   3.623   9.371  0.0602 -0.1922  0.2333
  637loPI   GL110181   8.554   3.358   9.007  0.2538 -0.0884  0.0693
  637loPI   GL210182   8.270   3.413   9.117  0.2729 -0.1321 -0.2860
  637loPI   C1A10183   8.524   3.285   8.544 -0.1202 -0.1995 -0.1897
  637loPI   C2A10184   8.586   3.250   8.064  0.0251 -0.3861 -0.1068
  637loPI   C3A10185   8.285   3.138   7.891 -0.0734 -0.1748 -0.1475
  637loPI   C4A10186   7.953   2.918   7.648  0.0168 -0.3089  0.2339
  637loPI   C5A10187   8.034   2.911   7.209  0.1531 -0.1093  0.1833
  637loPI   C6A10188   8.286   3.034   6.956 -0.1850 -0.2216  0.3490
  637loPI   C1B10189   8.177   3.634   8.804 -0.3059  0.1077  0.0785
  637loPI   C2B10190   8.404   3.851   8.465  0.3265  0.0585  0.1374
  637loPI   C3B10191   8.571   3.792   8.068  0.0733  0.0216  0.0753
  637loPI   C4B10192   8.439   3.759   7.629 -0.1872  0.2634 -0.1502
  638loPI    C110193   0.769  13.451   9.819  0.1172 -0.2848  0.1987
  638loPI    C210194   0.533  13.743   9.959  0.0180 -0.2875  0.0396
  638loPI    C310195   0.789  13.557  10.205  0.0137 -0.1323  0.1631
  638loPI   PO410196   0.734  13.490   9.493  0.1521  0.0246  0.3385
  638loPI   GL110197   0.476  13.531   9.107  0.3032  0.0972 -0.1573
  638loPI   GL210198   0.693  13.624   8.862  0.3751 -0.2106  0.2247
  638loPI   C1A10199   0.272  13.544   8.662 -0.1571 -0.1381  0.0700
  638loPI   C2A10200   0.357  13.753   8.286  0.1473  0.2285 -0.1438
  638loPI   C3A10201   0.303  13.714   7.847 -0.0892 -0.2267 -0.0718
  638loPI   C4A10202   0.003  13.763   7.559  0.0169  0.2924  0.0642
  638loPI   C5A10203  -0.272  13.618   7.301 -0.0392 -0.0077 -0.2895
  638loPI   C6A10204  -0.485  13.461   6.875  0.1178 -0.0515 -0.0626
  638loPI   C1B10205   0.829  13.515   8.463  0.0374 -0.0898 -0.0099
  638loPI   C2B10206   0.778  13.735   8.050 -0.2495  0.0334 -0.1399
  638loPI   C3B10207   0.810  13.702   7.655  0.0061  0.0279  0.0618
  638loPI   C4B10208   1.149  13.855   7.418 -0.4299 -0.2792  0.2385
  639loPI    C110209   9.885   2.282   9.708 -0.0829  0.1764 -0.0347
  639loPI    C210210  10.280   2.258   9.768 -0.1413 -0.0559  0.2812
  639loPI    C310211  10.109   2.614   9.706  0.1216  0.0418  0.0976
  639loPI   PO410212   9.820   2.088   9.472  0.0186 -0.1910 -0.1154
  639loPI   GL110213   9.677   2.171   9.049 -0.1685 -0.2261  0.1628
  639loPI   GL210214   9.860   1.961   8.983  0.2717  0.1270  0.3695
  639loPI   C1A10215   9.640   2.338   8.623  0.0635 -0.1023  0.1738
  639loPI   C2A10216   9.258   2.466   8.277 -0.1332 -0.1087  0.1407
  639loPI   C3A10217   9.253   2.515   7.862  0.3957  0.0104 -0.0326
  639loPI   C4A10218   9.489   2.734   7.675 -0.0825  0.1255 -0.1269
  639loPI   C5A10219   9.832   2.880   7.354 -0.2322  0.2214  0.0956
  639loPI   C6A10220  10.062   3.297   7.264 -0.0292  0.1332 -0.3489
  639loPI   C1B10221   9.911   1.902   8.518  0.0023 -0.1661 -0.3150
  639loPI   C2B10222   9.938   1.677   8.099 -0.2207 -0.0088  0.0791
  639loPI   C3B10223   9.785   1.367   7.798  0.1549 -0.1991  0.0766
  639loPI   C4B10224   9.911   1.394   7.453  0.3172 -0.5356  0.2501
  640loPI    C110225  11.170  18.311   9.907 -0.0351  0.1501 -0.0609
  640loPI    C210226  10.791  18.312  10.035 -0.0012  0.0107  0.0426
  640loPI    C310227  11.090  18.252  10.294  0.0855  0.0179 -0.0552
  640loPI   PO410228  11.044  18.431   9.601 -0.0088 -0.3773 -0.0024
  640loPI   GL110229  10.941  18.607   9.115 -0.1983  0.0039  0.1270
  640loPI   GL210230  11.284  18.704   9.143  0.0228  0.0580 -0.1284
  640loPI   C1A10231  10.938  18.679   8.651  0.2813  0.0921  0.1913
  640loPI   C2A10232  10.976  18.558   8.284  0.1655  0.0327  0.2163
  640loPI   C3A10233  10.873  18.477   7.833 -0.0139 -0.3064  0.0864
  640loPI   C4A10234  10.605  18.530   7.560  0.2491 -0.1703  0.1478
  640loPI   C5A10235  10.588  18.724   7.210  0.0044  0.4631 -0.3071
  640loPI   C6A10236  10.218  18.828   7.064 -0.2391  0.1552 -0.3288
  640loPI   C1B10237  11.405  18.650   8.686 -0.1848  0.0066  0.1198
  640loPI   C2B10238  11.524  18.710   8.265  0.2009  0.1104  0.1347
  640loPI   C3B10239  11.324  18.757   7.848 -0.1077  0.2837 -0.1993
  640loPI   C4B10240  11.068  18.898   7.535  0.0672  0.0842 -0.1569
  641loPI    C110241  18.410   1.209   9.595 -0.3107  0.0949  0.2507
  641loPI    C210242  18.723   1.020   9.757 -0.2457 -0.1724 -0.1719
  641loPI    C310243  18.374   1.030   9.950 -0.0427 -0.0677  0.1992
  641loPI   PO410244  18.551   1.216   9.345 -0.2437 -0.1526  0.0288
  641loPI   GL110245  18.584   1.032   8.994  0.3120 -0.1259 -0.0024
  641loPI   GL210246  18.545   1.373   8.855  0.1117 -0.1053 -0.0372
  641loPI   C1A10247  18.387   0.777   8.703 -0.0415 -0.4281 -0.2464
  641loPI   C2A10248  18.349   0.676   8.233  0.0899 -0.1467  0.0412
  641loPI   C3A10249  18.352   0.678   7.863  0.2776  0.0215  0.1271
  641loPI   C4A10250  17.966   0.608   7.503 -0.0409  0.0051 -0.0441
  641loPI   C5A10251  17.597   0.440   7.271 -0.0632  0.1285 -0.1066
  641loPI   C6A10252  17.190   0.424   6.995 -0.2068 -0.1206  0.4517
  641loPI   C1B10253  18.637   1.598   8.400  0.1381  0.0043 -0.0051
  641loPI   C2B10254  18.552   1.718   8.023 -0.4100  0.1066  0.1881
  641loPI   C3B10255  18.358   1.544   7.623  0.1657 -0.1452 -0.2386
  641loPI   C4B10256  18.009   1.596   7.294 -0.3329 -0.2236 -0.1266
  642loPI    C110257   2.411  18.920   9.746  0.0445  0.0397  0.0056
  642loPI    C210258   2.711  18.659   9.792 -0.0408 -0.1165 -0.2933
  642loPI    C310259   2.480  18.756  10.104  0.1286 -0.2290 -0.1308
  642loPI   PO410260   2.301  18.881   9.552  0.0016  0.1666  0.1678
  642loPI   GL110261   2.434  18.722   9.044  0.1047 -0.0555  0.1168
  642loPI   GL210262   2.677  18.552   9.008 -0.1723 -0.3787  0.0905
  642loPI   C1A10263   2.377  18.685   8.562  0.2069 -0.0612 -0.1859
  642loPI   C2A10264   2.534  18.830   8.183 -0.0475 -0.0286 -0.1062
  642loPI   C3A10265   2.840  18.759   7.762 -0.2179  0.0127 -0.3877
  642loPI   C4A10266   2.692  18.808   7.341 -0.0220 -0.3889 -0.2080
  642loPI   C5A10267   2.595  18.910   6.939 -0.0427 -0.1185  0.1078
  642loPI   C6A10268   2.362  19.002   6.616  0.0964  0.0056 -0.1094
  642loPI   C1B10269   2.865  18.602   8.547  0.2076 -0.2689  0.0897
  642loPI   C2B10270   2.894  18.266   8.369 -0.0502  0.1158  0.1324
  642loPI   C3B10271   3.129  18.190   8.120 -0.2016  0.1559  0.3053
  642loPI   C4B10272   3.074  18.197   7.725 -0.1842  0.0318  0.2173
  643loPI    C110273  15.758   5.814   9.702  0.1037 -0.1407 -0.3717
  643loPI    C210274  15.579   5.456   9.713  0.1455 -0.1529  0.1907
  643loPI    C310275  15.905   5.523   9.934  0.1717  0.2184  0.0464
  643loPI   PO410276  15.555   5.954   9.537  0.0194 -0.0558  0.2426
  643loPI   GL110277  15.475   6.046   9.059 -0.0865 -0.0698  0.1618
  643loPI   GL210278  15.453   6.223   9.002 -0.0174  0.1671 -0.1024
  643loPI   C1A10279  15.251   5.783   8.757 -0.0911  0.1889  0.1653
  643loPI   C2A10280  15.306   5.562   8.432  0.1559  0.1609  0.6179
  643loPI   C3A10281  15.550   5.689   8.170  0.0470  0.4451 -0.1815
  643loPI   C4A10282  15.923   5.611   7.814  0.1180 -0.1204  0.1271
  643loPI   C5A10283  16.028   5.714   7.407  0.1882 -0.1984  0.3608
  643loPI   C6A10284  16.156   5.624   7.055  0.1800  0.2801 -0.3226
  643loPI   C1B10285  15.668   6.129   8.574  0.0912 -0.2915 -0.0777
  643loPI   C2B10286  15.913   6.224   8.202 -0.0761 -0.1109  0.2384
  643loPI   C3B10287  15.660   6.050   7.834  0.5239  0.0894  0.1446
  643loPI   C4B10288  15.495   6.264   7.438 -0.3015  0.1577 -0.0668
  644loPI    C110289   0.382  16.525   9.840  0.0716  0.0100 -0.0198
  644loPI    C210290   0.269  16.220  10.073  0.1733  0.0132  0.0343
  644loPI    C310291  -0.001  16.489   9.951  0.1057 -0.0308  0.0859
  644loPI   PO410292   0.469  16.487   9.606 -0.3169  0.3269  0.0592
  644loPI   GL110293   0.455  16.430   9.122  0.0216 -0.0327 -0.0483
  644loPI   GL210294   0.554  16.698   9.082 -0.0245  0.2090 -0.2792
  644loPI   C1A10295   0.237  16.533   8.697 -0.0499 -0.1506  0.2046
  644loPI   C2A10296   0.214  16.272   8.380 -0.0668 -0.0254  0.1686
  644loPI   C3A10297   0.399  15.923   8.292 -0.1152  0.2574 -0.0101
  644loPI   C4A10298   0.871  15.763   8.312  0.2425  0.0511  0.1720
  644loPI   C5A10299   1.245  15.617   8.194 -0.1307  0.0532  0.0679
  644loPI   C6A10300   1.601  15.443   8.068 -0.0153 -0.0818 -0.2729
  644loPI   C1B10301   0.681  16.753   8.633 -0.0074  0.3288 -0.1335
  644loPI   C2B10302   0.577  16.743   8.188  0.0624  0.2681  0.0633
  644loPI   C3B10303   0.694  16.764   7.856  0.0400  0.1314  0.2313
  644loPI   C4B10304   0.858  16.672   7.452  0.0050 -0.0839  0.0565
  645loPI    C110305   7.511   9.738   9.766 -0.1486 -0.1196  0.1481
  645loPI    C210306   7.425   9.691  10.154 -0.0312  0.1802  0.2137
  645loPI    C310307   7.587  10.033  10.025  0.0175  0.0479 -0.0866
  645loPI   PO410308   7.276   9.762   9.646 -0.2048 -0.0439  0.1388
  645loPI   GL110309   7.160   9.640   9.227  0.3816  0.1167  0.3457
  645loPI   GL210310   7.315   9.551   9.025  0.0074 -0.1066 -0.1795
  645loPI   C1A10311   7.031   9.109   9.027 -0.0964 -0.2045 -0.4260
  645loPI   C2A10312   6.791   8.985   8.762  0.0519 -0.1533  0.0147
  645loPI   C3A10313   6.938   8.954   8.265  0.3178  0.2782 -0.1174
  645loPI   C4A10314   7.184   9.152   8.070  0.1780  0.1447 -0.0163
  645loPI   C5A10315   7.508   9.107   7.831  0.2991  0.0249  0.2856
  645loPI   C6A10316   7.788   9.198   7.508 -0.0897 -0.3040  0.4382
  645loPI   C1B10317   7.227   9.906   8.725  0.3613 -0.2810 -0.3431
  645loPI   C2B10318   7.088   9.864   8.347  0.2266  0.0945 -0.2225
  645loPI   C3B10319   6.867   9.595   8.021 -0.2277  0.0742  0.0310
  645loPI   C4B10320   6.746   9.425   7.667  0.2782 -0.0686 -0.0033
  646loPI    C110321   2.595  11.211  10.191  0.2193 -0.0701  0.2831
  646loPI    C210322   2.775  11.384  10.504  0.1747  0.1172  0.2064
  646loPI    C310323   2.683  10.995  10.516 -0.0400  0.1737  0.5220
  646loPI   PO410324   2.717  11.262  10.010 -0.4335  0.1926 -0.2021
  646loPI   GL110325   2.632  11.149   9.710 -0.1847  0.2431 -0.2022
  646loPI   GL210326   2.691  10.847   9.574 -0.2068 -0.4351  0.1852
  646loPI   C1A10327   2.750  11.188   9.182 -0.0236  0.2148  0.0726
  646loPI   C2A10328   2.593  11.108   8.779 -0.0359  0.3442 -0.2936
  646loPI   C3A10329   2.492  11.210   8.426 -0.1326  0.1189  0.2047
  646loPI   C4A10330   2.460  11.394   7.928 -0.3817 -0.0994 -0.0118
  646loPI   C5A10331   2.786  11.334   7.679  0.0745  0.1572  0.2814
  646loPI   C6A10332   3.049  11.396   7.307 -0.2627 -0.3802 -0.2344
  646loPI   C1B10333   2.571  10.677   9.197 -0.3841  0.2494  0.5699
  646loPI   C2B10334   2.420  10.669   8.835  0.1033 -0.2967  0.2355
  646loPI   C3B10335   2.164  10.784   8.503  0.1842 -0.1175  0.0747
  646loPI   C4B10336   2.341  10.779   8.064  0.0083  0.2422  0.1996
  647loPI    C110337   2.074   4.800   9.959  0.0404 -0.0575 -0.2198
  647loPI    C210338   2.457   4.852  10.061 -0.0164  0.1097 -0.0874
  647loPI    C310339   2.205   4.674  10.316 -0.0948  0.2742 -0.0484
  647loPI   PO410340   2.066   4.738   9.728  0.0795  0.2507 -0.1828
  647loPI   GL110341   2.192   4.644   9.205 -0.0528  0.0158 -0.2172
  647loPI   GL210342   2.070   4.376   9.074 -0.3442 -0.2648  0.2746
  647loPI   C1A10343   2.540   4.310   8.946  0.1201 -0.0955  0.3933
  647loPI   C2A10344   3.037   4.390   8.671 -0.3087 -0.0720  0.1073
  647loPI   C3A10345   2.982   4.274   8.232  0.1076 -0.1792  0.1269
  647loPI   C4A10346   2.892   4.305   7.758  0.2021 -0.1269 -0.0761
  647loPI   C5A10347   2.566   4.422   7.401 -0.2153  0.3038 -0.3197
  647loPI   C6A10348   2.347   4.567   7.151  0.0130  0.2291  0.2703
  647loPI   C1B10349   2.184   4.449   8.637  0.2157  0.2201 -0.1605
  647loPI   C2B10350   2.165   4.644   8.214 -0.2374  0.0746  0.0173
  647loPI   C3B10351   2.195   4.848   7.855  0.2365  0.0835  0.0190
  647loPI   C4B10352   2.019   4.816   7.423  0.0084  0.1417 -0.1499
  648loPI    C110353  15.342   3.382   9.841 -0.1922 -0.0799 -0.0565
  648loPI    C210354  15.122   3.350  10.173 -0.2618  0.2230 -0.0700
  648loPI    C310355  15.490   3.506  10.191 -0.0877 -0.1749 -0.0666
  648loPI   PO410356  15.428   3.147   9.694  0.1009  0.0491  0.2996
  648loPI   GL110357  15.443   3.049   9.293 -0.2912  0.0444  0.1581
  648loPI   GL210358  15.635   2.702   9.306 -0.0007 -0.1505  0.1396
  648loPI   C1A10359  15.514   3.267   8.898 -0.1345 -0.0647  0.1830
  648loPI   C2A10360  15.692   3.355   8.536  0.1775  0.0610 -0.2419
  648loPI   C3A10361  15.469   3.557   8.177 -0.0293  0.1215  0.1435
  648loPI   C4A10362  15.232   3.495   7.820 -0.2078 -0.1424 -0.2076
  648loPI   C5A10363  15.153   3.527   7.408 -0.0038 -0.1105 -0.1305
  648loPI   C6A10364  14.997   3.786   7.085 -0.0120 -0.1826  0.3565
  648loPI   C1B10365  15.492   2.698   8.904 -0.2509  0.1956  0.0511
  648loPI   C2B10366  15.297   2.445   8.613  0.0917  0.0438  0.3298
  648loPI   C3B10367  14.929   2.525   8.433 -0.1995  0.0604 -0.3184
  648loPI   C4B10368  14.663   2.932   8.251  0.0857  0.0415 -0.0106
  649loPI    C110369  18.652  10.318  10.164  0.0556  0.0320  0.1646
  649loPI    C210370  18.802  10.659  10.310 -0.0040  0.0647  0.1502
  649loPI    C310371  18.430  10.548  10.405 -0.0052  0.0328  0.1081
  649loPI   PO410372  18.675  10.348   9.887  0.2484 -0.0812  0.2751
  649loPI   GL110373  18.468  10.550   9.566  0.1066  0.3695 -0.0037
  649loPI   GL210374  18.524  10.904   9.349  0.1282  0.0202  0.0308
  649loPI   C1A10375  18.379  10.514   9.083 -0.0841  0.2386 -0.0571
  649loPI   C2A10376  18.454  10.657   8.648  0.1368  0.0148 -0.2648
  649loPI   C3A10377  18.653  10.915   8.257 -0.0793 -0.2160 -0.3750
  649loPI   C4A10378  18.503  11.139   7.900  0.1077 -0.3041 -0.2479
  649loPI   C5A10379  18.456  11.522   7.632 -0.0333 -0.2489 -0.1694
  649loPI   C6A10380  18.405  11.255   7.193 -0.0137  0.0327 -0.0539
  649loPI   C1B10381  18.581  11.155   8.907  0.2578 -0.0259  0.2852
  649loPI   C2B10382  18.334  11.204   8.558 -0.1562  0.0061 -0.2668
  649loPI   C3B10383  18.077  10.953   8.294 -0.2060 -0.2789 -0.0516
  649loPI   C4B10384  18.327  10.652   8.072 -0.0929  0.0074 -0.1751
  650loPI    C110385   4.293   9.216  10.349 -0.1925 -0.0484  0.3764
  650loPI    C210386   3.977   9.193  10.105  0.2200  0.1549 -0.1988
  650loPI    C310387   3.980   9.460  10.402 -0.2154  0.0301 -0.0745
  650loPI   PO410388   4.510   9.142  10.134  0.0433 -0.1317  0.0016
  650loPI   GL110389   4.382   9.027   9.710  0.2095 -0.0162  0.0367
  650loPI   GL210390   4.000   9.114   9.631  0.1373  0.0981 -0.3276
  650loPI   C1A10391   4.454   9.153   9.236 -0.1922  0.2290 -0.1676
  650loPI   C2A10392   4.717   9.137   8.770  0.1331  0.4247 -0.0600
  650loPI   C3A10393   4.810   9.180   8.339  0.3312  0.2477  0.2158
  650loPI   C4A10394   5.059   9.425   8.087 -0.2492 -0.1936 -0.1326
  650loPI   C5A10395   5.235   9.657   7.955 -0.0866 -0.2477 -0.0235
  650loPI   C6A10396   5.379   9.922   7.601  0.1541  0.1850  0.2355
  650loPI   C1B10397   3.902   9.016   9.199 -0.4034  0.1225 -0.0439
  650loPI   C2B10398   3.787   9.130   8.804  0.0201 -0.3230  0.1093
  650loPI   C3B10399   3.831   9.169   8.354 -0.0006 -0.1473 -0.1825
  650loPI   C4B10400   4.034   9.270   7.926 -0.0438 -0.1698  0.3518
  651loPI    C110401  18.004  15.635   9.706  0.0385  0.0842 -0.0630
  651loPI    C210402  17.789  15.314   9.809  0.0225  0.0208 -0.2879
  651loPI    C310403  17.671  15.679   9.922 -0.0417 -0.0387 -0.1602
  651loPI   PO410404  18.043  15.572   9.397 -0.0882 -0.0129 -0.1823
  651loPI   GL110405  18.292  15.428   9.107 -0.0232  0.0587 -0.0461
  651loPI   GL210406  18.443  15.745   8.982  0.1976 -0.0515 -0.0838
  651loPI   C1A10407  18.223  15.241   8.629 -0.1803  0.1141 -0.0418
  651loPI   C2A10408  18.465  15.058   8.281  0.0677 -0.2281  0.3293
  651loPI   C3A10409  18.573  14.758   7.974 -0.0260  0.2280  0.0106
  651loPI   C4A10410  18.841  14.692   7.678  0.1346 -0.0075 -0.0505
  651loPI   C5A10411  19.282  14.575   7.600 -0.0464  0.0347  0.0282
  651loPI   C6A10412  19.628  14.623   7.386 -0.0530  0.2352  0.4294
  651loPI   C1B10413  18.498  15.683   8.463 -0.4002  0.1357  0.0625
  651loPI   C2B10414  18.422  15.497   8.065 -0.0635  0.1377  0.0949
  651loPI   C3B10415  18.446  15.200   7.773 -0.3516 -0.1108  0.0285
  651loPI   C4B10416  18.416  14.931   7.392 -0.2232  0.2747 -0.1890
  652loPI    C110417   8.446  12.756   9.849  0.1968  0.2898 -0.0330
  652loPI    C210418   8.714  12.999  10.019  0.0876  0.0396  0.5179
  652loPI    C310419   8.797  12.611   9.973 -0.0083  0.0461  0.2774
  652loPI   PO410420   8.325  12.889   9.701  0.0880 -0.0183  0.0064
  652loPI   GL110421   8.373  12.847   9.259  0.2817  0.1475  0.0849
  652loPI   GL210422   8.232  12.681   9.065 -0.0089  0.0439  0.0022
  652loPI   C1A10423   8.591  13.027   8.864 -0.3651 -0.1020  0.0621
  652loPI   C2A10424   8.902  12.987   8.508  0.2372 -0.1802 -0.1785
  652loPI   C3A10425   9.084  13.018   8.045  0.0818 -0.1146 -0.0390
  652loPI   C4A10426   8.921  12.796   7.784  0.1018  0.0518  0.1300
  652loPI   C5A10427   9.217  12.632   7.408 -0.5724 -0.1656 -0.2798
  652loPI   C6A10428   9.315  12.436   7.002  0.2055 -0.3769  0.3233
  652loPI   C1B10429   8.547  12.500   8.883  0.0364  0.0026  0.1672
  652loPI   C2B10430   8.937  12.184   8.759  0.0849  0.1480  0.0523
  652loPI   C3B10431   9.387  12.152   8.840 -0.0967  0.2144  0.0015
  652loPI   C4B10432   9.799  11.906   8.634  0.1333  0.0103 -0.0314
  653loPI    C110433  18.204  16.980   9.493 -0.1168  0.0784 -0.0905
  653loPI    C210434  17.991  17.084   9.815 -0.0078  0.0556 -0.0103
  653loPI    C310435  18.343  16.899   9.859 -0.0126  0.0136 -0.1438
  653loPI   PO410436  18.230  17.168   9.324  0.0636 -0.1778 -0.2625
  653loPI   GL110437  18.292  17.215   8.958 -0.1683  0.1351 -0.1276
  653loPI   GL210438  18.127  17.623   8.960 -0.0668 -0.1424  0.1884
  653loPI   C1A10439  18.083  17.219   8.549 -0.0410  0.2102 -0.3356
  653loPI   C2A10440  18.010  17.568   8.242 -0.1252  0.1805  0.1247
  653loPI   C3A10441  18.073  17.599   7.779 -0.0431 -0.1185  0.1745
  653loPI   C4A10442  18.063  17.656   7.350 -0.4020 -0.0851  0.1574
  653loPI   C5A10443  18.031  17.788   6.984 -0.2079  0.4072  0.1428
  653loPI   C6A10444  17.742  17.766   6.670 -0.0532  0.1597  0.1677
  653loPI   C1B10445  18.168  18.020   8.671 -0.3811  0.2963  0.0778
  653loPI   C2B10446  18.245  18.344   8.381 -0.0466 -0.0432  0.3794
  653loPI   C3B10447  18.081  18.642   8.355  0.0034  0.1387  0.2461
  653loPI   C4B10448  17.879  18.947   8.067  0.2728  0.3169  0.1385
  654loPI    C110449   5.583   7.731  10.141 -0.1481 -0.1313  0.0188
  654loPI    C210450   5.700   7.785  10.520 -0.0720  0.0186 -0.0254
  654loPI    C310451   5.450   7.487  10.429  0.1954 -0.2449  0.0866
  654loPI   PO410452   5.826   7.710   9.981  0.0036 -0.2334 -0.1407
  654loPI   GL110453   5.857   7.572   9.608 -0.1638  0.2071 -0.1313
  654loPI   GL210454   6.067   7.719   9.477 -0.0607 -0.2450  0.2201
  654loPI   C1A10455   5.593   7.346   9.346 -0.0826  0.0292  0.2169
  654loPI   C2A10456   5.606   7.301   8.897 -0.0504 -0.1232 -0.0165
  654loPI   C3A10457   5.455   7.174   8.576  0.2769  0.1906 -0.0160
  654loPI   C4A10458   5.629   7.207   8.077  0.0416  0.0631  0.1576
  654loPI   C5A10459   5.683   7.365   7.654  0.0360  0.0076 -0.0382
  654loPI   C6A10460   5.453   7.269   7.331  0.2275 -0.0496  0.2485
  654loPI   C1B10461   6.086   7.588   9.138  0.0011  0.2186 -0.0885
  654loPI   C2B10462   5.992   7.801   8.762 -0.0634  0.1615 -0.0488
  654loPI   C3B10463   6.077   7.939   8.334 -0.0748  0.0808  0.4199
  654loPI   C4B10464   5.973   7.978   7.829  0.3004 -0.0597 -0.1957
  655loPI    C110465   6.136   6.412  10.214  0.4313 -0.0458 -0.2009
  655loPI    C210466   6.377   6.633  10.444 -0.1245 -0.0389  0.4054
  655loPI    C310467   6.381   6.235  10.477 -0.0448 -0.0511  0.2562
  655loPI   PO410468   6.171   6.564   9.991 -0.1014 -0.0736  0.2362
  655loPI   GL110469   5.999   6.619   9.523 -0.3704  0.0902 -0.1823
  655loPI   GL210470   5.657   6.689   9.516  0.1560  0.0558 -0.0838
  655loPI   C1A10471   6.111   6.470   9.165 -0.3202 -0.0372  0.1260
  655loPI   C2A10472   6.299   6.717   8.902  0.0383  0.1435 -0.0754
  655loPI   C3A10473   6.373   6.865   8.494 -0.1950  0.3013  0.3577
  655loPI   C4A10474   6.245   7.070   8.037 -0.0356  0.0448 -0.1330
  655loPI   C5A10475   6.062   6.940   7.727 -0.1020 -0.2189 -0.1779
  655loPI   C6A10476   5.851   6.972   7.377  0.2002  0.1296  0.1254
  655loPI   C1B10477   5.440   6.765   9.134 -0.2577  0.1478  0.0639
  655loPI   C2B10478   5.305   6.709   8.699 -0.0957  0.3899  0.0046
  655loPI   C3B10479   5.375   6.661   8.250 -0.0983 -0.5550 -0.0784
  655loPI   C4B10480   5.267   6.736   7.825  0.3945 -0.0298  0.0754
  656loPI    C110481   5.227  17.591   9.510 -0.0790  0.0137  0.2927
  656loPI    C210482   5.393  17.761   9.831  0.0547  0.2117  0.1206
  656loPI    C310483   5.209  17.988   9.557  0.3175  0.0937 -0.1592
  656loPI   PO410484   5.368  17.451   9.401  0.3181  0.2095 -0.1066
  656loPI   GL110485   5.739  17.469   9.164 -0.1666  0.2190 -0.0037
  656loPI   GL210486   5.907  17.666   9.026  0.0265 -0.2421  0.1166
  656loPI   C1A10487   5.682  17.044   9.012 -0.1514  0.1930 -0.1266
  656loPI   C2A10488   5.661  16.864   8.532  0.2131  0.1686 -0.3563
  656loPI   C3A10489   5.568  16.834   8.072 -0.0882  0.1038  0.1991
  656loPI   C4A10490   5.434  16.940   7.675 -0.0194  0.1564 -0.1093
  656loPI   C5A10491   5.425  16.984   7.269  0.3026  0.0884  0.3147
  656loPI   C6A10492   5.320  16.978   6.796  0.1483  0.0164 -0.1575
  656loPI   C1B10493   5.968  17.985   8.726  0.0853  0.3373  0.3294
  656loPI   C2B10494   5.767  18.133   8.356  0.4323 -0.3548 -0.0809
  656loPI   C3B10495   5.479  17.883   8.113  0.2407 -0.0605  0.1938
  656loPI   C4B10496   5.376  17.856   7.646  0.1300 -0.2111  0.3497
  657loPI    C110497   2.410   6.219   9.956 -0.1155 -0.0426 -0.0165
  657loPI    C210498   2.088   6.061  10.132 -0.0543 -0.2344 -0.0742
  657loPI    C310499   2.416   6.137  10.347 -0.0956 -0.1534 -0.0396
  657loPI   PO410500   2.455   6.094   9.721  0.2156  0.1541  0.2169
  657loPI   GL110501   2.354   6.153   9.377  0.1895  0.0352 -0.1650
  657loPI   GL210502   2.464   6.261   9.136 -0.0901  0.1139  0.3089
  657loPI   C1A10503   2.460   5.781   9.064 -0.0135 -0.0188  0.0327
  657loPI   C2A10504   2.507   5.561   8.616  0.0146 -0.1278 -0.1688
  657loPI   C3A10505   2.588   5.638   8.079  0.1430  0.2107  0.1634
  657loPI   C4A10506   2.406   6.021   7.944 -0.0220 -0.1208 -0.2058
  657loPI   C5A10507   2.180   6.340   8.064  0.1715 -0.0426 -0.3046
  657loPI   C6A10508   1.761   6.512   8.034  0.0797  0.1516 -0.1559
  657loPI   C1B10509   2.278   6.361   8.749  0.1023 -0.0900 -0.1433
  657loPI   C2B10510   2.174   6.635   8.477  0.2464  0.2671 -0.0006
  657loPI   C3B10511   2.173   6.867   8.019  0.0097  0.3439  0.1270
  657loPI   C4B10512   2.219   7.149   7.683 -0.0507 -0.2530 -0.1317
  658loPI    C110513  12.659   7.585   9.901 -0.2391  0.0359 -0.0647
  658loPI    C210514  13.002   7.777   9.977 -0.0708 -0.1645 -0.3041
  658loPI    C310515  12.994   7.377   9.968 -0.3918 -0.1716  0.0650
  658loPI   PO410516  12.528   7.793   9.698  0.1371  0.0357  0.1691
  658loPI   GL110517  12.434   7.972   9.388  0.0691 -0.1492  0.0490
  658loPI   GL210518  12.322   8.230   9.390  0.3664  0.2647 -0.1440
  658loPI   C1A10519  12.347   7.733   9.028  0.1063 -0.0263  0.0901
  658loPI   C2A10520  12.554   7.445   8.674 -0.0664  0.1254 -0.1046
  658loPI   C3A10521  12.785   7.511   8.340 -0.0481 -0.1488 -0.1671
  658loPI   C4A10522  12.739   7.889   8.066 -0.0396 -0.4299  0.1753
  658loPI   C5A10523  12.449   7.999   7.713 -0.0793 -0.2337 -0.2842
  658loPI   C6A10524  12.190   7.933   7.272 -0.1245  0.0034  0.1134
  658loPI   C1B10525  12.404   8.217   8.967  0.0862 -0.1583  0.2660
  658loPI   C2B10526  12.248   8.373   8.541 -0.0622 -0.0126  0.0075
  658loPI   C3B10527  12.294   8.340   8.161 -0.3697 -0.2110 -0.0632
  658loPI   C4B10528  12.417   8.569   7.816  0.0001 -0.0560 -0.2170
  659loPI    C110529   4.207  19.306   9.586  0.0636  0.1197  0.0297
  659loPI    C210530   4.559  19.452   9.708 -0.0338  0.1632  0.2655
  659loPI    C310531   4.355  19.200   9.942 -0.0110 -0.1156 -0.0077
  659loPI   PO410532   4.243  19.161   9.356 -0.2909 -0.2554 -0.0403
  659loPI   GL110533   4.167  19.021   8.993 -0.0579 -0.2035 -0.1410
  659loPI   GL210534   4.270  18.684   9.017 -0.2915 -0.2007 -0.0738
  659loPI   C1A10535   3.974  19.050   8.609  0.0341  0.0140  0.0246
  659loPI   C2A10536   4.007  19.254   8.232 -0.1082  0.0485 -0.0423
  659loPI   C3A10537   4.078  19.253   7.766  0.1537  0.1822 -0.1632
  659loPI   C4A10538   3.687  19.263   7.523  0.0198 -0.1432  0.2067
  659loPI   C5A10539   3.595  18.886   7.159  0.0856 -0.1691 -0.2317
  659loPI   C6A10540   3.827  19.020   6.711  0.3157  0.0744  0.2022
  659loPI   C1B10541   4.237  18.635   8.579  0.0360 -0.1219  0.0059
  659loPI   C2B10542   4.474  18.794   8.295 -0.2098 -0.0592  0.5219
  659loPI   C3B10543   4.830  18.677   8.094  0.2098 -0.0933 -0.0168
  659loPI   C4B10544   4.980  18.528   7.687 -0.2110  0.2595  0.0072
  660loPI    C110545   3.668  17.934   9.673  0.4365  0.2794 -0.1132
  660loPI    C210546   3.891  17.852   9.995  0.0855  0.1714  0.1080
  660loPI    C310547   3.748  18.222   9.939 -0.0695  0.1289  0.2164
  660loPI   PO410548   3.724  17.808   9.440  0.0712  0.2548  0.1820
  660loPI   GL110549   3.665  17.928   8.976 -0.0493  0.4795  0.0425
  660loPI   GL210550   3.778  17.768   8.657  0.0980  0.1717 -0.0434
  660loPI   C1A10551   3.264  17.667   8.642  0.2857 -0.3828 -0.0545
  660loPI   C2A10552   3.322  17.417   8.260 -0.1760  0.1846 -0.2241
  660loPI   C3A10553   3.545  17.100   7.996  0.0629 -0.1776 -0.2348
  660loPI   C4A10554   3.683  16.992   7.614 -0.1679 -0.0716 -0.2402
  660loPI   C5A10555   3.336  16.851   7.274 -0.0408 -0.0026 -0.1553
  660loPI   C6A10556   3.017  16.722   6.977 -0.1319 -0.0802  0.1411
  660loPI   C1B10557   4.049  18.071   8.520  0.2916  0.0915 -0.1900
  660loPI   C2B10558   3.915  18.339   8.312  0.1088 -0.1269 -0.2284
  660loPI   C3B10559   3.998  18.690   8.104 -0.4158  0.1304  0.1286
  660loPI   C4B10560   4.045  18.747   7.626 -0.0834 -0.2059 -0.0872
  661loPI    C110561  18.620  12.219   9.873 -0.1879 -0.0500  0.0760
  661loPI    C210562  18.364  12.430  10.096 -0.4098 -0.3267  0.0883
  661loPI    C310563  18.553  12.115  10.254  0.1587  0.0393  0.1651
  661loPI   PO410564  18.545  12.218   9.650  0.0772 -0.0285 -0.1441
  661loPI   GL110565  18.738  12.375   9.285  0.0631 -0.0795 -0.0721
  661loPI   GL210566  18.955  12.610   9.132  0.1351  0.2365 -0.1061
  661loPI   C1A10567  18.555  12.174   8.939 -0.4654  0.1414 -0.0981
  661loPI   C2A10568  18.562  12.140   8.500 -0.0655  0.2991 -0.0586
  661loPI   C3A10569  18.785  12.044   8.142  0.2221 -0.0793 -0.0920
  661loPI   C4A10570  18.776  11.862   7.767  0.1866 -0.0357  0.0402
  661loPI   C5A10571  18.814  11.885   7.425  0.1719  0.1399 -0.3016
  661loPI   C6A10572  18.872  11.576   7.176  0.0334  0.1469 -0.0897
  661loPI   C1B10573  18.785  12.560   8.755  0.2863 -0.0798  0.2365
  661loPI   C2B10574  19.025  12.527   8.501  0.4656  0.1391  0.0395
  661loPI   C3B10575  19.064  12.528   8.073 -0.0478  0.2478 -0.1389
  661loPI   C4B10576  18.715  12.647   7.669  0.0416 -0.3720 -0.3882
  662loPI    C110577   2.208   8.197  10.122 -0.0301 -0.1691 -0.1046
  662loPI    C210578   2.276   8.034  10.481  0.0247 -0.1705 -0.1156
  662loPI    C310579   1.960   8.273  10.426 -0.0022 -0.1966 -0.0749
  662loPI   PO410580   2.154   7.950   9.942 -0.0905  0.1332 -0.1419
  662loPI   GL110581   2.254   7.761   9.466  0.2728 -0.0619 -0.0472
  662loPI   GL210582   2.202   8.029   9.403 -0.1266 -0.1465  0.3438
  662loPI   C1A10583   2.313   7.505   9.103  0.0190 -0.2854  0.0559
  662loPI   C2A10584   2.370   7.377   8.674  0.2039 -0.1478 -0.2888
  662loPI   C3A10585   2.172   7.354   8.385 -0.0274 -0.0113 -0.0761
  662loPI   C4A10586   1.915   7.314   8.058  0.1512  0.0047  0.0475
  662loPI   C5A10587   1.687   7.400   7.741  0.0531 -0.2605  0.0536
  662loPI   C6A10588   1.449   7.500   7.467 -0.0047 -0.0250  0.1601
  662loPI   C1B10589   1.947   7.952   9.025  0.1387  0.1886 -0.1025
  662loPI   C2B10590   1.969   7.779   8.630  0.0228 -0.2029 -0.0736
  662loPI   C3B10591   1.914   7.778   8.160  0.2287 -0.0155  0.1260
  662loPI   C4B10592   2.086   7.877   7.829  0.0606 -0.2776  0.0384
  663loPI    C110593   3.821  18.732   9.347  0.4133 -0.0170  0.0176
  663loPI    C210594   3.775  18.629   9.731 -0.0458  0.0123 -0.0240
  663loPI    C310595   4.022  18.420   9.496  0.2060 -0.0322  0.2731
  663loPI   PO410596   3.491  18.820   9.284  0.0082  0.0996 -0.3982
  663loPI   GL110597   3.408  18.995   8.872  0.0228  0.3543 -0.1377
  663loPI   GL210598   3.120  18.847   8.851 -0.1310 -0.0835 -0.0354
  663loPI   C1A10599   3.454  19.170   8.478  0.1529  0.0019 -0.0009
  663loPI   C2A10600   3.567  19.068   8.031 -0.2303  0.2579  0.1004
  663loPI   C3A10601   3.492  18.759   7.738 -0.2051  0.0419  0.2855
  663loPI   C4A10602   3.552  18.416   7.425 -0.0659 -0.2053  0.0437
  663loPI   C5A10603   3.884  18.158   7.293 -0.0047 -0.1319  0.5126
  663loPI   C6A10604   4.160  18.118   6.994  0.1869 -0.1527  0.0186
  663loPI   C1B10605   3.381  18.643   8.574  0.0817  0.0227 -0.2342
  663loPI   C2B10606   3.410  18.591   8.188  0.1730 -0.3728  0.1792
  663loPI   C3B10607   3.567  18.281   7.911 -0.0425 -0.0071  0.2331
  663loPI   C4B10608   3.953  18.076   7.870  0.0941  0.2615 -0.1697
  664loPI    C110609  19.512  18.906   9.832  0.0273  0.1588 -0.0841
  664loPI    C210610  19.535  18.746  10.197 -0.0335  0.1766 -0.0724
  664loPI    C310611  19.712  19.097  10.121  0.2650  0.0130 -0.1488
  664loPI   PO410612  19.406  18.659   9.636 -0.0014 -0.2088 -0.1169
  664loPI   GL110613  19.626  18.460   9.219  0.1033 -0.1936 -0.0021
  664loPI   GL210614  19.318  18.312   9.292  0.1109 -0.1811  0.1815
  664loPI   C1A10615  19.577  18.522   8.842  0.0106 -0.0119  0.3623
  664loPI   C2A10616  19.599  18.576   8.446 -0.2436 -0.0199 -0.1056
  664loPI   C3A10617  19.453  18.935   8.149 -0.1768  0.0366  0.0381
  664loPI   C4A10618  19.261  19.011   7.637 -0.1947  0.1168 -0.1120
  664loPI   C5A10619  18.955  19.334   7.498 -0.1683  0.1130 -0.0665
  664loPI   C6A10620  18.835  19.754   7.531  0.3068  0.0012 -0.1698
  664loPI   C1B10621  19.129  18.224   8.876 -0.0342 -0.2947 -0.0625
  664loPI   C2B10622  19.258  18.224   8.416  0.1907 -0.0566  0.1151
  664loPI   C3B10623  19.298  18.010   8.037  0.4023 -0.0604 -0.0553
  664loPI   C4B10624  19.150  17.777   7.582  0.1210 -0.0738 -0.2226
  665loPI    C110625  10.245  11.147  10.131  0.0173 -0.1096 -0.0480
  665loPI    C210626  10.063  11.486  10.023 -0.1875 -0.2341 -0.0989
  665loPI    C310627  10.341  11.491  10.310 -0.1505 -0.0154 -0.1372
  665loPI   PO410628  10.322  11.010   9.850 -0.2321  0.1711  0.0498
  665loPI   GL110629  10.097  10.925   9.375 -0.5046  0.1702 -0.1977
  665loPI   GL210630   9.869  11.173   9.425 -0.1903  0.1518 -0.0127
  665loPI   C1A10631  10.137  10.855   9.032 -0.3002  0.0802  0.1615
  665loPI   C2A10632  10.155  10.994   8.622 -0.0073 -0.0484 -0.1820
  665loPI   C3A10633  10.085  11.154   8.164 -0.0220  0.3291  0.0274
  665loPI   C4A10634  10.042  11.127   7.644  0.1185 -0.0039 -0.0983
  665loPI   C5A10635  10.036  10.724   7.414 -0.3167 -0.1169 -0.0519
  665loPI   C6A10636  10.117  10.424   7.098  0.1447  0.0167 -0.0275
  665loPI   C1B10637  10.009  11.374   9.072  0.3035  0.2725  0.1561
  665loPI   C2B10638  10.077  11.493   8.544 -0.0700  0.2795 -0.0798
  665loPI   C3B10639  10.053  11.765   8.247 -0.3585  0.1179  0.0538
  665loPI   C4B10640  10.264  12.071   7.979  0.4450  0.1531 -0.1091
  666loPI    C110641   2.323  14.015  10.252  0.0749  0.0657  0.1480
  666loPI    C210642   2.259  13.636  10.139  0.2388  0.0358  0.1537
  666loPI    C310643   2.298  13.726  10.527  0.0466  0.0823  0.1630
  666loPI   PO410644   2.436  14.100   9.925 -0.3401 -0.0362 -0.1221
  666loPI   GL110645   2.357  14.124   9.531  0.0308  0.0127 -0.0471
  666loPI   GL210646   2.651  14.281   9.497 -0.0982 -0.5367  0.2930
  666loPI   C1A10647   2.357  13.884   9.154  0.0828 -0.0614 -0.4086
  666loPI   C2A10648   2.536  14.066   8.716  0.0738  0.0662  0.2163
  666loPI   C3A10649   2.693  14.132   8.338  0.2222 -0.0029 -0.1525
  666loPI   C4A10650   2.794  13.981   7.919  0.0244 -0.2039 -0.1245
  666loPI   C5A10651   2.995  14.120   7.573  0.0983 -0.2815 -0.1695
  666loPI   C6A10652   3.256  14.232   7.178 -0.0217  0.0844  0.0837
  666loPI   C1B10653   2.792  14.175   9.104  0.0399 -0.1369  0.2783
  666loPI   C2B10654   2.984  14.048   8.748  0.1153 -0.2061  0.0636
  666loPI   C3B10655   3.107  13.869   8.400  0.1633 -0.3199 -0.0288
  666loPI   C4B10656   3.251  14.026   8.129  0.1153 -0.0840  0.1300
  667loPI    C110657  -0.072  19.736   9.441 -0.0796 -0.1282  0.1670
  667loPI    C210658   0.019  19.494   9.746  0.1992 -0.3403 -0.0786
  667loPI    C310659   0.212  19.458   9.398  0.0945  0.0973 -0.1880
  667loPI   PO410660  -0.320  19.714   9.324  0.3465  0.2488  0.0268
  667loPI   GL110661  -0.388  19.533   8.998  0.1200 -0.0144  0.1094
  667loPI   GL210662  -0.120  19.338   9.019  0.1704  0.1116  0.1218
  667loPI   C1A10663  -0.400  19.438   8.537 -0.1748  0.0454 -0.0049
  667loPI   C2A10664  -0.463  19.438   8.089  0.0225  0.2962 -0.1281
  667loPI   C3A10665  -0.420  19.553   7.687 -0.2327  0.0941 -0.2370
  667loPI   C4A10666  -0.319  19.533   7.257  0.1109 -0.1105 -0.3802
  667loPI   C5A10667   0.083  19.455   7.187 -0.0663  0.0265 -0.1901
  667loPI   C6A10668   0.264  19.415   7.530 -0.0496 -0.0353  0.3428
  667loPI   C1B10669   0.240  19.316   8.649 -0.1968  0.0480 -0.7274
  667loPI   C2B10670   0.527  19.355   8.333 -0.2846 -0.3434 -0.1187
  667loPI   C3B10671   0.522  19.175   7.924 -0.2573 -0.2807 -0.0560
  667loPI   C4B10672   0.719  19.086   7.565 -0.2131 -0.2125  0.0372
  668loPI    C110673  15.757   0.992   9.683 -0.3361 -0.0032 -0.0772
  668loPI    C210674  15.429   1.208   9.758 -0.0942  0.2399  0.3140
  668loPI    C310675  15.514   0.889   9.984 -0.2524 -0.0487 -0.0246
  668loPI   PO410676  15.841   1.058   9.431 -0.0280 -0.0294  0.1485
  668loPI   GL110677  15.959   1.004   8.978 -0.2130  0.0314  0.5318
  668loPI   GL210678  15.640   1.115   8.893  0.1610 -0.0582  0.2515
  668loPI   C1A10679  16.029   0.744   8.654 -0.1555 -0.0251  0.0795
  668loPI   C2A10680  15.985   0.742   8.226  0.0465  0.1014  0.0382
  668loPI   C3A10681  15.958   0.638   7.734  0.2148 -0.2407 -0.3067
  668loPI   C4A10682  15.750   0.806   7.380 -0.2437  0.2203  0.1784
  668loPI   C5A10683  15.371   0.709   7.226 -0.1488  0.1632 -0.4534
  668loPI   C6A10684  15.243   0.394   6.995  0.0331  0.2029  0.2065
  668loPI   C1B10685  15.425   0.794   8.622 -0.0917  0.2369  0.0186
  668loPI   C2B10686  15.539   0.432   8.456  0.0062  0.1989 -0.0823
  668loPI   C3B10687  15.685   0.279   8.114  0.1941  0.2915  0.3248
  668loPI   C4B10688  15.920   0.010   7.781 -0.0085 -0.0477 -0.2161
  669loPI    C110689   7.547  19.665   9.543  0.0855 -0.0371  0.0866
  669loPI    C210690   7.569  19.270   9.482  0.0832 -0.0203 -0.0262
  669loPI    C310691   7.518  19.414   9.853 -0.3357 -0.1420 -0.0310
  669loPI   PO410692   7.560  19.717   9.295  0.1724 -0.0131 -0.0063
  669loPI   GL110693   7.706  19.568   8.953  0.3694  0.2302  0.0383
  669loPI   GL210694   7.432  19.326   8.954 -0.1372  0.0595  0.1525
  669loPI   C1A10695   7.593  19.490   8.471  0.1545  0.4383  0.0540
  669loPI   C2A10696   7.422  19.690   8.217 -0.2529 -0.1767  0.3793
  669loPI   C3A10697   7.357  19.628   7.805  0.0015 -0.1608 -0.1719
  669loPI   C4A10698   6.935  19.637   7.520  0.0118  0.1578 -0.0560
  669loPI   C5A10699   6.823  19.500   7.141  0.0395 -0.0592  0.2683
  669loPI   C6A10700   6.858  19.723   6.680 -0.0714 -0.1014 -0.0844
  669loPI   C1B10701   6.916  19.124   8.719  0.1105 -0.0086 -0.1267
  669loPI   C2B10702   6.662  19.120   8.341  0.3028  0.1131  0.1547
  669loPI   C3B10703   6.651  19.019   7.906  0.2195  0.1633 -0.0769
  669loPI   C4B10704   6.863  18.764   7.598  0.3017  0.1203  0.2611
  670loPI    C110705  16.695   9.865   9.903 -0.0163  0.1555 -0.0361
  670loPI    C210706  16.890  10.020  10.215  0.0001 -0.0419  0.0530
  670loPI    C310707  16.526   9.863  10.265 -0.0134 -0.0390 -0.0348
  670loPI   PO410708  16.847  10.083   9.696 -0.1300  0.0684  0.1944
  670loPI   GL110709  16.738  10.149   9.214 -0.2173 -0.0585  0.1725
  670loPI   GL210710  16.425  10.188   9.443  0.1158  0.1574  0.0731
  670loPI   C1A10711  17.072  10.069   8.899  0.3240  0.1239 -0.0890
  670loPI   C2A10712  17.250   9.902   8.481 -0.0931 -0.2989 -0.2986
  670loPI   C3A10713  17.322   9.720   8.135 -0.0062  0.0866 -0.0263
  670loPI   C4A10714  17.307   9.699   7.640 -0.0233 -0.2819  0.1233
  670loPI   C5A10715  17.069   9.930   7.269 -0.2366 -0.0672 -0.2860
  670loPI   C6A10716  17.062  10.141   6.911 -0.2097  0.0661  0.0403
  670loPI   C1B10717  16.333  10.331   9.023 -0.0548  0.1807  0.1388
  670loPI   C2B10718  16.372  10.417   8.546  0.0404 -0.0436  0.1518
  670loPI   C3B10719  16.399  10.618   8.187  0.0849 -0.3339 -0.0507
  670loPI   C4B10720  16.338  10.728   7.802  0.2232 -0.1433  0.4330
  671loPI    C110721   7.221  15.101   9.848  0.3141  0.1586  0.0078
  671loPI    C210722   7.021  15.425   9.971  0.1193  0.0981 -0.1446
  671loPI    C310723   7.089  15.124  10.225  0.0075  0.1150 -0.0940
  671loPI   PO410724   7.189  15.087   9.550 -0.3780  0.1940 -0.2520
  671loPI   GL110725   7.490  15.004   9.241  0.0739  0.1977 -0.0077
  671loPI   GL210726   7.287  14.658   9.224 -0.0651  0.1263  0.0614
  671loPI   C1A10727   7.494  14.849   8.803  0.1416  0.1203  0.2290
  671loPI   C2A10728   7.547  14.693   8.349 -0.2489  0.1353  0.1531
  671loPI   C3A10729   7.736  14.502   7.977 -0.0061  0.2193 -0.0067
  671loPI   C4A10730   8.004  14.342   7.675  0.0890  0.2856  0.4914
  671loPI   C5A10731   8.351  14.216   7.372 -0.1060 -0.1080 -0.1378
  671loPI   C6A10732   8.483  14.050   7.055 -0.0767 -0.4530 -0.1396
  671loPI   C1B10733   6.969  14.618   9.015  0.0671 -0.0784 -0.2519
  671loPI   C2B10734   6.957  14.126   8.798 -0.1944  0.1364  0.1405
  671loPI   C3B10735   6.822  14.038   8.436  0.0218  0.0891  0.1822
  671loPI   C4B10736   6.928  13.966   8.030  0.0109 -0.0486 -0.2349
  672loPI    C110737   4.750  13.143  10.025 -0.0042  0.1199  0.1587
  672loPI    C210738   4.903  13.480  10.176  0.1124  0.0184  0.2692
  672loPI    C310739   4.781  13.188  10.421 -0.0105 -0.0104  0.1745
  672loPI   PO410740   4.935  13.077   9.796 -0.2228 -0.2984 -0.2605
  672loPI   GL110741   5.051  13.148   9.331 -0.2103  0.0491  0.1325
  672loPI   GL210742   5.285  13.162   9.434  0.1379  0.0048  0.2316
  672loPI   C1A10743   4.829  13.267   8.888  0.0595 -0.2524 -0.4062
  672loPI   C2A10744   4.688  13.283   8.490 -0.0015 -0.1510  0.1241
  672loPI   C3A10745   4.477  13.186   8.137 -0.1306 -0.0742  0.2306
  672loPI   C4A10746   4.448  13.179   7.749  0.3608 -0.0510  0.0545
  672loPI   C5A10747   4.460  13.286   7.358  0.0041  0.2683  0.0462
  672loPI   C6A10748   4.601  13.395   6.954  0.0191 -0.2819  0.0652
  672loPI   C1B10749   5.456  12.999   9.010  0.0472 -0.1001 -0.1056
  672loPI   C2B10750   5.429  12.922   8.512  0.0386 -0.4632  0.0360
  672loPI   C3B10751   5.412  12.827   8.030 -0.2697  0.0879  0.4133
  672loPI   C4B10752   5.547  12.859   7.531 -0.1216 -0.1938  0.2639
  673loPI    C110753  16.441  15.082   9.805  0.3773 -0.1502 -0.2928
  673loPI    C210754  16.803  15.161   9.956  0.2382 -0.1708  0.0606
  673loPI    C310755  16.574  14.879  10.123 -0.1002  0.1129  0.0868
  673loPI   PO410756  16.464  15.037   9.612  0.2613  0.3332  0.1264
  673loPI   GL110757  16.702  14.961   9.280  0.0569 -0.0008  0.3468
  673loPI   GL210758  16.990  15.065   9.139 -0.0785  0.2602  0.2425
  673loPI   C1A10759  16.536  14.792   8.861  0.0398  0.0452  0.3287
  673loPI   C2A10760  16.707  14.863   8.460  0.0455  0.3067  0.0213
  673loPI   C3A10761  16.956  14.731   8.100  0.2814 -0.0915  0.0095
  673loPI   C4A10762  17.038  14.618   7.671  0.0608 -0.0065  0.1351
  673loPI   C5A10763  16.910  14.604   7.265  0.0745 -0.1885  0.1065
  673loPI   C6A10764  16.686  14.162   7.092 -0.0854  0.3578  0.1434
  673loPI   C1B10765  16.730  15.318   8.802  0.0288  0.0041 -0.0540
  673loPI   C2B10766  16.575  15.555   8.542 -0.0842  0.3452  0.4601
  673loPI   C3B10767  16.202  15.827   8.426 -0.1321 -0.1832 -0.2190
  673loPI   C4B10768  16.110  16.094   8.194 -0.1231  0.0626  0.2946
  674loPI    C110769   7.889   2.775   9.428 -0.0125  0.2418  0.0064
  674loPI    C210770   8.148   2.680   9.718 -0.0901 -0.0405 -0.0142
  674loPI    C310771   7.763   2.747   9.807 -0.0506  0.1914 -0.0100
  674loPI   PO410772   7.846   2.559   9.247 -0.0970 -0.2048 -0.0461
  674loPI   GL110773   7.760   2.567   8.760  0.5106 -0.0108  0.2979
  674loPI   GL210774   8.093   2.320   8.724 -0.1953  0.1756  0.0455
  674loPI   C1A10775   7.861   2.629   8.303 -0.1126  0.2816 -0.1566
  674loPI   C2A10776   8.037   2.453   7.850  0.0786  0.0451 -0.2776
  674loPI   C3A10777   8.070   2.445   7.431  0.1115 -0.0589 -0.1965
  674loPI   C4A10778   8.097   2.495   6.990 -0.0195 -0.0216 -0.0392
  674loPI   C5A10779   8.385   2.497   6.713 -0.0272 -0.2264  0.1887
  674loPI   C6A10780   8.835   2.790   6.560  0.0205 -0.4224  0.1019
  674loPI   C1B10781   8.270   2.290   8.284  0.1850 -0.2880 -0.1204
  674loPI   C2B10782   8.557   2.301   7.798 -0.0205 -0.0886 -0.2222
  674loPI   C3B10783   8.929   2.338   7.445 -0.1243 -0.0599 -0.0570
  674loPI   C4B10784   9.188   2.642   7.123 -0.1471  0.7926 -0.0723
  675loPI    C110785  11.688  10.591   9.926 -0.0006 -0.0424 -0.1857
  675loPI    C210786  11.759  10.984   9.932  0.4548 -0.1210  0.0716
  675loPI    C310787  11.567  10.810  10.237  0.1776 -0.0895 -0.0816
  675loPI   PO410788  11.540  10.470   9.714 -0.2835 -0.2295 -0.2301
  675loPI   GL110789  11.267  10.522   9.300  0.1239  0.3175 -0.2370
  675loPI   GL210790  10.884  10.513   9.310 -0.1887  0.1529 -0.1780
  675loPI   C1A10791  11.439  10.351   8.903 -0.3048  0.0461  0.2224
  675loPI   C2A10792  11.632  10.594   8.511 -0.1459 -0.0582 -0.0205
  675loPI   C3A10793  11.649  10.749   8.110  0.1267  0.0946 -0.3785
  675loPI   C4A10794  11.719  11.098   7.931  0.1062 -0.0457 -0.1531
  675loPI   C5A10795  11.997  11.408   7.983  0.0468  0.2386 -0.2190
  675loPI   C6A10796  12.116  11.766   7.962 -0.1470  0.2415  0.1635
  675loPI   C1B10797  10.738  10.450   8.856  0.0573 -0.3077 -0.0252
  675loPI   C2B10798  10.624  10.339   8.468  0.2138  0.1336 -0.1138
  675loPI   C3B10799  10.742  10.332   8.101  0.2056  0.3854  0.1449
  675loPI   C4B10800  10.845  10.560   7.752  0.2602  0.0385 -0.1426
  676loPI    C110801  17.435   5.448   9.864 -0.3564  0.0245  0.0621
  676loPI    C210802  17.711   5.211  10.033 -0.1819  0.0089 -0.2375
  676loPI    C310803  17.560   5.521  10.237  0.1084  0.0584 -0.0937
  676loPI   PO410804  17.454   5.433   9.599 -0.0885  0.2817 -0.1468
  676loPI   GL110805  17.651   5.290   9.269  0.0359 -0.1103  0.2625
  676loPI   GL210806  17.942   5.347   9.166  0.0960  0.2082  0.1119
  676loPI   C1A10807  17.355   5.242   8.981  0.1453  0.0964 -0.4122
  676loPI   C2A10808  17.221   4.913   8.803 -0.1924  0.1132  0.0809
  676loPI   C3A10809  17.292   4.924   8.233  0.1005 -0.0045  0.2387
  676loPI   C4A10810  17.592   4.862   7.920 -0.2661 -0.0269  0.0610
  676loPI   C5A10811  17.649   5.044   7.487  0.0733  0.2838  0.0007
  676loPI   C6A10812  17.970   4.911   7.193  0.0170 -0.1729  0.2923
  676loPI   C1B10813  17.743   4.992   8.936  0.1557  0.1775  0.3459
  676loPI   C2B10814  17.682   4.873   8.553  0.1202 -0.0448 -0.0431
  676loPI   C3B10815  17.891   4.647   8.279  0.1131 -0.1935  0.2855
  676loPI   C4B10816  18.181   4.395   8.061 -0.1707  0.2768  0.0430
  677loPI    C110817  17.550  17.929   4.015 -0.2283  0.2524 -0.1229
  677loPI    C210818  17.672  18.171   3.721  0.1917  0.1613 -0.0294
  677loPI    C310819  17.758  17.781   3.707  0.0251  0.1187  0.1084
  677loPI   PO410820  17.494  18.033   4.203  0.2876  0.0046 -0.1189
  677loPI   GL110821  17.267  18.066   4.640  0.3312 -0.1377 -0.1698
  677loPI   GL210822  17.555  18.061   4.732 -0.2749  0.0565 -0.0783
  677loPI   C1A10823  17.219  18.191   5.052 -0.0408 -0.0663 -0.0284
  677loPI   C2A10824  17.162  18.416   5.344  0.0813  0.1872  0.2557
  677loPI   C3A10825  17.097  18.445   5.731  0.0949 -0.0062 -0.1679
  677loPI   C4A10826  17.204  18.700   6.048 -0.4080  0.1025 -0.2280
  677loPI   C5A10827  17.400  18.908   6.314 -0.0373 -0.0581 -0.1241
  677loPI   C6A10828  17.729  18.845   6.585  0.0051  0.1059  0.1435
  677loPI   C1B10829  17.662  18.058   5.237 -0.1924 -0.0410  0.1717
  677loPI   C2B10830  17.448  18.035   5.636 -0.0891  0.4903 -0.0130
  677loPI   C3B10831  17.356  18.205   6.032 -0.1227 -0.1468 -0.0622
  677loPI   C4B10832  17.547  18.327   6.395  0.1596 -0.0418  0.1321
  678loPI    C110833  18.361  17.092   4.610  0.3456 -0.1438  0.1677
  678loPI    C210834  18.558  16.780   4.764 -0.0503 -0.4733  0.0251
  678loPI    C310835  18.551  16.836   4.368  0.0806 -0.2369  0.0543
  678loPI   PO410836  18.411  17.267   4.684 -0.0517  0.1336  0.0430
  678loPI   GL110837  18.428  17.660   4.988 -0.2070  0.1914 -0.1416
  678loPI   GL210838  18.231  17.563   5.094  0.0569  0.1086  0.1029
  678loPI   C1A10839  18.528  17.562   5.494  0.1229  0.2462  0.0393
  678loPI   C2A10840  18.327  17.526   5.921  0.0190  0.1878 -0.1151
  678loPI   C3A10841  18.067  17.591   6.288  0.1614  0.2726 -0.0045
  678loPI   C4A10842  18.328  17.665   6.618  0.0474  0.1055 -0.0041
  678loPI   C5A10843  18.593  18.088   6.760 -0.0930 -0.0861 -0.0894
  678loPI   C6A10844  18.859  18.357   6.767  0.2338  0.0270 -0.1907
  678loPI   C1B10845  18.127  17.923   5.366 -0.0587 -0.1197 -0.0785
  678loPI   C2B10846  17.900  17.733   5.810  0.3705  0.0642  0.1440
  678loPI   C3B10847  17.773  17.974   6.176 -0.2578 -0.1767  0.1301
  678loPI   C4B10848  18.071  18.126   6.458  0.1448 -0.0557 -0.2765
  679loPI    C110849   6.310  14.190   4.884  0.0712  0.0779  0.0583
  679loPI    C210850   6.200  14.449   4.600 -0.0060  0.0674  0.0784
  679loPI    C310851   6.103  14.518   4.982 -0.1308 -0.0511  0.0687
  679loPI   PO410852   6.663  14.137   4.837  0.1923  0.3784 -0.1453
  679loPI   GL110853   6.849  14.151   5.187  0.2991 -0.3840  0.1139
  679loPI   GL210854   7.144  14.089   5.259 -0.5758 -0.1160 -0.0699
  679loPI   C1A10855   6.774  14.325   5.569  0.0916 -0.0871  0.0551
  679loPI   C2A10856   6.659  14.662   5.852 -0.0229  0.1827 -0.0337
  679loPI   C3A10857   6.666  15.033   6.019  0.0042  0.0858  0.0869
  679loPI   C4A10858   6.895  15.322   6.316 -0.3109  0.1748  0.3836
  679loPI   C5A10859   6.890  15.746   6.497  0.1926 -0.1453  0.2297
  679loPI   C6A10860   6.911  16.085   6.254  0.1519  0.0161 -0.1445
  679loPI   C1B10861   7.220  13.943   5.658 -0.1296 -0.2011  0.1962
  679loPI   C2B10862   7.156  13.832   6.057  0.1744  0.0323 -0.1527
  679loPI   C3B10863   6.830  13.695   6.362  0.2179 -0.1256 -0.0540
  679loPI   C4B10864   6.894  13.613   6.792 -0.1816  0.0455  0.1700
  680loPI    C110865  10.000   0.340   3.984 -0.1644 -0.0053  0.0216
  680loPI    C210866  10.021   0.658   4.227 -0.0210  0.0949 -0.1195
  680loPI    C310867  10.093   0.700   3.836  0.2561 -0.1578 -0.0992
  680loPI   PO410868  10.195   0.192   4.145  0.3894  0.1338 -0.1117
  680loPI   GL110869  10.303   0.125   4.558 -0.0646 -0.4049 -0.2499
  680loPI   GL210870  10.631   0.261   4.475 -0.0135  0.3930  0.0708
  680loPI   C1A10871  10.319   0.497   4.842 -0.1629  0.1759  0.1860
  680loPI   C2A10872  10.362   0.423   5.248 -0.0505  0.2070 -0.1788
  680loPI   C3A10873  10.265   0.304   5.758 -0.3005 -0.3738  0.4716
  680loPI   C4A10874  10.261   0.296   6.231 -0.1708 -0.1496  0.0092
  680loPI   C5A10875  10.074   0.413   6.683  0.1099 -0.2326 -0.0258
  680loPI   C6A10876   9.767   0.797   6.860 -0.0875 -0.4190  0.1280
  680loPI   C1B10877  10.815   0.311   4.934  0.1296  0.1077  0.5494
  680loPI   C2B10878  10.876   0.392   5.328  0.3112 -0.1009 -0.1916
  680loPI   C3B10879  11.142   0.433   5.685 -0.0132  0.1610 -0.0131
  680loPI   C4B10880  11.242   0.277   6.030  0.1203  0.1598 -0.0075
  681loPI    C110881   2.412   8.658   4.706  0.0016  0.1023  0.1952
  681loPI    C210882   2.151   8.518   4.975  0.0967 -0.0727  0.1977
  681loPI    C310883   2.083   8.465   4.585  0.2128 -0.2727  0.2030
  681loPI   PO410884   2.622   8.645   4.980  0.2456 -0.0206  0.1451
  681loPI   GL110885   2.648   8.877   5.329  0.0595  0.1740  0.0267
  681loPI   GL210886   2.558   9.235   5.535  0.0623 -0.0796 -0.2034
  681loPI   C1A10887   2.593   8.765   5.698 -0.1358 -0.0953 -0.2308
  681loPI   C2A10888   2.615   8.838   6.238  0.1569  0.1418  0.3169
  681loPI   C3A10889   2.796   8.860   6.716 -0.0162 -0.1687  0.1283
  681loPI   C4A10890   2.816   8.924   7.087  0.0770 -0.1160  0.3589
  681loPI   C5A10891   2.780   8.930   7.522  0.2828 -0.0505 -0.1631
  681loPI   C6A10892   2.550   9.000   7.899  0.2012  0.4314 -0.2375
  681loPI   C1B10893   2.798   9.229   5.861  0.1178 -0.2677  0.2932
  681loPI   C2B10894   2.862   9.302   6.274 -0.2624 -0.0631  0.1058
  681loPI   C3B10895   3.067   9.279   6.570 -0.1135 -0.1669  0.0604
  681loPI   C4B10896   3.224   9.279   7.004  0.0093  0.1355  0.3959
  682loPI    C110897   2.489  11.326   4.745  0.1957  0.1446  0.0664
  682loPI    C210898   2.261  11.590   4.551 -0.0018 -0.0886 -0.0234
  682loPI    C310899   2.392  11.263   4.363  0.0912 -0.1455  0.1385
  682loPI   PO410900   2.673  11.483   4.840 -0.1053  0.0548  0.0106
  682loPI   GL110901   2.741  11.735   5.282  0.2359 -0.0663 -0.1109
  682loPI   GL210902   2.466  11.544   5.291 -0.0210  0.1321  0.3947
  682loPI   C1A10903   2.719  11.658   5.680 -0.1210 -0.0235  0.4093
  682loPI   C2A10904   2.688  11.553   6.035  0.1123  0.2309 -0.3524
  682loPI   C3A10905   2.371  11.590   6.503  0.0052  0.3615  0.5016
  682loPI   C4A10906   2.268  11.440   6.941 -0.1461 -0.2011  0.1351
  682loPI   C5A10907   1.957  11.173   7.132  0.2410  0.0284  0.1641
  682loPI   C6A10908   1.727  10.841   7.326  0.0528 -0.0469  0.2165
  682loPI   C1B10909   2.712  11.200   5.441  0.1312  0.3238  0.0942
  682loPI   C2B10910   2.964  11.039   5.781 -0.0147  0.0317 -0.2058
  682loPI   C3B10911   3.089  11.169   6.224  0.4802  0.1207 -0.2002
  682loPI   C4B10912   3.206  11.420   6.582  0.2400  0.0359  0.0894
  683loPI    C110913   7.698  15.912   4.614  0.0375  0.0435 -0.0225
  683loPI    C210914   7.446  15.650   4.448 -0.0966  0.2941 -0.2232
  683loPI    C310915   7.838  15.624   4.374 -0.1138  0.1777 -0.2767
  683loPI   PO410916   7.590  15.875   4.890 -0.0818  0.3119 -0.1181
  683loPI   GL110917   7.473  16.071   5.314 -0.0355 -0.1503 -0.4307
  683loPI   GL210918   7.246  16.323   5.451  0.1293  0.0401  0.0331
  683loPI   C1A10919   7.787  16.271   5.642  0.1529 -0.0384  0.1724
  683loPI   C2A10920   7.745  16.401   6.058 -0.1849  0.3027  0.0549
  683loPI   C3A10921   7.563  16.524   6.458 -0.1284  0.2107  0.2812
  683loPI   C4A10922   7.473  16.817   6.722 -0.1510  0.1517 -0.2380
  683loPI   C5A10923   7.580  17.190   6.935 -0.0749 -0.0985 -0.0687
  683loPI   C6A10924   7.882  17.305   7.161  0.0013 -0.0244  0.2135
  683loPI   C1B10925   7.425  16.612   5.738 -0.1108  0.1445  0.1447
  683loPI   C2B10926   7.459  16.830   6.089 -0.0115 -0.1292  0.0125
  683loPI   C3B10927   7.706  17.156   6.384  0.1663  0.0155 -0.1851
  683loPI   C4B10928   7.972  17.417   6.713 -0.2238  0.0043  0.3265
  684loPI    C110929  17.359  18.927   4.060  0.1048 -0.2907  0.0631
  684loPI    C210930  17.641  19.207   4.013 -0.0966 -0.1097 -0.0899
  684loPI    C310931  17.391  19.225   4.325 -0.0330 -0.1876 -0.0342
  684loPI   PO410932  17.480  18.677   4.088 -0.0797  0.0984 -0.0972
  684loPI   GL110933  17.453  18.541   4.545 -0.0195 -0.0569  0.2063
  684loPI   GL210934  17.291  18.765   4.559  0.0416 -0.0242 -0.1910
  684loPI   C1A10935  17.466  18.595   4.991 -0.2437 -0.1924  0.0922
  684loPI   C2A10936  17.690  18.512   5.396  0.1709  0.0670 -0.0035
  684loPI   C3A10937  17.939  18.255   5.665  0.1064 -0.0118 -0.1693
  684loPI   C4A10938  18.261  18.083   5.960 -0.1041 -0.0949 -0.0924
  684loPI   C5A10939  18.501  17.912   6.229  0.1143  0.1266 -0.2530
  684loPI   C6A10940  18.635  17.425   6.310  0.0154 -0.1372 -0.1077
  684loPI   C1B10941  17.129  18.986   5.025 -0.0011  0.0260 -0.1518
  684loPI   C2B10942  17.047  18.893   5.426 -0.2097  0.0222 -0.1554
  684loPI   C3B10943  16.855  18.904   5.792  0.3696 -0.1346 -0.0719
  684loPI   C4B10944  16.818  18.931   6.271  0.1896  0.1240  0.1704
  685loPI    C110945  18.909  10.470   4.608  0.3197 -0.0276 -0.0979
  685loPI    C210946  18.838  10.179   4.342  0.1201 -0.1702  0.1083
  685loPI    C310947  18.612  10.509   4.342  0.0671 -0.2062  0.1522
  685loPI   PO410948  18.962  10.458   4.828 -0.1381 -0.0498 -0.3681
  685loPI   GL110949  19.158  10.800   5.108 -0.0252 -0.1222 -0.2621
  685loPI   GL210950  19.354  11.162   5.232  0.2431 -0.4710 -0.0499
  685loPI   C1A10951  19.317  10.498   5.357 -0.1352 -0.1439  0.0594
  685loPI   C2A10952  19.149  10.535   5.730 -0.1252  0.1319 -0.0446
  685loPI   C3A10953  19.367  10.656   6.121  0.4880  0.0945 -0.2355
  685loPI   C4A10954  19.837  10.861   6.316  0.1921  0.1615 -0.1832
  685loPI   C5A10955  19.977  10.791   6.770 -0.1359 -0.1146 -0.1251
  685loPI   C6A10956  20.213  10.949   7.179  0.2384 -0.2726  0.0131
  685loPI   C1B10957  19.288  11.067   5.661 -0.2644 -0.0260 -0.4268
  685loPI   C2B10958  19.075  11.079   6.003  0.0398  0.0863 -0.0718
  685loPI   C3B10959  19.054  11.261   6.400  0.1619 -0.3397 -0.1781
  685loPI   C4B10960  18.849  11.316   6.778  0.1940  0.6364 -0.1334
  686loPI    C110961  17.085   8.769   4.295  0.2018 -0.2264  0.2495
  686loPI    C210962  17.344   8.820   3.994 -0.1419  0.0675 -0.0047
  686loPI    C310963  17.064   8.536   3.971  0.0360 -0.1269  0.1877
  686loPI   PO410964  17.212   8.898   4.509  0.1890 -0.1141  0.4303
  686loPI   GL110965  17.116   8.966   4.910 -0.1152 -0.2648 -0.3222
  686loPI   GL210966  17.344   9.069   5.181 -0.1233  0.1578  0.0261
  686loPI   C1A10967  16.826   9.072   5.160 -0.3336 -0.2247 -0.2494
  686loPI   C2A10968  16.643   9.095   5.525  0.1378 -0.3038 -0.0622
  686loPI   C3A10969  16.337   9.013   5.769  0.1514 -0.1895 -0.0297
  686loPI   C4A10970  16.081   8.988   6.073 -0.2007 -0.0856  0.0707
  686loPI   C5A10971  15.908   9.140   6.435 -0.0779  0.0563 -0.0585
  686loPI   C6A10972  15.761   9.131   6.800 -0.0662 -0.0987 -0.1970
  686loPI   C1B10973  17.205   8.911   5.556 -0.1412 -0.0428  0.0346
  686loPI   C2B10974  17.395   9.000   5.884  0.1475 -0.2193  0.0743
  686loPI   C3B10975  17.301   9.135   6.255  0.2478 -0.0196  0.0583
  686loPI   C4B10976  17.287   9.295   6.703 -0.0202  0.0478  0.1058
  687loPI    C110977  14.388   5.133   4.128  0.1294  0.0235  0.1904
  687loPI    C210978  14.259   4.779   3.994  0.1804  0.0686  0.0186
  687loPI    C310979  14.153   5.114   3.804  0.0309  0.1569  0.2527
  687loPI   PO410980  14.407   5.067   4.353 -0.1200 -0.1205 -0.1038
  687loPI   GL110981  14.352   5.023   4.801 -0.1665 -0.1201  0.0486
  687loPI   GL210982  14.104   4.788   4.943 -0.1732 -0.2482 -0.2737
  687loPI   C1A10983  14.480   4.963   5.261  0.3059  0.3307 -0.0769
  687loPI   C2A10984  14.579   4.479   5.384 -0.2095 -0.0745 -0.0207
  687loPI   C3A10985  14.666   4.218   5.688  0.0365 -0.2654  0.0740
  687loPI   C4A10986  14.758   3.998   6.035  0.1733  0.0884 -0.0465
  687loPI   C5A10987  14.858   4.029   6.430  0.0005  0.0459  0.0455
  687loPI   C6A10988  14.678   4.175   6.836  0.1150 -0.1176 -0.0248
  687loPI   C1B10989  14.106   4.463   5.344 -0.2956 -0.1286 -0.1542
  687loPI   C2B10990  14.180   4.446   5.755 -0.3053  0.1055  0.1847
  687loPI   C3B10991  14.350   4.193   6.205  0.1959 -0.0396 -0.1067
  687loPI   C4B10992  14.438   3.766   6.415  0.0279  0.6337 -0.0343
  688loPI    C110993  18.523  19.457   4.160 -0.3294 -0.0648  0.0317
  688loPI    C210994  18.769  19.205   3.971 -0.0825  0.0097  0.2480
  688loPI    C310995  18.509  19.425   3.762 -0.1620 -0.2756  0.0409
  688loPI   PO410996  18.733  19.604   4.292 -0.0187 -0.1730  0.0346
  688loPI   GL110997  18.910  19.829   4.716  0.0305 -0.5397  0.1367
  688loPI   GL210998  18.682  19.558   4.749  0.2396  0.0855 -0.3008
  688loPI   C1A10999  18.809  19.958   5.091 -0.0093  0.0404 -0.0279
  688loPI   C2A11000  18.686  20.009   5.470  0.1479  0.0311  0.3195
  688loPI   C3A11001  18.468  20.299   5.749 -0.4550 -0.1078  0.2471
  688loPI   C4A11002  18.187  20.266   5.991  0.4720  0.1157 -0.3099
  688loPI   C5A11003  18.307  20.120   6.415  0.2406  0.3895  0.0088
  688loPI   C6A11004  18.679  19.954   6.571  0.4244  0.3496  0.1228
  688loPI   C1B11005  18.958  19.409   5.109  0.2987 -0.1624 -0.0435
  688loPI   C2B11006  18.913  19.569   5.441  0.0573  0.1096  0.2695
  688loPI   C3B11007  19.049  19.909   5.781  0.0613 -0.0821  0.1501
  688loPI   C4B11008  19.329  20.071   6.057  0.0216 -0.0643 -0.2707
  689loPI    C111009   5.890   9.329   4.483  0.1437 -0.2324 -0.2668
  689loPI    C211010   6.289   9.319   4.459  0.1796  0.3819 -0.0970
  689loPI    C311011   6.082   9.578   4.235 -0.1311  0.0444 -0.2088
  689loPI   PO411012   5.887   9.280   4.850  0.1633 -0.1322  0.0356
  689loPI   GL111013   5.578   9.235   5.202 -0.1726 -0.2175 -0.0237
  689loPI   GL211014   5.460   9.452   5.390 -0.0136  0.1561 -0.1415
  689loPI   C1A11015   5.750   8.990   5.548  0.2166 -0.1203 -0.0238
  689loPI   C2A11016   5.740   8.615   5.754  0.2993  0.3713  0.5602
  689loPI   C3A11017   5.671   8.351   5.966  0.2770  0.0780 -0.0720
  689loPI   C4A11018   5.720   8.180   6.393  0.0284  0.0415 -0.0127
  689loPI   C5A11019   5.890   7.955   6.729  0.1064 -0.1591 -0.0461
  689loPI   C6A11020   5.711   8.142   7.152 -0.1137  0.1621 -0.1765
  689loPI   C1B11021   5.340   9.264   5.799  0.0855  0.0399 -0.2203
  689loPI   C2B11022   5.325   9.154   6.132 -0.0038 -0.1083 -0.0904
  689loPI   C3B11023   5.463   9.149   6.668  0.3500  0.2214  0.3282
  689loPI   C4B11024   5.404   8.990   7.017 -0.2751  0.0097  0.0280
  690loPI    C111025  14.128   8.661   4.761 -0.0299 -0.1872  0.1382
  690loPI    C211026  14.314   8.326   4.877  0.1967 -0.0247  0.2520
  690loPI    C311027  14.417   8.503   4.533 -0.2369 -0.3165 -0.0382
  690loPI   PO411028  14.074   8.758   4.940 -0.1148 -0.1317  0.2568
  690loPI   GL111029  14.100   8.715   5.395 -0.0808 -0.2800 -0.2575
  690loPI   GL211030  13.985   8.400   5.440 -0.1399  0.1194 -0.0449
  690loPI   C1A11031  14.488   8.861   5.660  0.1723 -0.0798  0.1634
  690loPI   C2A11032  14.603   8.882   6.108 -0.4289 -0.1182 -0.0332
  690loPI   C3A11033  14.731   8.569   6.447 -0.2538 -0.1446  0.0735
  690loPI   C4A11034  14.518   8.383   6.797 -0.0532 -0.0760 -0.2547
  690loPI   C5A11035  14.329   8.269   7.175  0.2184 -0.2403 -0.3474
  690loPI   C6A11036  14.018   8.051   7.472 -0.0678  0.0446  0.1955
  690loPI   C1B11037  14.101   8.526   5.860 -0.1687  0.1352  0.0074
  690loPI   C2B11038  14.220   8.530   6.235  0.2292  0.1668  0.0512
  690loPI   C3B11039  13.965   8.470   6.570 -0.2943 -0.0287  0.0441
  690loPI   C4B11040  13.900   8.140   6.921  0.0374  0.1817 -0.0185
  691loPI    C111041   6.498  19.127   4.021  0.1055  0.1313  0.0161
  691loPI    C211042   6.332  19.187   4.380  0.3803 -0.0111  0.1706
  691loPI    C311043   6.124  19.266   4.047  0.0648 -0.0319  0.3587
  691loPI   PO411044   6.784  19.204   4.091 -0.1802 -0.2636  0.2339
  691loPI   GL111045   6.884  19.415   4.337  0.5012  0.1106 -0.0841
  691loPI   GL211046   7.069  19.638   4.345  0.0705 -0.1482 -0.4055
  691loPI   C1A11047   6.670  19.315   4.759 -0.3418 -0.0513  0.0227
  691loPI   C2A11048   6.412  19.569   5.052  0.1516  0.1592 -0.2439
  691loPI   C3A11049   6.496  19.673   5.398 -0.0662 -0.3825  0.0907
  691loPI   C4A11050   6.568  19.592   5.885  0.1870  0.3285 -0.3006
  691loPI   C5A11051   6.784  19.441   6.123 -0.0658  0.2678  0.0421
  691loPI   C6A11052   7.048  19.392   6.377 -0.0976 -0.0892  0.1505
  691loPI   C1B11053   6.780  19.784   4.693  0.1260 -0.2839  0.1421
  691loPI   C2B11054   6.931  19.749   5.097  0.1182  0.0854  0.2663
  691loPI   C3B11055   7.195  20.018   5.159  0.2530 -0.1050  0.2449
  691loPI   C4B11056   7.141  20.385   5.309 -0.0910 -0.0254 -0.1042
  692loPI    C111057  19.196  12.389   4.437  0.0597  0.1769 -0.0010
  692loPI    C211058  19.443  12.672   4.300  0.1826 -0.0466 -0.2483
  692loPI    C311059  19.187  12.492   4.051 -0.1196  0.0692 -0.0266
  692loPI   PO411060  19.380  12.326   4.591  0.2038  0.2369 -0.3810
  692loPI   GL111061  19.488  12.169   4.899  0.0511 -0.3441 -0.1389
  692loPI   GL211062  19.274  12.399   5.165  0.3506 -0.1747  0.0018
  692loPI   C1A11063  19.712  12.190   5.232 -0.0087 -0.0285  0.0027
  692loPI   C2A11064  19.972  12.364   5.534  0.0845  0.1097  0.5619
  692loPI   C3A11065  19.950  12.561   5.874 -0.0629  0.2575  0.3764
  692loPI   C4A11066  19.969  12.578   6.287  0.2143 -0.0909 -0.0389
  692loPI   C5A11067  20.112  12.627   6.681  0.0453  0.1404  0.0317
  692loPI   C6A11068  20.126  12.853   7.070  0.1313  0.1342  0.1174
  692loPI   C1B11069  19.017  12.723   5.403  0.0986 -0.1168 -0.0296
  692loPI   C2B11070  18.926  12.765   5.773  0.1208  0.0380 -0.0615
  692loPI   C3B11071  18.938  12.545   6.165 -0.2210 -0.0478 -0.1346
  692loPI   C4B11072  18.748  12.344   6.452 -0.0965  0.1735  0.0566
  693loPI    C111073   7.625   9.196   4.839 -0.0422 -0.1658  0.0421
  693loPI    C211074   7.250   9.218   4.701  0.0294 -0.3433 -0.1871
  693loPI    C311075   7.524   9.481   4.577 -0.0811 -0.0388  0.1934
  693loPI   PO411076   7.599   8.973   4.968 -0.3292 -0.3446 -0.0012
  693loPI   GL111077   7.778   8.842   5.293  0.1957 -0.0214  0.1188
  693loPI   GL211078   7.356   8.819   5.454  0.0431 -0.1349  0.1935
  693loPI   C1A11079   7.827   8.861   5.700 -0.3524 -0.0458  0.0708
  693loPI   C2A11080   7.887   8.908   6.127  0.2106  0.1633  0.1192
  693loPI   C3A11081   7.772   9.039   6.524  0.2858 -0.2037 -0.0788
  693loPI   C4A11082   7.698   9.019   7.019  0.0643 -0.0449  0.3412
  693loPI   C5A11083   7.303   9.140   7.168 -0.0093 -0.2342  0.1351
  693loPI   C6A11084   7.050   9.003   7.603 -0.3121  0.0605 -0.0565
  693loPI   C1B11085   7.281   8.735   5.803  0.0133  0.0521 -0.0567
  693loPI   C2B11086   7.020   8.707   6.212  0.3310  0.1587 -0.1368
  693loPI   C3B11087   6.812   8.712   6.633  0.0883 -0.2402 -0.1956
  693loPI   C4B11088   6.869   8.843   7.093  0.0715 -0.1622  0.1946
  694loPI    C111089  16.686   9.925   4.255 -0.0677 -0.0068  0.0043
  694loPI    C211090  16.734   9.648   3.970  0.0755  0.0339 -0.0118
  694loPI    C311091  17.039   9.741   4.213 -0.0597 -0.0353  0.1872
  694loPI   PO411092  16.475   9.791   4.506 -0.0262 -0.0042 -0.1063
  694loPI   GL111093  16.405   9.492   4.930 -0.0672  0.1104  0.4523
  694loPI   GL211094  16.179   9.662   4.848 -0.0937  0.3318  0.2559
  694loPI   C1A11095  16.244   9.273   5.226  0.0170 -0.0498 -0.0853
  694loPI   C2A11096  15.904   9.195   5.577  0.0308  0.1838 -0.1000
  694loPI   C3A11097  15.836   9.468   6.023 -0.2077 -0.1632 -0.2095
  694loPI   C4A11098  15.595   9.552   6.478 -0.2065  0.1935  0.3418
  694loPI   C5A11099  15.374   9.437   6.899  0.0156  0.1620  0.0408
  694loPI   C6A11100  15.105   9.135   7.024  0.1274  0.0327  0.0941
  694loPI   C1B11101  15.892   9.710   5.243  0.1033 -0.1511 -0.0610
  694loPI   C2B11102  15.927   9.766   5.614  0.0528  0.1851 -0.1130
  694loPI   C3B11103  16.133   9.889   6.030 -0.0788 -0.3831 -0.0090
  694loPI   C4B11104  15.982   9.912   6.455  0.2004 -0.2934  0.0861
  695loPI    C111105  10.415  12.609   4.533 -0.0253  0.1364  0.0417
  695loPI    C211106  10.079  12.825   4.525 -0.1366 -0.0372 -0.0094
  695loPI    C311107  10.297  12.784   4.193 -0.0043  0.1679  0.0507
  695loPI   PO411108  10.364  12.580   4.828 -0.1242  0.1408  0.3082
  695loPI   GL111109  10.354  12.257   5.237 -0.1870 -0.1929 -0.0866
  695loPI   GL211110  10.244  12.509   5.385  0.4179  0.1148 -0.0336
  695loPI   C1A11111  10.459  12.096   5.637 -0.1187 -0.2515 -0.3045
  695loPI   C2A11112  10.623  12.144   6.083  0.0304  0.0928 -0.0875
  695loPI   C3A11113  10.610  12.028   6.625  0.1657  0.2316  0.3352
  695loPI   C4A11114  10.492  12.055   7.018 -0.0069  0.0179 -0.0993
  695loPI   C5A11115  10.753  11.914   7.332 -0.0041 -0.1434  0.0637
  695loPI   C6A11116  10.762  11.802   7.710  0.0260  0.1567 -0.2768
  695loPI   C1B11117  10.033  12.359   5.714 -0.0368  0.2329  0.1267
  695loPI   C2B11118  10.049  12.446   6.140  0.1138 -0.1382 -0.1443
  695loPI   C3B11119  10.062  12.723   6.477 -0.2577 -0.0454  0.2984
  695loPI   C4B11120  10.029  13.169   6.577 -0.0791  0.1266  0.1538
  696loPI    C111121   0.611  11.612   4.788  0.0428 -0.1454  0.0336
  696loPI    C211122   0.434  11.703   4.441  0.3174 -0.0577 -0.0859
  696loPI    C311123   0.658  11.373   4.471  0.1373 -0.1686  0.0648
  696loPI   PO411124   0.396  11.757   4.937  0.1370 -0.2966 -0.1071
  696loPI   GL111125   0.446  11.988   5.338  0.1308  0.2730  0.1093
  696loPI   GL211126   0.179  11.692   5.446  0.1238  0.0521 -0.1770
  696loPI   C1A11127   0.360  12.058   5.863  0.2962 -0.1678 -0.0869
  696loPI   C2A11128   0.422  12.123   6.309  0.2112 -0.2807 -0.1895
  696loPI   C3A11129   0.420  11.822   6.638  0.2630 -0.1969  0.0301
  696loPI   C4A11130   0.285  11.769   6.962  0.1407  0.0117  0.1973
  696loPI   C5A11131   0.278  11.816   7.405 -0.1479 -0.1088  0.3166
  696loPI   C6A11132   0.615  11.741   7.775  0.2222  0.4087 -0.0452
  696loPI   C1B11133   0.100  11.653   5.895 -0.0487 -0.2803  0.0877
  696loPI   C2B11134   0.080  11.564   6.340 -0.2123 -0.2170  0.1623
  696loPI   C3B11135  -0.042  11.326   6.768 -0.2168  0.0335 -0.1041
  696loPI   C4B11136  -0.099  11.204   7.286 -0.0434 -0.2870  0.2325
  697loPI    C111137   9.011  14.228   4.601 -0.0116 -0.0406 -0.0916
  697loPI    C211138   8.701  14.158   4.358 -0.0431 -0.0063 -0.0616
  697loPI    C311139   8.936  13.856   4.475 -0.0076 -0.0179 -0.1618
  697loPI   PO411140   8.908  14.456   4.714 -0.1182  0.0894  0.1091
  697loPI   GL111141   8.975  14.421   5.127 -0.3506  0.1909 -0.2336
  697loPI   GL211142   8.832  14.311   5.364 -0.2281 -0.1341 -0.1502
  697loPI   C1A11143   9.358  14.438   5.520 -0.1164 -0.2149 -0.2765
  697loPI   C2A11144   9.461  14.619   5.942 -0.0013  0.2720  0.0761
  697loPI   C3A11145   9.625  14.689   6.253 -0.0237  0.0155 -0.1054
  697loPI   C4A11146   9.570  14.682   6.694  0.1717  0.3361 -0.2153
  697loPI   C5A11147   9.414  14.711   7.133 -0.2976  0.0391  0.2655
  697loPI   C6A11148   9.521  14.721   7.528 -0.4053  0.2113 -0.2248
  697loPI   C1B11149   8.835  14.427   5.701  0.0159 -0.0190  0.1676
  697loPI   C2B11150   8.934  14.677   5.994  0.0721 -0.0678 -0.3249
  697loPI   C3B11151   9.111  15.059   6.101 -0.1765  0.1948  0.0439
  697loPI   C4B11152   9.452  15.147   6.137 -0.0344 -0.0233  0.3069
  698loPI    C111153   0.422   7.401   4.737  0.0606  0.0863 -0.4131
  698loPI    C211154   0.577   7.147   4.470 -0.0023 -0.3193 -0.0736
  698loPI    C311155   0.181   7.169   4.519  0.0043 -0.1748 -0.0810
  698loPI   PO411156   0.686   7.430   4.959  0.1248  0.1179 -0.1158
  698loPI   GL111157   0.753   7.225   5.381 -0.0840  0.0242  0.1853
  698loPI   GL211158   0.444   7.247   5.401 -0.2126 -0.0790 -0.2167
  698loPI   C1A11159   0.710   7.082   5.815  0.1249  0.0541  0.1476
  698loPI   C2A11160   0.801   7.000   6.243  0.3850  0.0767 -0.3598
  698loPI   C3A11161   0.757   7.087   6.665 -0.0799  0.4772  0.2919
  698loPI   C4A11162   0.953   7.397   6.956  0.2762 -0.0453  0.0543
  698loPI   C5A11163   0.976   7.521   7.271 -0.0916 -0.2571  0.0904
  698loPI   C6A11164   0.758   7.434   7.670 -0.2662 -0.1064 -0.0917
  698loPI   C1B11165   0.189   7.123   5.688  0.1501  0.2776 -0.1705
  698loPI   C2B11166   0.252   6.978   6.101  0.2027 -0.0877  0.2197
  698loPI   C3B11167   0.406   6.774   6.382  0.0655  0.0833  0.1318
  698loPI   C4B11168   0.421   6.641   6.844  0.1423 -0.2184  0.1487
  699loPI    C111169   3.293   3.139   4.553  0.2160  0.1071  0.0593
  699loPI    C211170   2.995   3.295   4.336 -0.0654 -0.1755  0.2347
  699loPI    C311171   3.340   3.196   4.159 -0.0031  0.3201  0.0617
  699loPI   PO411172   3.160   3.008   4.807 -0.2809 -0.5942  0.0570
  699loPI   GL111173   3.311   2.710   5.002  0.0758  0.0309 -0.1532
  699loPI   GL211174   3.513   2.416   5.043 -0.0839 -0.1392  0.1119
  699loPI   C1A11175   3.017   2.679   5.397 -0.0097  0.3414  0.1016
  699loPI   C2A11176   3.015   2.783   5.817  0.3470  0.0722  0.2006
  699loPI   C3A11177   3.332   2.527   6.121 -0.0115 -0.3587 -0.1420
  699loPI   C4A11178   3.430   2.362   6.470 -0.3314 -0.0787  0.0481
  699loPI   C5A11179   3.887   2.190   6.754  0.3541  0.1059 -0.2083
  699loPI   C6A11180   4.235   2.026   6.796  0.1299 -0.0134  0.1277
  699loPI   C1B11181   3.719   2.209   5.359  0.1539  0.0017 -0.1386
  699loPI   C2B11182   3.753   2.200   5.805 -0.0888  0.0521 -0.1754
  699loPI   C3B11183   3.848   2.422   6.084  0.2379 -0.0458 -0.1268
  699loPI   C4B11184   4.095   2.471   6.389  0.0917 -0.1143  0.1180
  700loPI    C111185  13.146  12.382   4.458  0.0167  0.0372 -0.1802
  700loPI    C211186  13.118  12.111   4.165 -0.0108  0.1504 -0.2832
  700loPI    C311187  13.469  12.286   4.243  0.0271  0.0192 -0.1565
  700loPI   PO411188  13.046  12.288   4.686  0.0979 -0.0678  0.1496
  700loPI   GL111189  13.227  12.124   5.097 -0.2546 -0.1993 -0.0309
  700loPI   GL211190  13.356  12.371   5.270  0.5005  0.3329  0.0886
  700loPI   C1A11191  13.033  12.042   5.525 -0.0602  0.2735 -0.1076
  700loPI   C2A11192  12.940  11.946   5.861  0.3523 -0.1548 -0.0728
  700loPI   C3A11193  12.579  11.737   6.114 -0.0476 -0.1262  0.2190
  700loPI   C4A11194  12.519  11.843   6.501 -0.0520  0.2098 -0.2780
  700loPI   C5A11195  12.511  11.866   6.883 -0.0726 -0.1293  0.0712
  700loPI   C6A11196  12.645  12.105   7.174 -0.3027 -0.1443 -0.1643
  700loPI   C1B11197  13.144  12.554   5.541  0.2590 -0.0035  0.0571
  700loPI   C2B11198  13.284  12.297   5.887 -0.2491  0.2005 -0.1478
  700loPI   C3B11199  13.302  12.186   6.228 -0.3149  0.1446  0.0006
  700loPI   C4B11200  12.991  11.898   6.366 -0.0416  0.1862  0.0468
  701loPI    C111201  11.846   1.320   4.386 -0.2240  0.0580  0.2361
  701loPI    C211202  11.761   1.252   4.001  0.4721  0.0007  0.0781
  701loPI    C311203  11.690   0.969   4.275  0.0915 -0.0058 -0.0212
  701loPI   PO411204  11.968   1.537   4.417  0.1984 -0.0290  0.1786
  701loPI   GL111205  12.170   1.570   4.775 -0.3168 -0.1102 -0.1297
  701loPI   GL211206  12.032   1.903   4.811  0.0695 -0.0185 -0.0047
  701loPI   C1A11207  11.918   1.580   5.171  0.0653  0.1886 -0.1802
  701loPI   C2A11208  11.912   1.660   5.568  0.0649 -0.0775 -0.1697
  701loPI   C3A11209  11.914   1.760   6.057  0.2670  0.1666 -0.0113
  701loPI   C4A11210  11.782   1.807   6.458 -0.0763  0.0819  0.1372
  701loPI   C5A11211  11.574   2.140   6.720 -0.1203  0.2994 -0.2345
  701loPI   C6A11212  11.631   2.461   7.116 -0.0153 -0.3584 -0.0053
  701loPI   C1B11213  11.894   2.007   5.220  0.2841 -0.1692  0.1442
  701loPI   C2B11214  12.028   2.127   5.642 -0.1222 -0.4666 -0.2988
  701loPI   C3B11215  12.378   1.996   5.972 -0.1725  0.0150  0.0510
  701loPI   C4B11216  12.330   1.787   6.432  0.0571 -0.4852  0.2967
  702loPI    C111217  11.763  11.572   4.640 -0.0785 -0.1144  0.1467
  702loPI    C211218  11.666  11.236   4.446  0.0783 -0.0472 -0.0505
  702loPI    C311219  11.707  11.580   4.244 -0.1730  0.1114  0.1630
  702loPI   PO411220  11.599  11.521   4.896 -0.3736  0.0807  0.0766
  702loPI   GL111221  11.566  11.591   5.386  0.1911 -0.3421  0.0152
  702loPI   GL211222  11.796  11.361   5.385 -0.3752 -0.0403 -0.2392
  702loPI   C1A11223  11.507  11.735   5.857 -0.0408  0.2089 -0.0462
  702loPI   C2A11224  11.664  11.788   6.283 -0.1589  0.1729 -0.3134
  702loPI   C3A11225  11.604  12.146   6.550  0.0490  0.0895  0.2728
  702loPI   C4A11226  11.386  12.344   6.936  0.1340  0.2440  0.0832
  702loPI   C5A11227  11.596  12.221   7.289 -0.1458  0.1190 -0.2727
  702loPI   C6A11228  11.826  12.066   7.571  0.0817  0.1448 -0.0552
  702loPI   C1B11229  12.010  11.086   5.776 -0.3090  0.2495 -0.4689
  702loPI   C2B11230  12.049  10.841   6.214  0.0577  0.2458  0.1576
  702loPI   C3B11231  11.772  10.779   6.661  0.1132  0.0906  0.3771
  702loPI   C4B11232  11.807  10.461   7.024  0.0465 -0.2839 -0.1437
  703loPI    C111233  19.036  13.735   4.803  0.0368 -0.0071 -0.0250
  703loPI    C211234  19.189  14.031   4.583 -0.2141  0.3565  0.2774
  703loPI    C311235  18.853  13.849   4.466  0.1423 -0.0775 -0.1065
  703loPI   PO411236  19.103  13.747   5.002 -0.2430 -0.1332  0.0093
  703loPI   GL111237  19.497  14.092   5.171 -0.0760 -0.1902 -0.0494
  703loPI   GL211238  19.584  14.457   5.240 -0.0146  0.0067 -0.0468
  703loPI   C1A11239  19.427  14.108   5.575 -0.3599 -0.2620 -0.1265
  703loPI   C2A11240  19.613  14.157   5.974  0.2159  0.1227 -0.1707
  703loPI   C3A11241  19.658  14.227   6.397 -0.1524 -0.0429 -0.0357
  703loPI   C4A11242  19.406  14.343   6.749 -0.0171 -0.3000  0.1258
  703loPI   C5A11243  19.181  14.508   7.065 -0.0460  0.1034 -0.0662
  703loPI   C6A11244  19.034  14.865   7.214  0.3537 -0.1400 -0.1851
  703loPI   C1B11245  19.798  14.502   5.680  0.1314 -0.1677 -0.1442
  703loPI   C2B11246  19.797  14.630   6.100 -0.0450 -0.4144 -0.1241
  703loPI   C3B11247  19.735  14.729   6.563  0.2342  0.1278  0.0275
  703loPI   C4B11248  19.783  15.012   6.923  0.0266 -0.0153  0.0820
  704loPI    C111249  10.040   3.897   4.165 -0.2445  0.0641  0.0680
  704loPI    C211250  10.342   3.821   3.914 -0.2502  0.0445  0.0670
  704loPI    C311251  10.091   4.124   3.840  0.0313  0.3426  0.2987
  704loPI   PO411252   9.919   3.737   4.261  0.2373 -0.0314 -0.0492
  704loPI   GL111253  10.008   3.478   4.776 -0.3142 -0.0616  0.1383
  704loPI   GL211254  10.016   3.839   4.702 -0.2550  0.0911 -0.1992
  704loPI   C1A11255   9.735   3.163   4.799 -0.1531 -0.0743 -0.2058
  704loPI   C2A11256   9.386   3.058   5.132  0.3198  0.4783  0.2207
  704loPI   C3A11257   9.400   2.970   5.521 -0.0585 -0.0101  0.2175
  704loPI   C4A11258   9.672   3.027   5.808  0.2915 -0.0083 -0.0626
  704loPI   C5A11259  10.129   3.098   5.773 -0.1194 -0.1521 -0.0993
  704loPI   C6A11260  10.456   3.199   5.909  0.0267  0.1554  0.1654
  704loPI   C1B11261   9.997   3.960   5.098 -0.0800 -0.0241 -0.0664
  704loPI   C2B11262   9.910   3.952   5.515 -0.1489 -0.2267  0.2483
  704loPI   C3B11263   9.831   4.039   5.958 -0.0360  0.2390 -0.1610
  704loPI   C4B11264   9.661   3.967   6.417 -0.0941 -0.1291  0.2643
  705loPI    C111265   2.608  14.757   4.690 -0.1590  0.2202  0.1902
  705loPI    C211266   2.974  14.914   4.724 -0.0939  0.1472 -0.1423
  705loPI    C311267   2.754  14.989   4.399 -0.2274 -0.1107 -0.1140
  705loPI   PO411268   2.442  14.789   4.815 -0.1799 -0.2836 -0.0934
  705loPI   GL111269   2.141  14.966   5.164 -0.2896 -0.2641  0.0193
  705loPI   GL211270   2.130  14.572   5.296 -0.1266  0.1122 -0.0964
  705loPI   C1A11271   1.922  15.068   5.570  0.2272  0.2842  0.2545
  705loPI   C2A11272   2.073  15.316   5.904 -0.1417  0.1920  0.0610
  705loPI   C3A11273   2.156  15.417   6.344  0.2392  0.1221  0.0710
  705loPI   C4A11274   2.296  15.324   6.713 -0.4944  0.1271  0.0184
  705loPI   C5A11275   2.599  15.060   6.942 -0.0527 -0.1721 -0.1883
  705loPI   C6A11276   2.564  14.767   7.295 -0.1240 -0.0815 -0.1350
  705loPI   C1B11277   2.136  14.603   5.675  0.1646  0.0686 -0.1483
  705loPI   C2B11278   2.101  14.856   6.098 -0.4853  0.2297  0.2519
  705loPI   C3B11279   1.956  14.972   6.508  0.0287 -0.1414  0.3715
  705loPI   C4B11280   1.731  15.288   6.819 -0.1298  0.2627 -0.1487
  706loPI    C111281   3.942   3.882   4.526  0.1323  0.1447 -0.1083
  706loPI    C211282   4.184   3.854   4.209  0.0763 -0.1904 -0.1254
  706loPI    C311283   3.845   3.641   4.222 -0.0493  0.0157  0.0489
  706loPI   PO411284   4.037   3.800   4.834 -0.0140  0.1721  0.2161
  706loPI   GL111285   3.980   3.529   5.081  0.1992 -0.0630 -0.1449
  706loPI   GL211286   4.282   3.378   5.149 -0.0106  0.5017 -0.2078
  706loPI   C1A11287   3.838   3.438   5.539  0.0855  0.3872 -0.0498
  706loPI   C2A11288   3.759   3.481   5.912  0.1429 -0.4580  0.0007
  706loPI   C3A11289   3.761   3.434   6.384  0.0317 -0.4458 -0.0439
  706loPI   C4A11290   3.763   3.133   6.830  0.1495  0.1385  0.1286
  706loPI   C5A11291   3.462   3.131   7.177  0.1079 -0.0893 -0.1213
  706loPI   C6A11292   3.114   3.491   7.185  0.0445  0.1947 -0.1962
  706loPI   C1B11293   4.308   3.683   5.471  0.0170 -0.0168  0.4423
  706loPI   C2B11294   4.599   3.673   5.858 -0.2288 -0.1221 -0.0567
  706loPI   C3B11295   4.714   3.824   6.246  0.0994 -0.1356  0.0604
  706loPI   C4B11296   4.464   3.851   6.589  0.5608  0.2119  0.1439
  707loPI    C111297  10.556  18.434   4.020 -0.4054 -0.0855  0.1858
  707loPI    C211298  10.822  18.139   4.072 -0.0985  0.1690  0.0922
  707loPI    C311299  10.631  18.178   3.722 -0.2284  0.0125  0.1446
  707loPI   PO411300  10.500  18.456   4.300  0.0723 -0.2499  0.1933
  707loPI   GL111301  10.705  18.673   4.588  0.4722  0.4354  0.0882
  707loPI   GL211302  10.925  18.857   4.557  0.0149  0.0181 -0.2097
  707loPI   C1A11303  10.659  18.822   4.987  0.2126  0.2218 -0.0843
  707loPI   C2A11304  10.624  18.921   5.463 -0.1274 -0.0663  0.0578
  707loPI   C3A11305  10.560  18.996   5.902 -0.2990 -0.0902 -0.1945
  707loPI   C4A11306  10.654  19.139   6.250 -0.2631 -0.0214 -0.0380
  707loPI   C5A11307  10.682  19.000   6.578 -0.2913  0.1767 -0.2962
  707loPI   C6A11308  10.859  18.956   6.913 -0.0752  0.2052  0.0137
  707loPI   C1B11309  10.978  19.239   4.807  0.2231  0.1416  0.0722
  707loPI   C2B11310  10.855  19.339   5.272 -0.3356 -0.1542  0.0758
  707loPI   C3B11311  10.910  19.287   5.666  0.0192  0.1747 -0.1720
  707loPI   C4B11312  11.197  19.218   6.109  0.1728 -0.0422 -0.1772
  708loPI    C111313   4.728   9.783   4.696 -0.1700  0.1872  0.1204
  708loPI    C211314   4.758  10.114   4.473 -0.2091  0.1516  0.0622
  708loPI    C311315   4.783   9.754   4.301 -0.0547  0.1239  0.1407
  708loPI   PO411316   4.819   9.807   4.924  0.1786 -0.1684 -0.2931
  708loPI   GL111317   5.151   9.879   5.140 -0.1530 -0.0634 -0.1629
  708loPI   GL211318   5.429  10.162   5.121  0.1328 -0.0771 -0.0906
  708loPI   C1A11319   5.155   9.826   5.610 -0.3134  0.0220 -0.0231
  708loPI   C2A11320   4.950   9.657   5.953  0.1833 -0.0428 -0.1895
  708loPI   C3A11321   4.588   9.371   6.183 -0.0291  0.0675  0.2880
  708loPI   C4A11322   4.436   9.275   6.646 -0.0975  0.1876  0.1124
  708loPI   C5A11323   4.374   9.137   7.045  0.1047  0.2382 -0.1568
  708loPI   C6A11324   4.562   9.201   7.446  0.0422  0.1023 -0.4614
  708loPI   C1B11325   5.614  10.098   5.578  0.2617  0.1955  0.3848
  708loPI   C2B11326   5.593  10.148   6.014 -0.2070 -0.1917  0.0522
  708loPI   C3B11327   5.882  10.285   6.215  0.1082  0.3408  0.1905
  708loPI   C4B11328   5.985  10.344   6.704  0.2052  0.0408 -0.0262
  709loPI    C111329  14.524   8.011   4.404 -0.0365  0.1083 -0.0866
  709loPI    C211330  14.776   7.835   4.147  0.1558 -0.0904  0.2316
  709loPI    C311331  14.660   8.214   4.087  0.2538 -0.1113 -0.1061
  709loPI   PO411332  14.649   7.941   4.665  0.3990  0.0631  0.0059
  709loPI   GL111333  14.600   7.970   5.091 -0.1642 -0.0700 -0.0764
  709loPI   GL211334  14.362   7.807   5.210  0.0518  0.0053 -0.1280
  709loPI   C1A11335  14.598   8.342   5.363  0.0480 -0.0466 -0.0497
  709loPI   C2A11336  14.691   8.368   5.760  0.2601  0.0399  0.0237
  709loPI   C3A11337  14.896   8.242   6.053 -0.3802  0.0249 -0.2306
  709loPI   C4A11338  14.897   7.840   6.329 -0.0599 -0.2461 -0.1528
  709loPI   C5A11339  15.101   7.628   6.604  0.4133 -0.2140  0.0169
  709loPI   C6A11340  15.085   7.390   6.980  0.1754 -0.1747  0.0165
  709loPI   C1B11341  14.303   8.002   5.663  0.0092 -0.2274 -0.4669
  709loPI   C2B11342  14.414   8.102   6.106  0.0208  0.0610 -0.2518
  709loPI   C3B11343  14.443   7.930   6.581 -0.2408  0.0806  0.0888
  709loPI   C4B11344  14.595   7.580   6.699 -0.0416 -0.0084  0.0677
  710loPI    C111345  13.045   8.740   4.552  0.0660  0.0090  0.0110
  710loPI    C211346  13.243   8.510   4.291  0.0314  0.0941 -0.0907
  710loPI    C311347  13.041   8.831   4.163 -0.0651  0.0820  0.0289
  710loPI   PO411348  13.158   8.817   4.676 -0.0227  0.1658  0.1282
  710loPI   GL111349  13.258   8.828   5.038 -0.1634  0.3317  0.3875
  710loPI   GL211350  13.543   8.978   5.036  0.0066 -0.1218  0.0864
  710loPI   C1A11351  13.548   8.576   5.289 -0.0451 -0.1561 -0.2906
  710loPI   C2A11352  13.576   8.400   5.790  0.0896  0.1286 -0.6936
  710loPI   C3A11353  13.847   8.149   6.045 -0.1178  0.0041  0.0774
  710loPI   C4A11354  13.956   7.943   6.449 -0.1522 -0.3674  0.1678
  710loPI   C5A11355  13.674   7.639   6.633  0.0822 -0.1849 -0.2576
  710loPI   C6A11356  13.307   7.743   6.794 -0.1073  0.3042  0.0174
  710loPI   C1B11357  13.618   8.996   5.505 -0.2063 -0.1972  0.2333
  710loPI   C2B11358  13.760   8.868   5.817 -0.4973  0.0790  0.0918
  710loPI   C3B11359  13.508   8.739   6.210 -0.0105  0.2160 -0.1307
  710loPI   C4B11360  13.276   8.670   6.544 -0.0534  0.0038  0.0459
  711loPI    C111361   0.769  12.436   4.723 -0.0251 -0.0010  0.2204
  711loPI    C211362   0.795  12.086   4.915 -0.0380 -0.1129  0.0211
  711loPI    C311363   0.488  12.157   4.669  0.0774 -0.0448 -0.1043
  711loPI   PO411364   0.876  12.640   4.936  0.2384  0.1998  0.1405
  711loPI   GL111365   0.712  12.493   5.343 -0.4066  0.0227  0.1721
  711loPI   GL211366   1.067  12.742   5.371 -0.0889  0.1370  0.1278
  711loPI   C1A11367   0.697  12.484   5.752 -0.3380 -0.4492  0.2057
  711loPI   C2A11368   0.687  12.573   6.158  0.3413  0.0301 -0.1866
  711loPI   C3A11369   0.766  12.553   6.606 -0.1309  0.0243 -0.0481
  711loPI   C4A11370   0.682  12.200   6.943 -0.0903  0.1336  0.1708
  711loPI   C5A11371   0.708  12.087   7.375  0.3471 -0.2383 -0.1174
  711loPI   C6A11372   0.797  12.201   7.704 -0.1192  0.1165  0.0756
  711loPI   C1B11373   1.193  12.634   5.716  0.1068 -0.1322 -0.0718
  711loPI   C2B11374   1.202  12.485   6.239 -0.0902  0.0728 -0.0123
  711loPI   C3B11375   1.467  12.514   6.621  0.0018  0.1354 -0.0885
  711loPI   C4B11376   1.612  12.478   7.032 -0.1661  0.0789  0.0784
  712loPI    C111377  15.952  11.170   3.960 -0.0275 -0.0489  0.1879
  712loPI    C211378  15.642  11.423   3.952  0.1006  0.1047 -0.0819
  712loPI    C311379  15.674  11.136   3.675  0.0630 -0.0806  0.1027
  712loPI   PO411380  15.936  11.132   4.264 -0.0047  0.2739 -0.1744
  712loPI   GL111381  15.711  11.211   4.569 -0.1643  0.2700 -0.2598
  712loPI   GL211382  15.561  11.033   4.780  0.0150 -0.1797 -0.0155
  712loPI   C1A11383  16.001  11.345   4.909 -0.2981  0.1746 -0.2540
  712loPI   C2A11384  15.929  11.305   5.327  0.1649 -0.3542  0.2557
  712loPI   C3A11385  15.961  11.166   5.737 -0.3519  0.0236  0.0181
  712loPI   C4A11386  15.688  10.971   6.008  0.0169  0.0743  0.1618
  712loPI   C5A11387  15.741  10.832   6.442 -0.1555 -0.1225  0.0833
  712loPI   C6A11388  15.388  10.943   6.740  0.1528 -0.0945  0.0841
  712loPI   C1B11389  15.621  10.953   5.281 -0.0745  0.4895  0.2967
  712loPI   C2B11390  15.849  10.712   5.535  0.1233  0.1098 -0.0420
  712loPI   C3B11391  15.852  10.449   5.829 -0.0141  0.1547 -0.1407
  712loPI   C4B11392  15.944  10.383   6.225 -0.1304  0.0087 -0.0716
  713loPI    C111393   9.370   8.714   4.772  0.1605 -0.0929 -0.1165
  713loPI    C211394   9.223   8.481   4.482 -0.2567  0.2293 -0.1734
  713loPI    C311395   9.297   8.867   4.410  0.0322  0.2166  0.0364
  713loPI   PO411396   9.238   8.630   5.003 -0.2507 -0.0099  0.0192
  713loPI   GL111397   9.331   8.453   5.347  0.0174 -0.0942  0.1378
  713loPI   GL211398   9.585   8.708   5.337 -0.0432  0.0624  0.0012
  713loPI   C1A11399   9.422   8.286   5.688 -0.1564 -0.1057  0.1874
  713loPI   C2A11400   9.426   8.101   6.142  0.0200  0.1934  0.2607
  713loPI   C3A11401   9.263   7.889   6.491 -0.0615 -0.3672 -0.0206
  713loPI   C4A11402   9.261   7.411   6.723  0.0885 -0.2754 -0.0846
  713loPI   C5A11403   9.167   7.230   7.141  0.0648 -0.0557 -0.0059
  713loPI   C6A11404   8.866   7.006   7.177  0.0505  0.0169 -0.1168
  713loPI   C1B11405   9.690   8.710   5.644  0.0045 -0.2770  0.0554
  713loPI   C2B11406   9.646   8.806   6.110  0.1998 -0.1393  0.0235
  713loPI   C3B11407   9.451   9.053   6.480  0.0844 -0.2114  0.0913
  713loPI   C4B11408   9.213   9.262   6.763 -0.1701 -0.4866  0.1062
  714loPI    C111409   6.138  17.209   4.768 -0.1299  0.1327 -0.1901
  714loPI    C211410   6.460  17.162   4.535  0.0633 -0.3515  0.1585
  714loPI    C311411   6.140  16.926   4.486  0.0885 -0.4278  0.3509
  714loPI   PO411412   6.239  17.174   5.001  0.3315  0.0599 -0.1839
  714loPI   GL111413   6.501  16.890   5.280  0.0502  0.1023  0.1499
  714loPI   GL211414   6.298  17.003   5.510  0.1196 -0.1500  0.1094
  714loPI   C1A11415   6.813  16.976   5.564  0.2214 -0.0429 -0.0613
  714loPI   C2A11416   6.967  17.019   6.003 -0.1626 -0.1647  0.1404
  714loPI   C3A11417   7.184  17.177   6.360  0.1127 -0.3987  0.0271
  714loPI   C4A11418   7.276  17.467   6.616  0.1980 -0.1516  0.1388
  714loPI   C5A11419   7.421  17.873   6.799  0.2362 -0.1012 -0.0911
  714loPI   C6A11420   7.346  18.162   7.189 -0.3602 -0.3894  0.1893
  714loPI   C1B11421   6.238  16.990   5.967  0.1222  0.2829 -0.1064
  714loPI   C2B11422   6.482  16.938   6.398  0.1802 -0.1028  0.1821
  714loPI   C3B11423   6.724  17.124   6.550  0.5353 -0.1281 -0.1137
  714loPI   C4B11424   6.998  17.178   6.926 -0.2543  0.0371  0.1151
  715loPI    C111425   3.863  12.001   4.385  0.1430 -0.0134  0.2349
  715loPI    C211426   4.057  12.298   4.200  0.0182  0.0113  0.1419
  715loPI    C311427   4.137  11.917   4.106  0.2535  0.0106  0.3357
  715loPI   PO411428   3.938  12.064   4.658  0.0995  0.0837 -0.3032
  715loPI   GL111429   3.872  12.239   5.156  0.0503  0.2436 -0.0813
  715loPI   GL211430   4.030  12.485   5.199  0.0797 -0.3876  0.0113
  715loPI   C1A11431   3.798  12.143   5.576  0.1997 -0.0236  0.3918
  715loPI   C2A11432   4.092  12.134   6.039  0.2179 -0.3008 -0.0346
  715loPI   C3A11433   4.457  12.068   6.408  0.1017  0.0792  0.1944
  715loPI   C4A11434   4.578  12.076   6.753  0.0416  0.0308 -0.0674
  715loPI   C5A11435   4.770  12.200   7.195 -0.0042  0.0046 -0.0096
  715loPI   C6A11436   4.719  12.332   7.547 -0.0609 -0.1548 -0.1305
  715loPI   C1B11437   3.977  12.594   5.561  0.0560  0.2691  0.0581
  715loPI   C2B11438   3.781  12.520   5.909  0.3073 -0.0174  0.1496
  715loPI   C3B11439   3.774  12.442   6.352 -0.1795  0.1873  0.3168
  715loPI   C4B11440   3.587  12.378   6.681 -0.3091  0.0681 -0.1047
  716loPI    C111441   7.321  17.792   4.423  0.1165  0.1929 -0.1841
  716loPI    C211442   7.087  18.096   4.308 -0.1809  0.0218 -0.0426
  716loPI    C311443   7.108  17.764   4.086  0.0019  0.0725 -0.1027
  716loPI   PO411444   7.235  17.739   4.670 -0.1412  0.0900 -0.1978
  716loPI   GL111445   7.446  17.947   5.040 -0.3126  0.1710  0.0569
  716loPI   GL211446   7.153  17.974   5.116 -0.2898  0.1235  0.2289
  716loPI   C1A11447   7.679  18.055   5.306 -0.0359 -0.1636 -0.1061
  716loPI   C2A11448   7.888  18.101   5.587  0.1370 -0.3777  0.2347
  716loPI   C3A11449   8.123  18.176   6.038  0.1744  0.2580  0.2090
  716loPI   C4A11450   8.341  18.445   6.270  0.0306  0.0289  0.0651
  716loPI   C5A11451   8.650  18.599   6.624 -0.0930  0.1348  0.1107
  716loPI   C6A11452   8.443  18.807   6.941 -0.1365  0.0939 -0.2545
  716loPI   C1B11453   7.303  18.169   5.608 -0.0382 -0.1069  0.1752
  716loPI   C2B11454   7.206  18.555   5.863 -0.0320  0.0243  0.0827
  716loPI   C3B11455   7.038  18.676   6.294  0.3361 -0.0621 -0.0270
  716loPI   C4B11456   7.123  18.926   6.643  0.0557 -0.3489  0.0787
  717loPI    C111457   8.467  19.733   4.567  0.0431  0.3307 -0.1174
  717loPI    C211458   8.177  19.867   4.327 -0.2691 -0.1624 -0.0316
  717loPI    C311459   8.489  19.671   4.172 -0.3564 -0.2821 -0.0572
  717loPI   PO411460   8.374  19.589   4.708  0.1931  0.1314 -0.1787
  717loPI   GL111461   8.285  19.356   4.954 -0.2026 -0.1218  0.0580
  717loPI   GL211462   8.435  19.697   5.177  0.0495 -0.0671  0.0251
  717loPI   C1A11463   8.032  19.504   5.348 -0.0350 -0.0081  0.2100
  717loPI   C2A11464   7.969  19.925   5.461 -0.1604  0.2052 -0.0209
  717loPI   C3A11465   7.626  20.167   5.439 -0.5201 -0.0590  0.0284
  717loPI   C4A11466   7.295  20.167   5.712  0.0868 -0.1591  0.4823
  717loPI   C5A11467   7.146  20.432   5.999 -0.0454 -0.2017  0.2626
  717loPI   C6A11468   6.925  20.734   6.155 -0.3000  0.0700 -0.3830
  717loPI   C1B11469   8.456  19.792   5.650  0.0055 -0.0728 -0.0245
  717loPI   C2B11470   8.365  20.061   5.916 -0.0531 -0.1004  0.2808
  717loPI   C3B11471   8.191  20.042   6.338  0.1101 -0.2959 -0.0851
  717loPI   C4B11472   8.239  20.272   6.675  0.1800  0.1283  0.0627
  718loPI    C111473   9.552   5.943   4.381  0.1871  0.2978 -0.1260
  718loPI    C211474   9.516   6.199   4.076 -0.0026  0.1599 -0.2214
  718loPI    C311475   9.529   5.806   4.006 -0.0446  0.1276 -0.0521
  718loPI   PO411476   9.668   6.078   4.568 -0.2127 -0.0782 -0.2961
  718loPI   GL111477   9.758   6.201   5.009  0.0250 -0.0674  0.2360
  718loPI   GL211478   9.596   6.518   5.338 -0.0165 -0.0255 -0.1215
  718loPI   C1A11479   9.650   6.012   5.354  0.1633  0.4744  0.1387
  718loPI   C2A11480   9.601   5.783   5.799 -0.1333 -0.1537 -0.2543
  718loPI   C3A11481   9.790   5.785   6.255 -0.0350 -0.0404  0.1262
  718loPI   C4A11482  10.169   5.545   6.525  0.0382 -0.0955 -0.1025
  718loPI   C5A11483  10.461   5.389   6.325 -0.3443  0.4838  0.0306
  718loPI   C6A11484  10.633   5.048   6.145 -0.2366 -0.1859 -0.0848
  718loPI   C1B11485   9.644   6.227   5.769 -0.2676 -0.0771  0.4991
  718loPI   C2B11486   9.436   6.263   6.181  0.2551 -0.2588 -0.4058
  718loPI   C3B11487   9.474   6.090   6.524  0.2574 -0.2552 -0.0591
  718loPI   C4B11488   9.375   5.989   6.947 -0.1278  0.3687  0.0443
  719loPI    C111489  15.452  16.215   4.015 -0.1329  0.0943 -0.1619
  719loPI    C211490  15.509  16.462   3.706 -0.0904  0.1106 -0.1411
  719loPI    C311491  15.545  16.067   3.655  0.0311  0.1198 -0.1312
  719loPI   PO411492  15.571  16.257   4.231 -0.0869 -0.2802 -0.1767
  719loPI   GL111493  15.526  16.540   4.571 -0.2499  0.1733 -0.2675
  719loPI   GL211494  15.536  16.228   4.805  0.4362 -0.0366 -0.0513
  719loPI   C1A11495  15.805  16.600   5.023 -0.0255  0.1428  0.0987
  719loPI   C2A11496  15.804  16.603   5.402 -0.1426 -0.0180 -0.0291
  719loPI   C3A11497  15.735  16.635   5.812 -0.0480  0.2731 -0.0845
  719loPI   C4A11498  15.782  16.517   6.231  0.0256 -0.1056 -0.4941
  719loPI   C5A11499  15.899  16.488   6.654 -0.0137 -0.0948  0.1906
  719loPI   C6A11500  16.088  16.717   6.924 -0.1951 -0.1242 -0.4386
  719loPI   C1B11501  15.378  16.368   5.132  0.0727 -0.0981  0.1813
  719loPI   C2B11502  15.327  16.455   5.593  0.2238 -0.1208 -0.2835
  719loPI   C3B11503  15.336  16.478   6.021  0.0924  0.0771 -0.0508
  719loPI   C4B11504  15.178  16.576   6.473  0.0562 -0.0369 -0.0768
  720loPI    C111505   7.756  18.038   4.565  0.1688 -0.2409 -0.0126
  720loPI    C211506   7.979  18.266   4.324  0.1730 -0.1445  0.0819
  720loPI    C311507   7.580  18.280   4.299  0.1676  0.0476  0.2448
  720loPI   PO411508   7.828  18.091   4.750  0.0619  0.1193  0.2556
  720loPI   GL111509   8.251  18.056   5.053  0.2105  0.1117  0.1488
  720loPI   GL211510   8.077  18.339   5.083  0.0432  0.1248  0.0364
  720loPI   C1A11511   8.394  18.060   5.466  0.1991  0.3631  0.0258
  720loPI   C2A11512   8.533  18.282   5.809  0.1313 -0.0560 -0.0736
  720loPI   C3A11513   8.820  18.355   6.096 -0.1697 -0.0778  0.2048
  720loPI   C4A11514   9.300  18.136   6.218  0.2716  0.0996  0.0436
  720loPI   C5A11515   9.515  18.079   6.615 -0.3244 -0.0210 -0.1999
  720loPI   C6A11516   9.427  18.012   7.012  0.0732  0.1882 -0.1064
  720loPI   C1B11517   8.150  18.547   5.539 -0.0811  0.1742  0.0448
  720loPI   C2B11518   8.244  18.744   5.893  0.1010  0.0054  0.0528
  720loPI   C3B11519   8.252  18.909   6.322 -0.2751  0.0321  0.0067
  720loPI   C4B11520   8.062  19.280   6.408 -0.5845 -0.0392 -0.1548
  721loPI    C111521   6.954   3.410   4.493 -0.0939 -0.1143  0.2151
  721loPI    C211522   7.036   3.645   4.806  0.1022  0.1938 -0.0620
  721loPI    C311523   6.740   3.743   4.554 -0.1649 -0.1407  0.1141
  721loPI   PO411524   6.924   3.160   4.557  0.0869 -0.1012  0.0329
  721loPI   GL111525   6.665   2.995   4.826 -0.3805 -0.2392 -0.2631
  721loPI   GL211526   6.583   3.389   4.891 -0.3893 -0.2174 -0.2141
  721loPI   C1A11527   6.701   2.920   5.282  0.1093 -0.2654  0.0767
  721loPI   C2A11528   6.730   2.796   5.659 -0.3651  0.3066 -0.0245
  721loPI   C3A11529   6.772   2.888   6.127  0.0570 -0.1852 -0.3265
  721loPI   C4A11530   7.080   2.852   6.449 -0.0676  0.2305  0.2307
  721loPI   C5A11531   7.385   2.802   6.813  0.0386  0.4109  0.0247
  721loPI   C6A11532   7.640   3.076   6.862 -0.0608  0.0385 -0.0316
  721loPI   C1B11533   6.953   3.407   5.204 -0.0824 -0.1884  0.1066
  721loPI   C2B11534   7.070   3.390   5.610  0.0182 -0.1488 -0.2325
  721loPI   C3B11535   6.959   3.338   6.109 -0.2211  0.2316 -0.0057
  721loPI   C4B11536   7.249   3.388   6.470 -0.1878  0.1290  0.0462
  722loPI    C111537  13.338   4.020   4.153 -0.1044 -0.0474  0.1057
  722loPI    C211538  13.205   4.102   3.785  0.0280  0.2060  0.1118
  722loPI    C311539  13.588   4.001   3.841 -0.0844 -0.2303  0.1318
  722loPI   PO411540  13.148   4.041   4.326 -0.0490 -0.0912 -0.0614
  722loPI   GL111541  12.990   4.143   4.726 -0.0223 -0.0389  0.0236
  722loPI   GL211542  13.096   3.860   4.826  0.2044 -0.0472  0.0555
  722loPI   C1A11543  12.717   4.317   5.092 -0.0585  0.4149  0.2375
  722loPI   C2A11544  12.471   4.454   5.362  0.0972  0.0198  0.0393
  722loPI   C3A11545  12.182   4.334   5.546  0.0337  0.1211 -0.1518
  722loPI   C4A11546  11.810   4.258   5.832 -0.1671 -0.4508  0.4038
  722loPI   C5A11547  11.664   4.148   6.243 -0.1926  0.3197 -0.2188
  722loPI   C6A11548  11.337   3.980   6.683 -0.0011 -0.2544  0.2813
  722loPI   C1B11549  13.055   3.890   5.243 -0.1974 -0.0666  0.1027
  722loPI   C2B11550  13.088   3.913   5.688  0.3259 -0.2599  0.0362
  722loPI   C3B11551  12.760   4.120   6.042  0.2591 -0.1280 -0.0008
  722loPI   C4B11552  12.688   4.197   6.437  0.0643 -0.0360 -0.0400
  723loPI    C111553   3.387   7.189   4.653 -0.0063  0.0300 -0.0155
  723loPI    C211554   3.697   6.966   4.534  0.0029 -0.0335  0.1253
  723loPI    C311555   3.761   7.321   4.705  0.0061 -0.1238  0.3147
  723loPI   PO411556   3.290   7.055   4.842 -0.1999  0.0390  0.1408
  723loPI   GL111557   3.189   6.967   5.290  0.0033 -0.0049 -0.0290
  723loPI   GL211558   2.964   7.074   5.487 -0.0396  0.0745  0.0356
  723loPI   C1A11559   3.422   7.171   5.606 -0.0382 -0.0021 -0.2906
  723loPI   C2A11560   3.556   7.207   6.118  0.2002  0.2406 -0.0290
  723loPI   C3A11561   3.817   7.389   6.297 -0.1600 -0.1746 -0.0308
  723loPI   C4A11562   4.013   7.390   6.700 -0.5601 -0.1851 -0.0743
  723loPI   C5A11563   4.376   7.278   7.026  0.0692 -0.1116 -0.0418
  723loPI   C6A11564   4.513   7.013   7.225  0.0608  0.2879  0.1311
  723loPI   C1B11565   2.719   7.322   5.828 -0.0202 -0.3008  0.0335
  723loPI   C2B11566   2.505   7.437   6.323  0.0183  0.2985 -0.1413
  723loPI   C3B11567   2.402   7.662   6.705 -0.3042 -0.0648  0.2590
  723loPI   C4B11568   2.278   8.042   6.386 -0.3808  0.1325 -0.2298
  724loPI    C111569   8.653  10.139   4.719  0.0054  0.2735  0.0014
  724loPI    C211570   9.026   9.997   4.736 -0.0228  0.1860 -0.0991
  724loPI    C311571   8.900  10.187   4.408 -0.0627  0.2268 -0.0602
  724loPI   PO411572   8.643  10.300   4.970  0.1102 -0.1071 -0.2567
  724loPI   GL111573   8.705  10.181   5.377  0.2340 -0.0152  0.3551
  724loPI   GL211574   8.967  10.288   5.383  0.0073  0.0273 -0.0521
  724loPI   C1A11575   8.399  10.252   5.666  0.2089  0.0618  0.0634
  724loPI   C2A11576   8.272  10.317   6.087  0.2949  0.1160  0.1942
  724loPI   C3A11577   8.523  10.416   6.393 -0.0543  0.0998 -0.0466
  724loPI   C4A11578   8.360  10.291   6.797  0.0192  0.1661 -0.0570
  724loPI   C5A11579   8.085   9.994   7.086  0.0476 -0.0743 -0.0210
  724loPI   C6A11580   7.743   9.593   7.157 -0.3346  0.2749 -0.2869
  724loPI   C1B11581   8.882  10.396   5.858  0.2425 -0.0887  0.0965
  724loPI   C2B11582   8.975  10.270   6.247  0.5227  0.1398 -0.0366
  724loPI   C3B11583   8.906  10.203   6.675 -0.2127 -0.0351  0.2009
  724loPI   C4B11584   9.068  10.459   6.992 -0.2564  0.0110 -0.0466
  725loPI    C111585   4.471  12.596   4.321 -0.0492  0.0475 -0.0495
  725loPI    C211586   4.435  12.644   3.926  0.0474  0.0905 -0.0533
  725loPI    C311587   4.577  12.301   4.074 -0.0853  0.0358 -0.0511
  725loPI   PO411588   4.452  12.845   4.479  0.1014 -0.1204  0.0447
  725loPI   GL111589   4.593  12.953   4.759 -0.2195  0.1806 -0.0492
  725loPI   GL211590   4.308  12.896   4.998 -0.1761  0.1907 -0.1413
  725loPI   C1A11591   4.725  13.146   5.170  0.1650  0.0843  0.5855
  725loPI   C2A11592   4.687  13.018   5.613 -0.4860 -0.2974  0.0570
  725loPI   C3A11593   4.684  12.902   6.095  0.4560 -0.0076 -0.1467
  725loPI   C4A11594   5.100  12.700   6.272  0.0254  0.0080 -0.1409
  725loPI   C5A11595   5.377  12.461   6.369  0.4290  0.0561  0.0437
  725loPI   C6A11596   5.642  12.277   6.435 -0.0987 -0.2350  0.2028
  725loPI   C1B11597   4.537  12.661   5.260 -0.1312 -0.0339  0.1426
  725loPI   C2B11598   4.546  12.175   5.418  0.0025 -0.3160 -0.1730
  725loPI   C3B11599   4.653  12.088   5.833  0.0110  0.0540  0.2850
  725loPI   C4B11600   4.726  12.393   6.151  0.0106 -0.2067  0.0229
  726loPI    C111601  16.888  18.942   4.122 -0.2695 -0.1203 -0.0417
  726loPI    C211602  16.987  19.285   3.942  0.0051 -0.1415  0.0628
  726loPI    C311603  16.700  19.053   3.788 -0.0596  0.0480 -0.1062
  726loPI   PO411604  16.869  18.795   4.314  0.2197  0.1305  0.1186
  726loPI   GL111605  16.668  18.802   4.671  0.2866  0.0069  0.2272
  726loPI   GL211606  16.270  18.890   4.690 -0.2122  0.1652 -0.0286
  726loPI   C1A11607  16.631  18.817   5.081 -0.0313  0.1469 -0.0675
  726loPI   C2A11608  16.459  18.892   5.482  0.0419  0.0551 -0.2932
  726loPI   C3A11609  16.377  18.881   5.960  0.0824 -0.0743 -0.0970
  726loPI   C4A11610  16.225  18.999   6.350  0.1185  0.0703  0.0413
  726loPI   C5A11611  15.894  18.993   6.618 -0.1556  0.0028 -0.0716
  726loPI   C6A11612  15.571  19.365   6.698 -0.3085 -0.1942  0.1410
  726loPI   C1B11613  16.099  18.639   5.197 -0.1765  0.1480 -0.0896
  726loPI   C2B11614  16.054  18.663   5.630  0.0590 -0.2207  0.0593
  726loPI   C3B11615  15.946  18.685   5.998  0.0326 -0.3977  0.3231
  726loPI   C4B11616  15.969  18.542   6.310  0.1384 -0.0361 -0.0822
  727loPI    C111617  11.766   5.693   4.227  0.1238  0.1101  0.0710
  727loPI    C211618  11.896   5.775   3.857  0.1515  0.0817  0.0743
  727loPI    C311619  11.650   5.465   3.919  0.0730  0.1420  0.0664
  727loPI   PO411620  11.922   5.616   4.349 -0.2738  0.3198  0.0221
  727loPI   GL111621  12.067   5.626   4.790 -0.0726  0.2764 -0.0300
  727loPI   GL211622  11.994   5.789   5.069 -0.0907 -0.1880 -0.1097
  727loPI   C1A11623  12.010   5.330   5.170  0.1279  0.3015  0.0897
  727loPI   C2A11624  11.913   5.176   5.597  0.1243 -0.3125  0.1710
  727loPI   C3A11625  11.860   5.116   6.082  0.2357  0.3221 -0.0349
  727loPI   C4A11626  11.944   4.938   6.607 -0.0358  0.0568  0.0353
  727loPI   C5A11627  12.041   4.656   6.897 -0.1062 -0.1089  0.0254
  727loPI   C6A11628  11.976   4.535   7.273 -0.0671 -0.1901 -0.0979
  727loPI   C1B11629  12.084   5.674   5.488  0.0705 -0.1717  0.1811
  727loPI   C2B11630  12.044   5.675   5.848  0.1240 -0.2630 -0.2726
  727loPI   C3B11631  12.171   5.537   6.290  0.0435  0.1264  0.0482
  727loPI   C4B11632  12.298   5.260   6.563  0.2775 -0.1943  0.1442
  728loPI    C111633   7.333   3.676   4.313  0.3360 -0.2243  0.3489
  728loPI    C211634   7.309   3.299   4.180  0.0709 -0.0903  0.0012
  728loPI    C311635   7.366   3.599   3.922 -0.2989  0.1634  0.2046
  728loPI   PO411636   7.443   3.581   4.543 -0.0681  0.3571 -0.2400
  728loPI   GL111637   7.577   3.655   4.939  0.1922  0.0160  0.0964
  728loPI   GL211638   7.863   3.475   4.878  0.0415 -0.3938 -0.0041
  728loPI   C1A11639   7.423   3.534   5.241 -0.1038 -0.0484 -0.0498
  728loPI   C2A11640   7.658   3.234   5.382  0.0904  0.1751  0.2419
  728loPI   C3A11641   7.785   3.065   5.727  0.0276 -0.0106 -0.0695
  728loPI   C4A11642   7.984   3.028   6.118  0.0611 -0.1293  0.1192
  728loPI   C5A11643   8.265   2.961   6.430  0.0338  0.1174  0.0970
  728loPI   C6A11644   8.603   3.309   6.677  0.0033  0.2322  0.2133
  728loPI   C1B11645   8.059   3.598   5.298  0.0636  0.1724  0.3541
  728loPI   C2B11646   8.235   3.940   5.495 -0.0819  0.2017 -0.1267
  728loPI   C3B11647   8.258   3.920   5.965 -0.0352 -0.1424 -0.1109
  728loPI   C4B11648   8.390   4.180   6.326  0.1508  0.2524  0.0097
  729loPI    C111649  14.486  11.836   4.555  0.2760 -0.0008 -0.0528
  729loPI    C211650  14.311  11.551   4.336  0.2837  0.0154 -0.0801
  729loPI    C311651  14.350  11.921   4.188  0.2366  0.0411 -0.0284
  729loPI   PO411652  14.399  11.704   4.805  0.1410  0.2730  0.0732
  729loPI   GL111653  14.624  11.534   5.095 -0.1570 -0.1239 -0.4014
  729loPI   GL211654  14.779  11.329   5.147 -0.2824  0.1065 -0.1173
  729loPI   C1A11655  14.718  11.704   5.541 -0.0924 -0.2850 -0.2744
  729loPI   C2A11656  14.581  11.629   5.960 -0.1058  0.0021 -0.1068
  729loPI   C3A11657  14.329  11.333   6.306  0.2407  0.2248  0.0890
  729loPI   C4A11658  14.230  10.934   6.452 -0.1701  0.0036 -0.0070
  729loPI   C5A11659  14.017  10.755   6.711 -0.2398 -0.0439  0.2645
  729loPI   C6A11660  13.919  10.525   7.097 -0.0077 -0.2458 -0.1611
  729loPI   C1B11661  15.175  11.128   5.273  0.1447 -0.1967 -0.0132
  729loPI   C2B11662  15.457  11.196   5.664  0.1168  0.0707 -0.2779
  729loPI   C3B11663  15.625  11.609   5.907  0.2460  0.2137  0.1378
  729loPI   C4B11664  15.823  11.824   6.261  0.0174 -0.0560  0.0076
  730loPI    C111665   2.164  12.789   5.058 -0.2245  0.0682 -0.1662
  730loPI    C211666   1.908  12.780   4.751  0.0066 -0.2113 -0.3557
  730loPI    C311667   2.234  12.548   4.746  0.2883  0.1693 -0.1379
  730loPI   PO411668   2.087  12.767   5.248  0.0630  0.0041  0.0104
  730loPI   GL111669   2.124  12.823   5.571  0.1564  0.0931  0.1760
  730loPI   GL211670   1.864  13.073   5.539  0.0379 -0.0052  0.2338
  730loPI   C1A11671   2.148  12.575   5.847 -0.1523 -0.0546 -0.0762
  730loPI   C2A11672   1.909  12.431   6.247 -0.1733  0.1470  0.1912
  730loPI   C3A11673   1.833  12.172   6.575  0.0119  0.1576 -0.0522
  730loPI   C4A11674   1.648  11.964   6.848  0.0567 -0.0957 -0.0636
  730loPI   C5A11675   1.300  11.845   7.138 -0.3394  0.1355 -0.1366
  730loPI   C6A11676   1.185  11.587   7.615  0.0314  0.0208  0.0899
  730loPI   C1B11677   1.933  13.052   6.024 -0.2564  0.1994  0.0126
  730loPI   C2B11678   2.177  13.251   6.464 -0.3007 -0.1083 -0.1557
  730loPI   C3B11679   2.307  13.130   6.884  0.1363  0.1685 -0.1939
  730loPI   C4B11680   2.416  12.782   7.181 -0.2954  0.1866  0.0673
  731loPI    C111681   8.959   6.413   4.821  0.2424  0.0282 -0.0510
  731loPI    C211682   9.114   6.326   4.463  0.0667 -0.0324 -0.1138
  731loPI    C311683   8.770   6.157   4.578 -0.0120  0.1857 -0.0233
  731loPI   PO411684   9.176   6.362   5.031  0.1226  0.2772  0.1178
  731loPI   GL111685   9.007   6.460   5.411  0.0938  0.1583 -0.1088
  731loPI   GL211686   8.935   6.794   5.512  0.2160  0.1349 -0.0771
  731loPI   C1A11687   9.295   6.570   5.806 -0.0574 -0.0981 -0.0038
  731loPI   C2A11688   9.641   6.861   5.940  0.0323  0.1653 -0.1663
  731loPI   C3A11689   9.973   6.826   6.206 -0.2854  0.3017 -0.0814
  731loPI   C4A11690  10.243   6.972   6.535  0.0381  0.3164  0.1883
  731loPI   C5A11691  10.476   7.181   6.980 -0.0096  0.2953 -0.1364
  731loPI   C6A11692  10.416   6.755   7.171  0.2014  0.3160 -0.3769
  731loPI   C1B11693   8.767   6.645   5.949  0.0356 -0.3899 -0.1037
  731loPI   C2B11694   8.390   6.819   6.311 -0.6348  0.1493 -0.1961
  731loPI   C3B11695   8.061   6.694   6.576 -0.3768  0.1667  0.4916
  731loPI   C4B11696   7.916   6.355   6.334  0.2929 -0.3224 -0.1399
  732loPI    C111697   8.535   5.440   4.821 -0.0040  0.0829 -0.0234
  732loPI    C211698   8.484   5.159   4.541  0.2888  0.2037 -0.2032
  732loPI    C311699   8.743   5.098   4.840  0.1607  0.1775 -0.0967
  732loPI   PO411700   8.624   5.684   4.724 -0.0606 -0.3067 -0.1733
  732loPI   GL111701   8.809   5.984   5.122  0.0647 -0.2334 -0.0708
  732loPI   GL211702   9.036   5.953   5.380  0.5520 -0.0203  0.2233
  732loPI   C1A11703   8.699   5.662   5.495  0.0072  0.2532  0.1446
  732loPI   C2A11704   8.650   5.371   5.848  0.1814 -0.0782 -0.2693
  732loPI   C3A11705   8.578   5.155   6.188 -0.0675 -0.2341  0.0642
  732loPI   C4A11706   8.791   4.949   6.591 -0.2627 -0.1304  0.1812
  732loPI   C5A11707   8.638   5.141   6.925 -0.0654  0.2412 -0.1629
  732loPI   C6A11708   8.406   5.035   7.295 -0.2815  0.3221  0.0844
  732loPI   C1B11709   9.139   6.081   5.796  0.2279 -0.0317 -0.1308
  732loPI   C2B11710   8.951   6.212   6.163  0.0253 -0.1100  0.1181
  732loPI   C3B11711   8.939   6.013   6.592  0.0698 -0.1891 -0.0950
  732loPI   C4B11712   8.786   5.605   6.871 -0.1460  0.0902 -0.1560
  733loPI    C111713  14.722  17.950   3.968  0.2052  0.1929  0.0189
  733loPI    C211714  14.477  17.942   3.651  0.1150  0.1023  0.0904
  733loPI    C311715  14.780  18.203   3.664  0.1600  0.0609 -0.1004
  733loPI   PO411716  14.661  17.928   4.154 -0.0239 -0.2330  0.1704
  733loPI   GL111717  14.656  18.157   4.527  0.0022 -0.0652 -0.1147
  733loPI   GL211718  14.578  18.527   4.516  0.2634 -0.0785 -0.3085
  733loPI   C1A11719  14.736  18.317   4.915 -0.3480 -0.1831  0.0552
  733loPI   C2A11720  14.677  18.513   5.311  0.0716 -0.2370  0.0420
  733loPI   C3A11721  14.518  18.656   5.630  0.0240 -0.3010  0.2586
  733loPI   C4A11722  14.523  18.669   5.979  0.1358  0.2839 -0.0852
  733loPI   C5A11723  14.432  18.765   6.356 -0.0385 -0.0586 -0.1267
  733loPI   C6A11724  14.083  18.844   6.617  0.1223  0.1532 -0.1036
  733loPI   C1B11725  14.391  18.643   4.927  0.1970 -0.0831 -0.2800
  733loPI   C2B11726  14.222  18.949   5.230 -0.1168  0.0712 -0.0990
  733loPI   C3B11727  14.135  19.026   5.689  0.1137 -0.0060 -0.3159
  733loPI   C4B11728  14.013  18.945   6.094  0.0631  0.0061  0.0878
  734loPI    C111729  14.758  16.516   3.882 -0.1378 -0.1773  0.0852
  734loPI    C211730  14.923  16.155   3.935  0.0430 -0.1554 -0.2942
  734loPI    C311731  15.002  16.365   3.603 -0.1138  0.2064 -0.1088
  734loPI   PO411732  14.764  16.551   4.143  0.0748 -0.0246  0.1570
  734loPI   GL111733  14.698  16.831   4.488 -0.0388 -0.0063 -0.0570
  734loPI   GL211734  14.627  17.185   4.603  0.0189 -0.1054 -0.2485
  734loPI   C1A11735  14.488  16.846   4.921  0.3421  0.0378  0.1453
  734loPI   C2A11736  14.461  16.821   5.328 -0.0916 -0.0651  0.0025
  734loPI   C3A11737  14.395  16.830   5.833 -0.2566 -0.0136 -0.2207
  734loPI   C4A11738  14.446  16.749   6.232 -0.1268  0.0532 -0.1813
  734loPI   C5A11739  14.675  16.610   6.485  0.4772 -0.0205 -0.2559
  734loPI   C6A11740  14.523  16.500   6.771  0.2679 -0.3681 -0.2354
  734loPI   C1B11741  14.529  17.339   5.097  0.2772 -0.4017 -0.2394
  734loPI   C2B11742  14.531  17.482   5.523  0.4231  0.1040  0.1008
  734loPI   C3B11743  14.277  17.697   5.961 -0.2076 -0.1233 -0.0398
  734loPI   C4B11744  14.480  17.965   6.286 -0.2001  0.3006 -0.2687
  735loPI    C111745  18.800   7.432   4.639 -0.0246  0.1937  0.0196
  735loPI    C211746  18.979   7.720   4.426 -0.1272  0.0802 -0.2247
  735loPI    C311747  18.621   7.583   4.314 -0.3571  0.2803  0.2392
  735loPI   PO411748  19.007   7.272   4.695 -0.2456 -0.1932 -0.1631
  735loPI   GL111749  19.079   7.114   5.094 -0.1047  0.2244 -0.4059
  735loPI   GL211750  18.936   6.807   5.025 -0.3936  0.3740  0.0343
  735loPI   C1A11751  18.942   7.193   5.497 -0.0286  0.0070  0.0080
  735loPI   C2A11752  19.065   7.120   6.006  0.0470  0.1864  0.1437
  735loPI   C3A11753  18.779   6.960   6.323  0.1882  0.1559  0.1886
  735loPI   C4A11754  19.024   6.796   6.812  0.0623 -0.2761 -0.0609
  735loPI   C5A11755  19.243   6.727   7.225 -0.3529 -0.2215 -0.0281
  735loPI   C6A11756  19.588   6.880   7.385 -0.0907 -0.1481  0.2359
  735loPI   C1B11757  18.567   6.832   5.356 -0.1153  0.0755 -0.3555
  735loPI   C2B11758  18.670   6.933   5.778 -0.0498 -0.0801 -0.2111
  735loPI   C3B11759  18.303   7.127   6.170  0.0804 -0.2092 -0.0241
  735loPI   C4B11760  17.775   7.123   5.969 -0.0569 -0.4521  0.0417
  736loPI    C111761  19.553   4.139   4.663 -0.1932  0.0332 -0.0467
  736loPI    C211762  19.840   4.329   4.459 -0.2371  0.1426 -0.0068
  736loPI    C311763  19.605   4.064   4.273  0.0380 -0.1203  0.0114
  736loPI   PO411764  19.624   4.125   4.875 -0.0008  0.2756  0.1267
  736loPI   GL111765  19.673   3.993   5.206 -0.0105 -0.0462  0.2648
  736loPI   GL211766  19.870   4.176   5.312  0.2001 -0.3204 -0.4562
  736loPI   C1A11767  19.468   3.591   5.388 -0.1917 -0.0448  0.3559
  736loPI   C2A11768  19.315   3.518   5.792 -0.5747 -0.0559  0.1315
  736loPI   C3A11769  19.362   3.133   6.088  0.0889 -0.0844 -0.1066
  736loPI   C4A11770  19.622   2.942   6.401 -0.1363  0.2005 -0.0865
  736loPI   C5A11771  19.710   2.918   6.886  0.0158  0.1994  0.1536
  736loPI   C6A11772  19.767   3.274   7.357  0.0009  0.1442 -0.0596
  736loPI   C1B11773  19.748   3.853   5.693 -0.1007  0.1237 -0.2146
  736loPI   C2B11774  19.724   3.610   6.086  0.3340 -0.1930 -0.3388
  736loPI   C3B11775  19.610   3.443   6.418  0.0990  0.0505 -0.1140
  736loPI   C4B11776  19.440   3.342   6.860  0.2603 -0.1216  0.1684
  737loPI    C111777  11.743  18.130   4.246 -0.0804 -0.0061  0.0693
  737loPI    C211778  11.982  17.914   4.009 -0.1817  0.0168 -0.0548
  737loPI    C311779  11.616  17.781   4.098 -0.1725  0.0452  0.0267
  737loPI   PO411780  11.854  18.189   4.405  0.2432  0.0632 -0.0427
  737loPI   GL111781  11.959  18.215   4.809  0.1841  0.1413 -0.1304
  737loPI   GL211782  11.839  18.494   4.967  0.2847  0.0317 -0.0386
  737loPI   C1A11783  12.241  18.125   5.147  0.1837 -0.0683 -0.2021
  737loPI   C2A11784  12.340  18.322   5.545 -0.1502  0.0246  0.0792
  737loPI   C3A11785  12.393  18.364   5.967 -0.1445 -0.0254 -0.1564
  737loPI   C4A11786  12.461  18.586   6.365  0.0243  0.1602 -0.0378
  737loPI   C5A11787  12.516  18.768   6.864  0.0127  0.0465  0.2848
  737loPI   C6A11788  12.823  18.993   7.029 -0.0627 -0.3120  0.0551
  737loPI   C1B11789  11.891  18.440   5.370  0.0198  0.0188  0.1255
  737loPI   C2B11790  11.913  18.353   5.861 -0.2003 -0.0255 -0.1044
  737loPI   C3B11791  12.019  18.277   6.304  0.3985  0.1335  0.1021
  737loPI   C4B11792  12.321  18.082   6.520 -0.2815 -0.1764  0.1136
  738loPI    C111793   9.566  11.965   4.614  0.0549  0.0522 -0.1877
  738loPI    C211794   9.259  12.026   4.365 -0.0018  0.2581 -0.0698
  738loPI    C311795   9.519  11.730   4.293 -0.4225 -0.1435  0.0165
  738loPI   PO411796   9.463  11.903   4.837 -0.4632  0.0190  0.0837
  738loPI   GL111797   9.397  11.846   5.193  0.0340  0.0462  0.0383
  738loPI   GL211798   9.089  11.942   5.421 -0.0471 -0.3244  0.1013
  738loPI   C1A11799   9.590  11.609   5.585 -0.0943  0.1940 -0.0381
  738loPI   C2A11800   9.697  11.323   5.983  0.0339  0.2243 -0.1072
  738loPI   C3A11801  10.019  11.038   6.190 -0.0496  0.3967 -0.1125
  738loPI   C4A11802  10.320  10.611   6.337  0.3602  0.0467 -0.0291
  738loPI   C5A11803  10.465  10.363   6.742 -0.2731 -0.4084  0.1152
  738loPI   C6A11804  10.682   9.984   6.875  0.2188  0.0777 -0.1965
  738loPI   C1B11805   9.148  12.151   5.907  0.1303  0.1313 -0.1090
  738loPI   C2B11806   8.958  12.464   6.042  0.2713 -0.2524  0.1989
  738loPI   C3B11807   9.037  12.947   6.088  0.0900 -0.4180 -0.0788
  738loPI   C4B11808   8.966  13.134   6.539  0.1604  0.1627 -0.1992
  739loPI    C111809  17.729   8.246   4.587 -0.0518  0.2893 -0.0132
  739loPI    C211810  17.518   8.475   4.336 -0.2636 -0.1787 -0.2744
  739loPI    C311811  17.754   8.186   4.193  0.1654  0.0049  0.0414
  739loPI   PO411812  17.630   8.172   4.689  0.0224  0.2630  0.0511
  739loPI   GL111813  17.373   8.208   5.053 -0.0036 -0.2612 -0.0499
  739loPI   GL211814  17.056   8.038   5.046 -0.0617 -0.0362  0.2711
  739loPI   C1A11815  17.571   7.947   5.337  0.0267 -0.3059  0.1530
  739loPI   C2A11816  17.480   7.780   5.752  0.1794  0.0227 -0.3757
  739loPI   C3A11817  17.456   7.830   6.076 -0.0797  0.1442  0.0311
  739loPI   C4A11818  17.402   7.551   6.332  0.2646  0.0024 -0.0102
  739loPI   C5A11819  17.537   7.161   6.538 -0.1689  0.1593 -0.0091
  739loPI   C6A11820  17.682   6.941   6.899 -0.0579  0.2018 -0.0820
  739loPI   C1B11821  17.007   8.033   5.449 -0.0510  0.3335  0.2689
  739loPI   C2B11822  16.956   7.888   5.814 -0.0204 -0.2030 -0.0095
  739loPI   C3B11823  16.970   7.852   6.189 -0.2514  0.1930  0.2231
  739loPI   C4B11824  17.246   8.057   6.493 -0.0333  0.1369 -0.1868
  740loPI    C111825   1.459   2.889   4.100 -0.0038  0.2144  0.0040
  740loPI    C211826   1.609   2.687   3.789 -0.1416  0.0522  0.0419
  740loPI    C311827   1.550   3.082   3.762 -0.1235  0.0438 -0.1268
  740loPI   PO411828   1.416   2.660   4.250  0.1422  0.2209 -0.1871
  740loPI   GL111829   1.605   2.602   4.702 -0.2803  0.3112  0.0182
  740loPI   GL211830   1.882   2.629   4.731 -0.1506  0.2609 -0.0936
  740loPI   C1A11831   1.494   2.760   5.134  0.0431 -0.1102 -0.1020
  740loPI   C2A11832   1.503   2.636   5.527 -0.0199 -0.0853 -0.1706
  740loPI   C3A11833   1.431   2.769   5.930 -0.0627  0.1931  0.1444
  740loPI   C4A11834   1.293   2.761   6.316  0.1439  0.1020 -0.0063
  740loPI   C5A11835   1.017   2.377   6.463  0.0556  0.3948  0.0107
  740loPI   C6A11836   0.980   2.054   6.780  0.0116 -0.1681  0.0056
  740loPI   C1B11837   1.981   2.718   5.246 -0.0355 -0.0870  0.1457
  740loPI   C2B11838   1.908   2.859   5.679  0.0194  0.0453 -0.2763
  740loPI   C3B11839   1.911   2.658   6.189 -0.2639 -0.0966 -0.1694
  740loPI   C4B11840   2.008   2.396   6.613 -0.1504 -0.0917  0.2912
  741loPI    C111841  11.384  16.917   4.760  0.0520 -0.0689 -0.0704
  741loPI    C211842  11.383  16.629   4.482 -0.1160  0.0224 -0.1659
  741loPI    C311843  11.315  17.009   4.377  0.0955  0.0966 -0.0391
  741loPI   PO411844  11.267  16.799   4.961  0.2113 -0.2459  0.1438
  741loPI   GL111845  11.267  16.624   5.375  0.1335 -0.2389  0.0417
  741loPI   GL211846  11.012  16.339   5.311  0.0082 -0.0413  0.1842
  741loPI   C1A11847  11.544  16.630   5.713  0.4074 -0.0878  0.1310
  741loPI   C2A11848  11.749  16.676   6.069 -0.1043 -0.1388  0.1875
  741loPI   C3A11849  11.652  16.606   6.464  0.2675 -0.1786 -0.2284
  741loPI   C4A11850  11.355  16.509   6.818  0.1797  0.1255 -0.1345
  741loPI   C5A11851  10.915  16.561   6.810  0.1031  0.2879  0.2043
  741loPI   C6A11852  10.580  16.232   6.668  0.0472 -0.0525 -0.0532
  741loPI   C1B11853  11.306  16.175   5.489  0.1231 -0.1128 -0.0211
  741loPI   C2B11854  11.609  16.194   5.908 -0.1484  0.0021  0.1275
  741loPI   C3B11855  11.851  16.114   6.220  0.0752  0.2867  0.0760
  741loPI   C4B11856  12.121  16.404   6.399  0.0578  0.2084  0.2062
  742loPI    C111857   3.930  13.634   4.535 -0.1290  0.1100  0.0926
  742loPI    C211858   4.264  13.830   4.433 -0.0267 -0.0457  0.1242
  742loPI    C311859   3.912  14.021   4.434  0.1021  0.1971  0.3715
  742loPI   PO411860   4.020  13.506   4.730 -0.0169 -0.0250 -0.1435
  742loPI   GL111861   4.024  13.455   5.099  0.1236  0.2683 -0.0033
  742loPI   GL211862   4.365  13.423   5.247  0.1148  0.0038 -0.2733
  742loPI   C1A11863   3.961  13.596   5.455 -0.0110 -0.1571 -0.2523
  742loPI   C2A11864   3.910  13.407   5.829  0.1533  0.2380 -0.0890
  742loPI   C3A11865   3.859  13.449   6.348 -0.3400  0.2235  0.1398
  742loPI   C4A11866   4.227  13.589   6.564 -0.0805 -0.0224  0.1613
  742loPI   C5A11867   4.435  13.980   6.834 -0.0965 -0.1128 -0.0218
  742loPI   C6A11868   4.511  13.905   7.265 -0.2532  0.3284  0.1515
  742loPI   C1B11869   4.249  13.101   5.566  0.1121  0.0950  0.3702
  742loPI   C2B11870   4.181  13.052   5.989  0.1384  0.1648  0.0541
  742loPI   C3B11871   4.251  13.066   6.435  0.0773 -0.0580  0.2952
  742loPI   C4B11872   4.268  13.032   6.911  0.1765  0.3818 -0.0467
  743loPI    C111873   9.602   0.842   4.072  0.1303 -0.1021 -0.0791
  743loPI    C211874   9.389   0.503   4.073 -0.2328  0.1210  0.0129
  743loPI    C311875   9.626   0.590   3.762 -0.2487 -0.1473 -0.0764
  743loPI   PO411876   9.603   0.881   4.353  0.4689 -0.1176  0.0753
  743loPI   GL111877   9.842   0.821   4.672  0.0709  0.0546  0.1753
  743loPI   GL211878   9.619   0.807   4.963  0.0709 -0.0823  0.2006
  743loPI   C1A11879  10.077   0.834   5.099 -0.1715  0.1768 -0.0187
  743loPI   C2A11880  10.116   0.805   5.509 -0.0393  0.0560  0.1017
  743loPI   C3A11881  10.224   0.863   6.010  0.0841  0.2387  0.0539
  743loPI   C4A11882  10.487   0.783   6.304 -0.0657  0.0154 -0.1623
  743loPI   C5A11883  10.508   0.684   6.643  0.1022  0.4057 -0.0095
  743loPI   C6A11884  10.522   0.904   6.996  0.4296  0.0303  0.0183
  743loPI   C1B11885   9.491   0.837   5.316 -0.1887 -0.0894 -0.0911
  743loPI   C2B11886   9.536   0.807   5.671 -0.2213  0.2475 -0.1955
  743loPI   C3B11887   9.745   0.779   6.075 -0.0258  0.1320  0.0694
  743loPI   C4B11888   9.569   0.703   6.372  0.0246 -0.1667 -0.0768
  744loPI    C111889   8.626  10.627   4.600  0.0379 -0.2848 -0.0469
  744loPI    C211890   8.443  10.853   4.326  0.0951 -0.1104  0.0569
  744loPI    C311891   8.682  10.554   4.211  0.0562 -0.0889 -0.0819
  744loPI   PO411892   8.489  10.792   4.864 -0.3710  0.0294  0.2935
  744loPI   GL111893   8.344  10.655   5.316 -0.0890  0.2384  0.2435
  744loPI   GL211894   8.666  10.716   5.466 -0.2327 -0.1901  0.2828
  744loPI   C1A11895   8.125  11.148   5.571 -0.2433  0.0749  0.2008
  744loPI   C2A11896   7.906  11.362   5.828  0.0128  0.3266 -0.0817
  744loPI   C3A11897   8.018  11.209   6.166 -0.4181 -0.1199  0.0775
  744loPI   C4A11898   7.847  11.281   6.534  0.3120  0.1634 -0.0555
  744loPI   C5A11899   7.589  11.036   6.951 -0.0753 -0.2606  0.0027
  744loPI   C6A11900   7.391  10.816   7.261  0.1270  0.1109 -0.0820
  744loPI   C1B11901   8.468  10.737   5.888 -0.1996  0.2026  0.0365
  744loPI   C2B11902   8.436  10.974   6.381  0.1386  0.0942 -0.1416
  744loPI   C3B11903   8.232  11.156   6.847 -0.0617  0.1059  0.1768
  744loPI   C4B11904   7.935  11.350   7.131  0.3167 -0.0386  0.0952
  745loPI    C111905   2.300  17.314   4.143 -0.0458  0.2614  0.4008
  745loPI    C211906   2.206  16.933   4.066  0.2708  0.2353  0.1199
  745loPI    C311907   1.965  17.227   3.943  0.1571  0.1375  0.1074
  745loPI   PO411908   2.380  17.290   4.367 -0.5000 -0.0094  0.0862
  745loPI   GL111909   2.385  17.304   4.903  0.3149 -0.1059  0.2453
  745loPI   GL211910   2.481  16.951   4.949 -0.0998 -0.0226  0.3069
  745loPI   C1A11911   2.222  17.205   5.238  0.0530  0.1949 -0.1036
  745loPI   C2A11912   2.328  17.110   5.651 -0.0030 -0.0459  0.3292
  745loPI   C3A11913   2.353  17.139   6.172  0.0167 -0.1983 -0.0319
  745loPI   C4A11914   2.166  17.095   6.548 -0.1472  0.0349  0.2004
  745loPI   C5A11915   2.308  16.764   6.816 -0.0974  0.0071 -0.2525
  745loPI   C6A11916   2.437  16.549   7.132 -0.0590 -0.2512  0.1825
  745loPI   C1B11917   2.849  16.933   5.166 -0.1389  0.0654 -0.3183
  745loPI   C2B11918   2.979  16.947   5.485  0.2479 -0.2449 -0.2552
  745loPI   C3B11919   3.269  16.849   5.767  0.5362  0.0998 -0.0378
  745loPI   C4B11920   3.600  17.076   5.834  0.1793 -0.0805  0.1275
  746loPI    C111921  10.849   8.431   4.359  0.2325  0.1903 -0.1914
  746loPI    C211922  11.184   8.305   4.536  0.0870  0.1287  0.0446
  746loPI    C311923  11.047   8.117   4.211  0.0671 -0.0967  0.1816
  746loPI   PO411924  10.674   8.409   4.630  0.0292  0.1012  0.0124
  746loPI   GL111925  10.797   8.387   4.973  0.0197 -0.0005 -0.0959
  746loPI   GL211926  11.136   8.417   5.046  0.1412  0.2580  0.3374
  746loPI   C1A11927  10.982   8.154   5.410 -0.1997  0.1168 -0.0913
  746loPI   C2A11928  11.036   8.172   5.891  0.1557 -0.0470 -0.2506
  746loPI   C3A11929  11.175   8.176   6.291 -0.1147 -0.1466  0.3786
  746loPI   C4A11930  11.220   8.197   6.611  0.0465 -0.1744  0.0027
  746loPI   C5A11931  11.387   8.222   7.078 -0.0250  0.2387  0.1678
  746loPI   C6A11932  11.610   8.249   7.413  0.1323  0.2825  0.0100
  746loPI   C1B11933  10.853   8.675   5.405  0.0830 -0.2481 -0.1222
  746loPI   C2B11934  10.653   8.490   5.731  0.0520 -0.3341 -0.0307
  746loPI   C3B11935  10.623   8.317   6.095  0.3417  0.0982 -0.2181
  746loPI   C4B11936  10.369   8.533   6.416  0.0928  0.2400 -0.2793
  747loPI    C111937  12.757  15.130   4.078 -0.0311 -0.0623 -0.2640
  747loPI    C211938  13.053  15.396   4.032  0.0708 -0.0866  0.2073
  747loPI    C311939  13.037  15.072   3.798  0.1010  0.1901 -0.1872
  747loPI   PO411940  12.733  15.086   4.382 -0.0242  0.0820  0.0879
  747loPI   GL111941  12.556  15.254   4.665 -0.5057 -0.0025 -0.2226
  747loPI   GL211942  12.799  15.069   4.918  0.2784 -0.0975 -0.0552
  747loPI   C1A11943  12.533  15.539   5.105 -0.0691  0.2774  0.3014
  747loPI   C2A11944  12.546  15.625   5.585 -0.0929  0.1297 -0.0094
  747loPI   C3A11945  12.539  15.556   6.025 -0.1249  0.1213  0.0405
  747loPI   C4A11946  12.622  15.445   6.440 -0.2357  0.1807  0.1421
  747loPI   C5A11947  12.657  15.163   6.643 -0.1749  0.0875  0.1503
  747loPI   C6A11948  12.502  15.063   6.987  0.0396  0.3040 -0.1233
  747loPI   C1B11949  12.977  15.179   5.328 -0.0660 -0.4754  0.5081
  747loPI   C2B11950  13.069  15.426   5.667 -0.0221  0.1253 -0.0499
  747loPI   C3B11951  12.988  15.276   6.104 -0.1628 -0.0898  0.0821
  747loPI   C4B11952  13.155  15.381   6.482  0.0047  0.0772 -0.0090
  748loPI    C111953   1.864  12.085   4.316 -0.2450 -0.0740 -0.1011
  748loPI    C211954   2.081  12.421   4.302  0.0258 -0.2477 -0.1425
  748loPI    C311955   1.762  12.379   4.065  0.0220 -0.0414 -0.1751
  748loPI   PO411956   1.972  12.049   4.634  0.2029  0.1154 -0.0118
  748loPI   GL111957   2.041  11.846   4.985  0.2117 -0.0979 -0.1971
  748loPI   GL211958   1.682  11.884   5.158  0.0732 -0.0017 -0.2054
  748loPI   C1A11959   2.147  11.880   5.404 -0.1383  0.1316  0.4282
  748loPI   C2A11960   2.232  11.668   5.828 -0.2111 -0.0518 -0.0681
  748loPI   C3A11961   2.112  11.375   6.159  0.0437  0.1421 -0.3853
  748loPI   C4A11962   2.208  11.053   6.448 -0.0899 -0.0410 -0.1074
  748loPI   C5A11963   2.284  10.955   6.785 -0.1102  0.0855 -0.0967
  748loPI   C6A11964   2.190  10.694   7.115  0.3057 -0.1422  0.0746
  748loPI   C1B11965   1.651  11.859   5.525  0.2307 -0.2971 -0.0330
  748loPI   C2B11966   1.299  11.723   5.775  0.0316  0.0738 -0.0212
  748loPI   C3B11967   1.066  11.405   6.111  0.1782 -0.0185  0.1675
  748loPI   C4B11968   1.018  10.990   6.229  0.1894  0.1277 -0.0007
  749loPI    C111969  13.557   6.910   4.566  0.0213  0.2991 -0.3193
  749loPI    C211970  13.765   6.997   4.895 -0.2354 -0.1174 -0.0372
  749loPI    C311971  13.911   6.736   4.630 -0.1448  0.0232 -0.1269
  749loPI   PO411972  13.308   6.892   4.683 -0.0169  0.1191 -0.0709
  749loPI   GL111973  13.143   6.753   5.127  0.0919  0.0249  0.1526
  749loPI   GL211974  13.104   6.464   5.319 -0.1507 -0.1321  0.1272
  749loPI   C1A11975  13.374   6.861   5.450  0.0165  0.3058 -0.1817
  749loPI   C2A11976  13.455   6.784   5.914 -0.2409 -0.1108  0.2007
  749loPI   C3A11977  13.287   6.612   6.309 -0.1214 -0.0752 -0.2302
  749loPI   C4A11978  13.381   6.694   6.757  0.3608  0.4533 -0.0954
  749loPI   C5A11979  13.560   6.742   7.099 -0.1010 -0.0095 -0.0073
  749loPI   C6A11980  13.466   6.425   7.474  0.2439  0.2233 -0.0847
  749loPI   C1B11981  13.191   6.355   5.810 -0.3430 -0.0185  0.2004
  749loPI   C2B11982  13.494   6.206   6.058  0.1439 -0.0264 -0.2677
  749loPI   C3B11983  13.610   6.243   6.502 -0.2654  0.2061  0.3673
  749loPI   C4B11984  13.489   6.139   6.877 -0.2143  0.3302  0.0079
  750loPI    C111985  13.957  12.082   4.756  0.0372  0.1217 -0.2261
  750loPI    C211986  13.890  11.748   4.547  0.1513 -0.1339  0.1351
  750loPI    C311987  13.896  12.102   4.361  0.0427 -0.3305 -0.2553
  750loPI   PO411988  13.937  11.971   4.959 -0.1279  0.1878 -0.2155
  750loPI   GL111989  14.281  11.924   5.258 -0.0136 -0.0093  0.1761
  750loPI   GL211990  14.192  11.595   5.430  0.2880  0.0767 -0.0742
  750loPI   C1A11991  14.212  11.911   5.810  0.0496 -0.1383 -0.2342
  750loPI   C2A11992  14.226  11.874   6.213  0.3074  0.2544  0.0919
  750loPI   C3A11993  13.983  11.567   6.552 -0.1934 -0.1255 -0.1760
  750loPI   C4A11994  13.882  11.246   6.800 -0.2774  0.0277  0.0803
  750loPI   C5A11995  13.586  11.011   6.956  0.1056  0.1199 -0.2860
  750loPI   C6A11996  13.411  10.553   7.036 -0.1582 -0.5744 -0.0698
  750loPI   C1B11997  14.050  11.176   5.629 -0.1306  0.2092  0.0125
  750loPI   C2B11998  14.035  10.970   6.025  0.1999 -0.2407  0.3225
  750loPI   C3B11999  13.883  10.643   6.211  0.1091  0.0874  0.0191
  750loPI   C4B12000  13.936  10.233   6.465 -0.0921 -0.1163  0.4666
  751loPI    C112001  16.293  10.824   4.059 -0.0666  0.2169 -0.3160
  751loPI    C212002  16.674  10.899   4.156 -0.0537 -0.1373 -0.0732
  751loPI    C312003  16.554  10.927   3.775  0.2009  0.0269 -0.1434
  751loPI   PO412004  16.238  10.629   4.255  0.0845  0.0141  0.0441
  751loPI   GL112005  16.234  10.596   4.758 -0.1137 -0.3472 -0.2158
  751loPI   GL212006  16.157  10.902   4.672 -0.0503 -0.2370 -0.3333
  751loPI   C1A12007  16.454  10.527   5.087  0.0199  0.3253 -0.4680
  751loPI   C2A12008  16.661  10.362   5.402  0.1847  0.2469 -0.0339
  751loPI   C3A12009  16.738  10.053   5.724 -0.0399  0.2291  0.0062
  751loPI   C4A12010  16.777   9.746   5.996 -0.4396  0.2370  0.0286
  751loPI   C5A12011  16.866   9.346   6.436 -0.0904 -0.0009  0.0479
  751loPI   C6A12012  16.856   9.017   6.733  0.1123 -0.1955  0.3406
  751loPI   C1B12013  16.080  10.880   5.125 -0.3001 -0.4661  0.2474
  751loPI   C2B12014  16.364  10.755   5.527 -0.1678  0.2740 -0.1187
  751loPI   C3B12015  16.192  10.824   5.998 -0.0520  0.2059  0.0136
  751loPI   C4B12016  16.234  10.838   6.520 -0.1823  0.2849 -0.1084
  752loPI    C112017   6.962  15.420   4.885  0.0552  0.1890  0.1226
  752loPI    C212018   6.935  15.650   4.558  0.1388  0.1501  0.0880
  752loPI    C312019   6.686  15.709   4.866  0.0035  0.1310 -0.0169
  752loPI   PO412020   7.340  15.439   4.882 -0.1618  0.1683  0.0963
  752loPI   GL112021   7.545  15.552   5.278  0.0582  0.0348 -0.2477
  752loPI   GL212022   7.169  15.477   5.364  0.2164 -0.3326 -0.2083
  752loPI   C1A12023   7.594  15.776   5.738 -0.2192  0.1251  0.0800
  752loPI   C2A12024   7.825  15.907   6.071 -0.1964 -0.2434 -0.0279
  752loPI   C3A12025   7.973  16.117   6.484  0.0020 -0.0525 -0.1108
  752loPI   C4A12026   7.825  16.411   6.835 -0.1093  0.2151 -0.2178
  752loPI   C5A12027   7.495  16.583   7.141 -0.1280 -0.4404 -0.1445
  752loPI   C6A12028   7.289  16.619   7.579  0.0587  0.2580 -0.0761
  752loPI   C1B12029   7.192  15.378   5.889  0.0134 -0.0160 -0.1104
  752loPI   C2B12030   7.320  15.603   6.272 -0.2452  0.0452  0.2192
  752loPI   C3B12031   7.238  15.480   6.653  0.2708  0.0624  0.1338
  752loPI   C4B12032   7.435  15.533   7.104  0.4860 -0.1045 -0.3130
  753loPI    C112033   0.642  14.842   4.253 -0.1478  0.2118 -0.0809
  753loPI    C212034   0.919  15.025   4.030  0.0417  0.0478  0.0166
  753loPI    C312035   0.783  14.665   3.923  0.1310 -0.0301  0.1618
  753loPI   PO412036   0.765  15.004   4.521 -0.1293 -0.1126 -0.0829
  753loPI   GL112037   0.726  15.029   4.988  0.4800 -0.0957 -0.2675
  753loPI   GL212038   0.844  14.775   5.147 -0.0574 -0.0290 -0.0581
  753loPI   C1A12039   0.572  15.338   5.268 -0.4541  0.3410  0.2112
  753loPI   C2A12040   0.254  15.262   5.515  0.1658 -0.1581  0.2583
  753loPI   C3A12041   0.226  15.356   5.917  0.1847  0.0555  0.1349
  753loPI   C4A12042   0.099  15.550   6.239  0.1173  0.4284  0.0066
  753loPI   C5A12043  -0.148  15.904   6.501 -0.0721 -0.2526  0.1072
  753loPI   C6A12044  -0.271  16.236   6.788  0.0176  0.1176  0.0439
  753loPI   C1B12045   0.950  14.875   5.546  0.2146 -0.0867  0.0610
  753loPI   C2B12046   1.161  14.747   5.912 -0.0793 -0.4655  0.0222
  753loPI   C3B12047   1.221  14.925   6.202  0.0681  0.0474 -0.0840
  753loPI   C4B12048   1.342  14.925   6.570  0.1524  0.3639  0.0242
  754loPI    C112049  13.720   3.640   4.166 -0.2627  0.1144  0.0218
  754loPI    C212050  13.429   3.436   3.983 -0.2541 -0.0036  0.1383
  754loPI    C312051  13.762   3.533   3.783 -0.2645 -0.0912  0.0778
  754loPI   PO412052  13.834   3.434   4.443  0.1240 -0.0949  0.2332
  754loPI   GL112053  13.857   3.094   4.739 -0.3089 -0.0168  0.2488
  754loPI   GL212054  13.650   2.659   4.696 -0.1693 -0.0485 -0.1491
  754loPI   C1A12055  13.921   3.403   5.067  0.1483  0.1332 -0.2317
  754loPI   C2A12056  13.705   3.585   5.489 -0.1083  0.3539  0.0985
  754loPI   C3A12057  13.467   3.679   5.948  0.0585 -0.0430  0.0345
  754loPI   C4A12058  13.119   3.808   6.176  0.0281  0.0347  0.1741
  754loPI   C5A12059  12.853   3.702   6.444 -0.0020  0.1188 -0.1769
  754loPI   C6A12060  12.779   3.499   6.756 -0.0331 -0.1769  0.0040
  754loPI   C1B12061  13.553   2.887   5.027 -0.0996  0.3325 -0.2404
  754loPI   C2B12062  13.542   3.068   5.423  0.0689 -0.2890  0.3112
  754loPI   C3B12063  13.319   3.245   5.763  0.0435 -0.0577 -0.1269
  754loPI   C4B12064  13.047   3.328   6.165 -0.3611  0.2340  0.1129
  755loPI    C112065   1.646  10.517   4.554 -0.1696 -0.1919  0.1398
  755loPI    C212066   1.684  10.202   4.311 -0.1125 -0.1419  0.0834
  755loPI    C312067   1.396  10.472   4.245  0.1135  0.0513 -0.1319
  755loPI   PO412068   1.884  10.479   4.667  0.1268 -0.1167 -0.0260
  755loPI   GL112069   1.963  10.466   4.972  0.0736 -0.1170  0.0278
  755loPI   GL212070   2.067  10.569   5.179  0.2469 -0.1578 -0.1767
  755loPI   C1A12071   1.775  10.209   5.282  0.0809  0.3197  0.3550
  755loPI   C2A12072   1.721  10.150   5.675  0.2719 -0.1393 -0.2271
  755loPI   C3A12073   1.946   9.916   6.051 -0.1017 -0.0122 -0.2304
  755loPI   C4A12074   1.995   9.606   6.319  0.1614 -0.0352  0.0210
  755loPI   C5A12075   1.941   9.122   6.204 -0.0017  0.1018 -0.0197
  755loPI   C6A12076   2.229   8.996   5.928 -0.1175  0.0967  0.0308
  755loPI   C1B12077   2.089  10.557   5.694 -0.2454  0.1967 -0.3179
  755loPI   C2B12078   1.936  10.414   6.090  0.0647 -0.6013  0.3654
  755loPI   C3B12079   1.866  10.514   6.428  0.0428  0.1806  0.1519
  755loPI   C4B12080   1.808  10.811   6.687 -0.0948 -0.1212  0.0051
  756loPI    C112081   0.594   9.227   4.652 -0.1057 -0.0572 -0.0561
  756loPI    C212082   0.405   9.577   4.599  0.1667  0.0930 -0.0512
  756loPI    C312083   0.664   9.445   4.324 -0.0373 -0.1737 -0.1194
  756loPI   PO412084   0.570   9.205   4.929  0.1005  0.2857  0.5989
  756loPI   GL112085   0.748   9.253   5.316 -0.0797 -0.2141  0.2956
  756loPI   GL212086   0.931   9.049   5.401 -0.4669 -0.1614 -0.1043
  756loPI   C1A12087   0.670   9.583   5.561  0.0881  0.0369  0.2984
  756loPI   C2A12088   0.528   9.705   6.007  0.1351  0.2802  0.2913
  756loPI   C3A12089   0.557   9.455   6.419 -0.4496  0.2858 -0.2663
  756loPI   C4A12090   0.391   9.171   6.636  0.0582 -0.1871 -0.2274
  756loPI   C5A12091   0.610   9.066   7.024 -0.0631  0.0059 -0.2726
  756loPI   C6A12092   0.920   9.295   7.345 -0.3049  0.1289 -0.2584
  756loPI   C1B12093   0.885   9.248   5.834 -0.1111  0.4426 -0.1244
  756loPI   C2B12094   1.115   9.484   6.130 -0.0418  0.1369  0.1197
  756loPI   C3B12095   1.109   9.583   6.611  0.1138  0.1852 -0.1883
  756loPI   C4B12096   1.361   9.559   6.959  0.0187  0.1218 -0.1748
  757loPI    C112097   9.405  16.944   4.403  0.3770 -0.4253 -0.1999
  757loPI    C212098   9.144  16.874   4.108 -0.0203  0.0149  0.0331
  757loPI    C312099   9.464  17.105   4.041  0.1268 -0.2403 -0.1614
  757loPI   PO412100   9.273  17.082   4.605 -0.1308 -0.2149  0.1205
  757loPI   GL112101   9.190  16.867   5.054  0.1336  0.1306 -0.2716
  757loPI   GL212102   8.994  17.117   5.104 -0.2394 -0.0716  0.0454
  757loPI   C1A12103   9.253  16.964   5.484 -0.1226 -0.0926  0.0385
  757loPI   C2A12104   9.284  16.955   5.936 -0.2543 -0.0721 -0.1749
  757loPI   C3A12105   9.252  17.010   6.353  0.1063  0.3443 -0.0874
  757loPI   C4A12106   9.308  17.151   6.738  0.1948  0.1696 -0.1920
  757loPI   C5A12107   9.515  17.068   7.034  0.2149  0.0493 -0.0518
  757loPI   C6A12108   9.476  17.141   7.478 -0.0688 -0.3893  0.1373
  757loPI   C1B12109   8.773  17.349   5.405 -0.0472 -0.0683 -0.0958
  757loPI   C2B12110   8.688  17.698   5.621 -0.2341 -0.0990  0.2404
  757loPI   C3B12111   8.508  17.700   6.057  0.0382 -0.0436  0.0893
  757loPI   C4B12112   8.190  17.790   6.406  0.1816  0.1108 -0.1980
  758loPI    C112113   9.290   4.429   4.327 -0.0080  0.1576  0.2095
  758loPI    C212114   9.110   4.273   4.006  0.3607 -0.1832  0.1619
  758loPI    C312115   9.153   4.669   4.038 -0.1909 -0.1085  0.0709
  758loPI   PO412116   9.155   4.365   4.509 -0.2496  0.2226 -0.3316
  758loPI   GL112117   9.027   4.547   4.862 -0.1078  0.1189  0.0158
  758loPI   GL212118   9.301   4.574   5.036  0.0177 -0.1669 -0.1892
  758loPI   C1A12119   8.643   4.674   5.075  0.2933 -0.2626 -0.1183
  758loPI   C2A12120   8.277   4.563   5.423  0.0276 -0.1378  0.0084
  758loPI   C3A12121   8.044   4.575   5.785 -0.0957 -0.0111  0.3444
  758loPI   C4A12122   7.853   4.363   6.218  0.2504  0.1637  0.1399
  758loPI   C5A12123   7.655   4.402   6.536 -0.1322 -0.1033 -0.0735
  758loPI   C6A12124   7.672   4.642   6.876 -0.0878  0.2446 -0.0283
  758loPI   C1B12125   9.147   4.340   5.304  0.2689  0.3013  0.1033
  758loPI   C2B12126   9.004   4.199   5.651 -0.0666 -0.1556  0.1123
  758loPI   C3B12127   8.934   4.209   6.097  0.0557 -0.1040  0.3671
  758loPI   C4B12128   8.771   4.457   6.509 -0.1296  0.1098  0.0155
  759loPI    C112129   6.469   0.485   4.111  0.2998  0.0085 -0.2196
  759loPI    C212130   6.590   0.864   4.065  0.0076  0.1231 -0.0682
  759loPI    C312131   6.371   0.687   3.780 -0.2858  0.2399  0.0799
  759loPI   PO412132   6.635   0.510   4.369 -0.1652  0.3200  0.1655
  759loPI   GL112133   6.624   0.759   4.752 -0.1494 -0.0750  0.1727
  759loPI   GL212134   6.920   0.843   4.970  0.0451  0.3775  0.1338
  759loPI   C1A12135   6.652   0.462   5.125 -0.2058  0.2347 -0.1274
  759loPI   C2A12136   6.859   0.198   5.566 -0.1161 -0.3857  0.3140
  759loPI   C3A12137   6.717   0.269   6.012 -0.2060 -0.2057  0.2058
  759loPI   C4A12138   6.837   0.504   6.315  0.4229  0.0563  0.1024
  759loPI   C5A12139   7.225   0.632   6.522  0.0091  0.1142 -0.0272
  759loPI   C6A12140   7.478   0.709   6.893 -0.2411  0.0869  0.1244
  759loPI   C1B12141   6.513   0.912   5.224  0.2491  0.2053  0.1244
  759loPI   C2B12142   6.134   0.932   5.553 -0.2138 -0.0639  0.3574
  759loPI   C3B12143   6.228   0.722   5.909  0.1310 -0.0632 -0.1382
  759loPI   C4B12144   6.101   0.668   6.290  0.2253  0.1546  0.2007
  760loPI    C112145   9.605  19.094   4.522  0.2063  0.0166 -0.0471
  760loPI    C212146   9.946  19.086   4.312  0.1414 -0.1522 -0.1480
  760loPI    C312147   9.596  19.135   4.124  0.1108  0.0483 -0.0419
  760loPI   PO412148   9.705  18.927   4.742  0.0659 -0.0452 -0.2394
  760loPI   GL112149   9.517  18.901   5.156 -0.0474 -0.4179  0.1357
  760loPI   GL212150   9.269  19.012   5.005 -0.1221  0.0843 -0.0667
  760loPI   C1A12151   9.905  19.064   5.415  0.0783 -0.2678  0.2365
  760loPI   C2A12152  10.082  19.107   5.869 -0.0117 -0.0013  0.0592
  760loPI   C3A12153  10.172  19.130   6.289 -0.3903 -0.2108  0.0656
  760loPI   C4A12154  10.189  19.203   6.652  0.1058  0.0955  0.2210
  760loPI   C5A12155  10.128  19.584   6.811 -0.0512 -0.1180 -0.1025
  760loPI   C6A12156  10.200  19.732   7.199 -0.2997  0.0558  0.1889
  760loPI   C1B12157   8.967  19.225   5.223 -0.2302  0.1421 -0.0457
  760loPI   C2B12158   8.893  19.552   5.488 -0.0439  0.1885 -0.1869
  760loPI   C3B12159   8.808  20.069   5.402  0.1465 -0.0988 -0.2212
  760loPI   C4B12160   8.392  20.276   5.476  0.2387  0.0843 -0.1305
  761loPI    C112161  10.232  17.206   4.400  0.0612  0.0467 -0.0460
  761loPI    C212162  10.322  17.391   4.057 -0.0766  0.0076 -0.1040
  761loPI    C312163   9.944  17.288   4.135 -0.0135 -0.1776 -0.0365
  761loPI   PO412164  10.414  17.244   4.576 -0.1776  0.1455 -0.3964
  761loPI   GL112165  10.241  17.521   4.870 -0.2434  0.1358 -0.0938
  761loPI   GL212166  10.605  17.575   4.870  0.1417 -0.0580  0.0231
  761loPI   C1A12167  10.376  17.873   5.177 -0.0836  0.2983 -0.0113
  761loPI   C2A12168  10.537  18.005   5.498 -0.0216 -0.1178 -0.2054
  761loPI   C3A12169  10.351  18.075   5.879 -0.3334  0.0265 -0.4687
  761loPI   C4A12170  10.331  18.036   6.309 -0.0395  0.1006 -0.2242
  761loPI   C5A12171  10.460  17.745   6.666  0.1634  0.0369 -0.1768
  761loPI   C6A12172  10.656  17.574   7.105 -0.1545  0.2669  0.1640
  761loPI   C1B12173  10.672  17.436   5.234  0.0716 -0.0792 -0.5199
  761loPI   C2B12174  10.865  17.583   5.513  0.2169  0.0212  0.4305
  761loPI   C3B12175  10.880  17.331   5.867 -0.1420 -0.3508  0.1521
  761loPI   C4B12176  10.751  17.329   6.279  0.0803 -0.1597 -0.0368
  762loPI    C112177   3.389   4.485   4.614 -0.0258  0.0127  0.1620
  762loPI    C212178   3.668   4.744   4.490  0.0372 -0.1593 -0.0622
  762loPI    C312179   3.465   4.526   4.223  0.0685 -0.4289  0.1291
  762loPI   PO412180   3.355   4.394   4.883  0.1460  0.1083 -0.0123
  762loPI   GL112181   3.652   4.536   5.224  0.1059 -0.0656  0.0073
  762loPI   GL212182   3.472   4.771   5.328 -0.1108 -0.0938  0.3654
  762loPI   C1A12183   3.877   4.591   5.669  0.0260 -0.0996  0.2062
  762loPI   C2A12184   3.957   4.448   6.107  0.1388 -0.0350  0.3037
  762loPI   C3A12185   4.054   4.493   6.552 -0.1153 -0.3613 -0.3271
  762loPI   C4A12186   4.158   4.389   6.956  0.0143 -0.0879  0.0382
  762loPI   C5A12187   4.366   4.435   7.299  0.1988  0.0568 -0.1371
  762loPI   C6A12188   4.632   4.672   7.584  0.1497  0.1642  0.0628
  762loPI   C1B12189   3.526   4.839   5.836 -0.0851  0.1286  0.0715
  762loPI   C2B12190   3.460   5.061   6.201  0.1022 -0.1838  0.2862
  762loPI   C3B12191   3.435   5.110   6.669  0.0462  0.2439  0.1481
  762loPI   C4B12192   3.283   5.597   6.515 -0.1659 -0.2903 -0.0266
  763loPI    C112193   3.611  11.651   4.698 -0.0329 -0.0025 -0.0602
  763loPI    C212194   3.276  11.513   4.531  0.0023  0.1357 -0.2480
  763loPI    C312195   3.612  11.533   4.316  0.1582 -0.0986 -0.0313
  763loPI   PO412196   3.548  11.783   4.876  0.0556  0.3166 -0.1285
  763loPI   GL112197   3.471  11.743   5.292  0.0528 -0.1961 -0.0597
  763loPI   GL212198   3.439  12.096   5.255  0.0615 -0.0114  0.0450
  763loPI   C1A12199   3.731  11.593   5.590  0.0621 -0.1664  0.1790
  763loPI   C2A12200   4.072  11.398   5.759 -0.3316  0.1863  0.2264
  763loPI   C3A12201   4.122  11.186   6.250  0.1257 -0.0774  0.2853
  763loPI   C4A12202   4.168  11.057   6.691  0.4131  0.1968  0.1219
  763loPI   C5A12203   4.421  10.928   6.982  0.1645  0.0408  0.0186
  763loPI   C6A12204   4.751  11.091   7.298 -0.0400 -0.0803 -0.3440
  763loPI   C1B12205   3.111  11.910   5.601  0.3520  0.0165  0.0140
  763loPI   C2B12206   2.902  11.987   6.102  0.3181  0.0205  0.1250
  763loPI   C3B12207   2.786  11.866   6.537 -0.0713  0.1100 -0.2101
  763loPI   C4B12208   2.771  11.704   6.983 -0.1420  0.1463  0.1518
  764loPI    C112209   0.373  17.548   4.344 -0.1069 -0.0623 -0.0410
  764loPI    C212210   0.085  17.782   4.195 -0.1478 -0.1389 -0.0835
  764loPI    C312211   0.376  17.646   3.956 -0.0158  0.0251 -0.0187
  764loPI   PO412212   0.539  17.685   4.554 -0.1311  0.1257 -0.3732
  764loPI   GL112213   0.784  17.560   4.917  0.2693 -0.0466  0.2800
  764loPI   GL212214   0.738  17.145   4.880  0.2650 -0.2308  0.3228
  764loPI   C1A12215   0.735  17.590   5.341  0.0106 -0.3287 -0.0911
  764loPI   C2A12216   0.908  17.560   5.765 -0.1017 -0.3343  0.0057
  764loPI   C3A12217   1.029  17.893   5.976 -0.3889  0.2101 -0.2980
  764loPI   C4A12218   0.928  18.271   6.103 -0.0464  0.2829 -0.0198
  764loPI   C5A12219   0.872  18.426   6.435  0.0667 -0.0980 -0.1414
  764loPI   C6A12220   0.596  18.302   6.783  0.0961  0.0498 -0.0511
  764loPI   C1B12221   0.334  17.297   5.134  0.0144 -0.0905  0.1439
  764loPI   C2B12222   0.029  17.342   5.462  0.0718 -0.1145  0.0273
  764loPI   C3B12223  -0.407  17.469   5.541 -0.0434  0.2912  0.1924
  764loPI   C4B12224  -0.815  17.390   5.385 -0.4597 -0.1942  0.1396
  765loPI    C112225  15.084   8.775   4.296 -0.1605 -0.0727 -0.0312
  765loPI    C212226  14.977   8.636   3.936  0.3017  0.0883 -0.2389
  765loPI    C312227  15.323   8.521   4.100 -0.0154 -0.1744  0.2721
  765loPI   PO412228  14.892   8.700   4.421 -0.1811 -0.1051  0.1093
  765loPI   GL112229  14.880   8.407   4.842 -0.3065  0.3285 -0.2683
  765loPI   GL212230  14.611   8.712   5.022  0.1345  0.2330 -0.1580
  765loPI   C1A12231  15.154   8.299   5.193  0.2169  0.0968 -0.1429
  765loPI   C2A12232  15.110   8.030   5.626  0.2218 -0.0425  0.2154
  765loPI   C3A12233  15.333   7.881   6.047 -0.1042 -0.3056  0.1515
  765loPI   C4A12234  15.570   7.852   6.459  0.0209 -0.1669  0.0426
  765loPI   C5A12235  15.436   7.890   6.959 -0.0082 -0.2757 -0.0208
  765loPI   C6A12236  15.387   8.273   7.110 -0.1700  0.0636 -0.0735
  765loPI   C1B12237  14.903   8.818   5.335 -0.1626  0.2503  0.0965
  765loPI   C2B12238  15.118   8.608   5.704  0.1479  0.0918 -0.2762
  765loPI   C3B12239  15.174   8.610   6.165 -0.3968 -0.3906 -0.1030
  765loPI   C4B12240  15.169   8.778   6.635  0.0232  0.1328 -0.0745
  766loPI    C112241   4.815  18.761   4.293 -0.2093 -0.2139 -0.1655
  766loPI    C212242   5.008  19.009   4.045 -0.1258  0.0703  0.1754
  766loPI    C312243   4.636  18.888   3.959 -0.0110 -0.0255 -0.2026
  766loPI   PO412244   4.861  18.858   4.554  0.0753 -0.1812 -0.1705
  766loPI   GL112245   4.847  19.248   4.775  0.0161 -0.0492  0.2315
  766loPI   GL212246   5.009  19.089   4.970  0.0135  0.3021  0.4726
  766loPI   C1A12247   4.532  19.106   5.057  0.2771  0.1586 -0.0392
  766loPI   C2A12248   4.449  18.985   5.431  0.1097 -0.2861  0.1046
  766loPI   C3A12249   4.706  18.834   5.694  0.0442 -0.1065  0.0251
  766loPI   C4A12250   4.450  18.471   5.843  0.0487 -0.1440  0.1761
  766loPI   C5A12251   4.042  18.375   5.979  0.0888  0.1784  0.0868
  766loPI   C6A12252   3.984  17.992   5.712  0.0953  0.3226 -0.2442
  766loPI   C1B12253   4.860  19.439   5.253  0.1724 -0.0279  0.0783
  766loPI   C2B12254   4.704  19.380   5.748  0.3013  0.1212  0.0570
  766loPI   C3B12255   4.866  19.303   6.160 -0.1540 -0.2987  0.1065
  766loPI   C4B12256   4.839  19.282   6.533  0.0872 -0.0286 -0.3112
  767loPI    C112257  16.027   7.327   4.116  0.1512 -0.0090 -0.0706
  767loPI    C212258  16.266   7.607   3.959 -0.0274  0.0709 -0.2042
  767loPI    C312259  16.339   7.220   3.889  0.3124  0.0716  0.1100
  767loPI   PO412260  16.056   7.402   4.453  0.2362 -0.1875  0.1994
  767loPI   GL112261  16.128   7.618   4.777 -0.0923  0.2006 -0.1596
  767loPI   GL212262  16.144   7.933   4.855 -0.0339 -0.3456 -0.3685
  767loPI   C1A12263  16.243   7.322   5.067  0.0342  0.0083 -0.0040
  767loPI   C2A12264  16.342   7.167   5.502  0.2336 -0.0352 -0.0596
  767loPI   C3A12265  16.322   7.124   5.926 -0.2065 -0.0007  0.0310
  767loPI   C4A12266  16.399   7.187   6.356  0.0437 -0.1494  0.0956
  767loPI   C5A12267  16.574   7.141   6.766 -0.2756  0.1641 -0.1089
  767loPI   C6A12268  16.761   7.417   7.087  0.1446 -0.2237  0.6106
  767loPI   C1B12269  16.054   7.771   5.330 -0.2783 -0.0008  0.0595
  767loPI   C2B12270  15.900   7.382   5.468 -0.0764  0.0637  0.1084
  767loPI   C3B12271  15.662   7.242   5.849  0.1048 -0.0378 -0.2377
  767loPI   C4B12272  15.490   7.424   6.199 -0.2649  0.0560  0.1419
  768loPI    C112273  19.842   8.236   4.580  0.4638  0.0267  0.0059
  768loPI    C212274  19.664   8.537   4.384  0.1518 -0.1480  0.0139
  768loPI    C312275  19.718   8.184   4.203  0.2235 -0.1879  0.1116
  768loPI   PO412276  19.994   8.343   4.755  0.0725 -0.0110 -0.0622
  768loPI   GL112277  19.907   8.374   5.137  0.1650 -0.0026 -0.3397
  768loPI   GL212278  20.003   8.173   5.365 -0.1533  0.2494  0.0241
  768loPI   C1A12279  20.091   8.622   5.511 -0.0604  0.0072  0.1714
  768loPI   C2A12280  20.190   8.603   5.866  0.1721 -0.1307 -0.1780
  768loPI   C3A12281  20.287   8.520   6.336  0.1600  0.3979 -0.1232
  768loPI   C4A12282  20.248   8.348   6.782 -0.1216 -0.1057 -0.0616
  768loPI   C5A12283  20.367   8.387   7.243  0.0085 -0.1728  0.1091
  768loPI   C6A12284  20.030   8.471   7.442 -0.1485 -0.3430 -0.3082
  768loPI   C1B12285  19.988   8.179   5.758  0.5985  0.0946  0.0809
  768loPI   C2B12286  19.831   8.308   6.118  0.0597 -0.1104 -0.3275
  768loPI   C3B12287  19.629   8.278   6.488 -0.3321  0.1126 -0.0474
  768loPI   C4B12288  19.714   8.240   6.983  0.1730  0.1114 -0.0322
  769loPI    C112289  17.801  19.662   4.262  0.1906 -0.0786 -0.0573
  769loPI    C212290  18.070  19.573   3.979  0.0084 -0.1450 -0.2116
  769loPI    C312291  17.901  19.936   3.988  0.2501 -0.0340  0.0081
  769loPI   PO412292  17.863  19.425   4.448 -0.0955  0.0191  0.1001
  769loPI   GL112293  17.810  19.306   4.809 -0.1917 -0.0594  0.0625
  769loPI   GL212294  17.613  19.041   4.884 -0.1397 -0.0503  0.1227
  769loPI   C1A12295  17.902  19.493   5.225 -0.0349  0.1657  0.1978
  769loPI   C2A12296  18.005  19.360   5.702  0.0883  0.3251 -0.0883
  769loPI   C3A12297  18.370  19.148   6.026  0.0531 -0.0789  0.1018
  769loPI   C4A12298  18.314  18.854   6.370 -0.1260  0.0327 -0.2143
  769loPI   C5A12299  18.181  18.590   6.768  0.1893 -0.1084  0.1769
  769loPI   C6A12300  18.262  18.325   7.093  0.2336 -0.0201 -0.2255
  769loPI   C1B12301  17.568  19.047   5.277  0.0331 -0.2375  0.1508
  769loPI   C2B12302  17.474  18.903   5.647 -0.2444  0.0850  0.0361
  769loPI   C3B12303  17.660  18.548   5.922 -0.1003  0.0194  0.1535
  769loPI   C4B12304  17.924  18.567   6.209 -0.1945 -0.1226  0.3499
  770loPI    C112305  19.238   8.825   4.511 -0.0971  0.0486 -0.1397
  770loPI    C212306  18.928   8.952   4.728  0.1335 -0.0086  0.2327
  770loPI    C312307  18.886   8.895   4.334 -0.3596 -0.1335  0.2960
  770loPI   PO412308  19.481   8.895   4.731  0.0648  0.0817 -0.1277
  770loPI   GL112309  19.584   8.795   5.214  0.2718  0.2010  0.1909
  770loPI   GL212310  19.194   8.685   5.221 -0.1356 -0.2106  0.0606
  770loPI   C1A12311  19.510   8.524   5.647 -0.1905  0.0237  0.1015
  770loPI   C2A12312  19.423   8.575   5.992  0.1482 -0.1739 -0.1247
  770loPI   C3A12313  19.448   8.800   6.294 -0.1044 -0.1448 -0.0563
  770loPI   C4A12314  19.426   8.598   6.817 -0.0359 -0.1877 -0.2260
  770loPI   C5A12315  19.270   8.399   7.141 -0.0166  0.0129 -0.0729
  770loPI   C6A12316  19.087   7.975   7.214 -0.3015 -0.1532  0.1919
  770loPI   C1B12317  19.238   8.903   5.702 -0.1486 -0.0740 -0.1221
  770loPI   C2B12318  19.229   9.223   6.028  0.1226  0.0931  0.0479
  770loPI   C3B12319  19.211   9.357   6.447 -0.1954  0.0441  0.3258
  770loPI   C4B12320  19.247   9.430   6.886  0.0068  0.0902  0.3465
  771loPI    C112321   8.301   2.391   4.284  0.0396 -0.1115  0.0234
  771loPI    C212322   8.690   2.304   4.252  0.0194 -0.1541 -0.1116
  771loPI    C312323   8.477   2.395   3.925 -0.0833 -0.1271 -0.0377
  771loPI   PO412324   8.306   2.531   4.476 -0.2409  0.0887 -0.1903
  771loPI   GL112325   8.274   2.330   4.831  0.3326 -0.1593  0.2528
  771loPI   GL212326   8.241   2.040   5.053  0.0034  0.0999  0.3401
  771loPI   C1A12327   8.408   2.510   5.177 -0.0468  0.1446 -0.0022
  771loPI   C2A12328   8.567   2.755   5.395  0.2600 -0.2424  0.1558
  771loPI   C3A12329   8.925   2.727   5.681 -0.0912 -0.0311 -0.1723
  771loPI   C4A12330   9.089   2.882   5.974 -0.1999  0.0250 -0.2135
  771loPI   C5A12331   9.295   2.778   6.238  0.0289 -0.0039 -0.1052
  771loPI   C6A12332   9.246   2.538   6.568  0.0294  0.1544 -0.1362
  771loPI   C1B12333   8.076   2.128   5.450 -0.1949  0.2653  0.0028
  771loPI   C2B12334   8.084   2.390   5.783  0.2557  0.0976 -0.0091
  771loPI   C3B12335   8.190   2.724   5.764  0.0919 -0.1302 -0.0992
  771loPI   C4B12336   8.438   2.905   5.900 -0.0603 -0.0584  0.1231
  772loPI    C112337   5.665   3.117   4.317  0.0793 -0.1135 -0.2079
  772loPI    C212338   5.975   3.341   4.201 -0.1189  0.2165 -0.1150
  772loPI    C312339   5.642   3.331   3.980 -0.2799  0.3807  0.1150
  772loPI   PO412340   5.784   3.037   4.518  0.6290  0.1467  0.1827
  772loPI   GL112341   5.589   2.694   4.831 -0.2696 -0.0396 -0.0718
  772loPI   GL212342   5.924   2.669   4.822 -0.0694 -0.1399  0.0846
  772loPI   C1A12343   5.687   2.704   5.248  0.5229 -0.2261 -0.0695
  772loPI   C2A12344   5.718   2.595   5.695 -0.1540 -0.3915 -0.1269
  772loPI   C3A12345   5.854   2.594   6.170  0.0734  0.0722 -0.1202
  772loPI   C4A12346   6.133   2.687   6.619 -0.2679  0.0287  0.0411
  772loPI   C5A12347   6.589   2.823   6.671 -0.1019 -0.0986  0.0867
  772loPI   C6A12348   6.709   3.312   6.535 -0.1380 -0.4709  0.1363
  772loPI   C1B12349   6.186   2.739   5.229  0.1691 -0.2060 -0.1814
  772loPI   C2B12350   6.206   2.708   5.653  0.1815  0.5010 -0.2874
  772loPI   C3B12351   6.343   2.666   6.055  0.2641 -0.2764  0.1693
  772loPI   C4B12352   6.460   2.458   6.313  0.1228  0.1196 -0.2757
  773loPI    C112353   6.485   3.390   4.334  0.1508  0.0577 -0.1358
  773loPI    C212354   6.264   3.643   4.551 -0.0390 -0.2339  0.0184
  773loPI    C312355   6.291   3.690   4.154  0.0208  0.0916  0.0582
  773loPI   PO412356   6.410   3.103   4.402 -0.3162 -0.0405 -0.0283
  773loPI   GL112357   6.128   3.156   4.863  0.1279 -0.1849 -0.1196
  773loPI   GL212358   5.852   3.124   5.058 -0.0385  0.1209  0.1184
  773loPI   C1A12359   6.252   3.212   5.212 -0.1350  0.2280 -0.0791
  773loPI   C2A12360   6.395   3.177   5.618 -0.0682 -0.1971  0.1963
  773loPI   C3A12361   6.392   3.225   5.996 -0.2321 -0.2658  0.2766
  773loPI   C4A12362   6.242   3.497   6.291  0.1979  0.1762  0.1472
  773loPI   C5A12363   6.311   3.301   6.710  0.4626 -0.2660 -0.0444
  773loPI   C6A12364   6.222   3.016   7.002 -0.1142 -0.1061 -0.0900
  773loPI   C1B12365   5.887   3.060   5.502 -0.0161  0.2200 -0.2001
  773loPI   C2B12366   5.879   3.160   5.890  0.1145  0.0722  0.0106
  773loPI   C3B12367   5.981   3.052   6.285 -0.0529  0.0624 -0.0763
  773loPI   C4B12368   5.790   3.232   6.665 -0.0945  0.2887  0.0413
  774loPI    C112369  16.348  15.032   3.928  0.0909 -0.3491  0.1524
  774loPI    C212370  16.237  14.722   3.701  0.1149 -0.3782  0.1802
  774loPI    C312371  16.305  15.079   3.533 -0.1703 -0.3208  0.1822
  774loPI   PO412372  16.134  15.021   4.110  0.2104  0.0691 -0.2288
  774loPI   GL112373  16.262  15.082   4.566  0.1412  0.2665  0.2060
  774loPI   GL212374  16.123  14.787   4.657 -0.1239  0.2239 -0.2679
  774loPI   C1A12375  16.047  15.186   4.933 -0.2069  0.2413 -0.0344
  774loPI   C2A12376  16.084  15.305   5.369 -0.0104  0.1970  0.1393
  774loPI   C3A12377  16.117  15.264   5.739 -0.4179 -0.2189 -0.0887
  774loPI   C4A12378  16.031  15.321   6.121  0.0175  0.2361  0.3725
  774loPI   C5A12379  16.043  15.402   6.503 -0.1339 -0.1903  0.0937
  774loPI   C6A12380  16.025  15.469   6.908 -0.1909 -0.2382  0.0917
  774loPI   C1B12381  16.216  14.804   5.155 -0.1245 -0.1695  0.0096
  774loPI   C2B12382  15.904  14.805   5.341  0.0356  0.3569  0.2473
  774loPI   C3B12383  15.712  14.601   5.573  0.0059 -0.3679 -0.1406
  774loPI   C4B12384  15.490  14.708   5.785  0.1574  0.2463 -0.1873
  775loPI    C112385   1.519  17.434   4.112  0.1381  0.1386  0.0413
  775loPI    C212386   1.209  17.633   3.956  0.0870  0.1725  0.1849
  775loPI    C312387   1.574  17.674   3.797 -0.0371 -0.1163 -0.1882
  775loPI   PO412388   1.388  17.459   4.389 -0.1281  0.2317 -0.0570
  775loPI   GL112389   1.314  17.406   4.832  0.2749  0.0494 -0.2632
  775loPI   GL212390   1.587  17.188   4.844  0.0014 -0.2957  0.2879
  775loPI   C1A12391   1.070  17.320   5.210  0.1116  0.2322 -0.1398
  775loPI   C2A12392   1.050  17.079   5.641 -0.1509 -0.4526  0.1844
  775loPI   C3A12393   1.057  17.211   6.081  0.1058 -0.0422  0.1788
  775loPI   C4A12394   1.046  17.190   6.589  0.0227  0.0819 -0.0757
  775loPI   C5A12395   1.244  17.318   6.893 -0.4795 -0.2695 -0.1724
  775loPI   C6A12396   1.116  17.516   7.231  0.0952  0.0353  0.0951
  775loPI   C1B12397   1.565  17.321   5.285  0.1801  0.0829  0.3264
  775loPI   C2B12398   1.454  17.330   5.756 -0.1618 -0.1368  0.1453
  775loPI   C3B12399   1.407  17.604   6.103 -0.0447 -0.2944  0.2590
  775loPI   C4B12400   1.350  17.621   6.470  0.0107 -0.0281 -0.1121
  776loPI    C112401   4.227   6.485   4.683  0.1375  0.0404  0.0741
  776loPI    C212402   4.049   6.174   4.505  0.0227  0.0772  0.1233
  776loPI    C312403   3.934   6.547   4.418 -0.1111  0.0914  0.3561
  776loPI   PO412404   4.271   6.264   4.968 -0.0660  0.0717  0.0496
  776loPI   GL112405   4.408   6.111   5.299  0.1164  0.1623  0.2176
  776loPI   GL212406   4.741   6.178   5.463 -0.0926  0.0930 -0.0949
  776loPI   C1A12407   4.308   6.075   5.766 -0.1670  0.2918  0.2550
  776loPI   C2A12408   4.138   6.037   6.175 -0.3066  0.1050  0.0232
  776loPI   C3A12409   4.549   6.040   6.463  0.1456  0.0450  0.2000
  776loPI   C4A12410   4.653   5.700   6.786  0.0435 -0.1598  0.0339
  776loPI   C5A12411   4.626   5.615   7.160 -0.2648 -0.0631  0.1615
  776loPI   C6A12412   4.821   5.392   7.439  0.1296 -0.1110  0.1103
  776loPI   C1B12413   4.798   6.167   6.016 -0.2281 -0.1428  0.0721
  776loPI   C2B12414   4.918   6.442   6.307 -0.4562 -0.3628 -0.1775
  776loPI   C3B12415   4.751   6.467   6.705  0.1801  0.0276 -0.3406
  776loPI   C4B12416   4.862   6.582   7.208  0.0735  0.1550  0.1813
  777loPI    C112417   0.975   3.106   4.469  0.0942  0.0427  0.1226
  777loPI    C212418   1.121   2.795   4.673 -0.0518  0.0525  0.2435
  777loPI    C312419   1.363   3.094   4.565  0.1200 -0.1717 -0.0036
  777loPI   PO412420   0.781   3.143   4.584  0.1027 -0.4942  0.2524
  777loPI   GL112421   0.841   3.320   4.947  0.0653 -0.2570 -0.0561
  777loPI   GL212422   1.124   3.125   5.023  0.2140  0.0813  0.1028
  777loPI   C1A12423   0.567   3.091   5.302 -0.1126  0.0596 -0.4377
  777loPI   C2A12424   0.620   2.968   5.785  0.2215  0.1720 -0.2726
  777loPI   C3A12425   0.749   2.734   6.126  0.1075 -0.1015 -0.4395
  777loPI   C4A12426   0.830   2.830   6.564  0.1889 -0.0197  0.0368
  777loPI   C5A12427   1.107   2.779   6.810  0.0130 -0.0760  0.0641
  777loPI   C6A12428   1.276   2.557   7.160  0.0344  0.0481  0.0328
  777loPI   C1B12429   1.029   2.922   5.390  0.3168 -0.1208 -0.0171
  777loPI   C2B12430   1.001   2.611   5.658 -0.1426 -0.1930  0.0505
  777loPI   C3B12431   1.056   2.313   5.968  0.1047 -0.1084  0.0118
  777loPI   C4B12432   0.838   1.958   6.305  0.1764  0.2761  0.1449
  778loPI    C112433   1.703   3.553   4.575 -0.1564 -0.0962 -0.1870
  778loPI    C212434   1.437   3.515   4.279 -0.0731  0.0057 -0.2760
  778loPI    C312435   1.816   3.612   4.196 -0.0385 -0.0100 -0.1391
  778loPI   PO412436   1.467   3.576   4.792 -0.4103  0.1093 -0.1667
  778loPI   GL112437   1.443   3.447   5.148  0.0969  0.0216  0.0298
  778loPI   GL212438   1.579   3.730   5.283 -0.1405  0.1103 -0.2478
  778loPI   C1A12439   1.491   3.146   5.492 -0.0360 -0.2542 -0.3843
  778loPI   C2A12440   1.240   3.198   5.725  0.0586  0.0508 -0.0553
  778loPI   C3A12441   1.026   3.173   6.133  0.0934  0.1342  0.0176
  778loPI   C4A12442   0.783   3.326   6.489 -0.0090 -0.0250  0.4226
  778loPI   C5A12443   0.641   3.244   6.914  0.0475  0.2938  0.0620
  778loPI   C6A12444   0.390   2.945   7.150 -0.1099 -0.0649 -0.1475
  778loPI   C1B12445   1.396   3.610   5.636 -0.1541  0.2010 -0.1450
  778loPI   C2B12446   1.453   3.676   6.093  0.1545 -0.1116  0.1652
  778loPI   C3B12447   1.325   3.620   6.443 -0.0398 -0.0399 -0.1474
  778loPI   C4B12448   1.273   3.208   6.664  0.0782  0.2381 -0.2098
  779loPI    C112449  19.491  16.463   4.430  0.1006  0.2342  0.2197
  779loPI    C212450  19.721  16.780   4.350  0.0728  0.1772 -0.1040
  779loPI    C312451  19.826  16.419   4.214  0.0678  0.0570  0.2029
  779loPI   PO412452  19.499  16.403   4.626 -0.0676 -0.0214  0.1130
  779loPI   GL112453  19.404  16.276   5.022  0.2390 -0.3105 -0.0776
  779loPI   GL212454  19.593  16.523   5.071  0.2350 -0.2452  0.0045
  779loPI   C1A12455  19.939  16.169   5.282  0.2790 -0.0514  0.1375
  779loPI   C2A12456  20.200  16.333   5.609  0.2608 -0.0845  0.2345
  779loPI   C3A12457  20.247  16.444   5.982  0.0915  0.0435 -0.2429
  779loPI   C4A12458  20.295  16.735   6.297 -0.1638  0.1128  0.0321
  779loPI   C5A12459  20.470  16.722   6.713  0.1227  0.2928 -0.1760
  779loPI   C6A12460  20.595  17.047   7.016 -0.2299 -0.0875  0.4011
  779loPI   C1B12461  19.514  16.518   5.474  0.0653 -0.0602 -0.1771
  779loPI   C2B12462  19.199  16.438   5.833  0.0311  0.2087 -0.0551
  779loPI   C3B12463  19.053  16.357   6.191  0.1859  0.0821 -0.1841
  779loPI   C4B12464  19.059  16.542   6.740 -0.4257  0.1210 -0.1062
  780loPI    C112465  19.427  18.017   4.263 -0.0582  0.0397  0.0495
  780loPI    C212466  19.134  18.288   4.293 -0.0293  0.0993 -0.1858
  780loPI    C312467  19.220  18.125   3.938  0.0411 -0.1220 -0.0690
  780loPI   PO412468  19.418  17.913   4.503  0.1481  0.0341 -0.0133
  780loPI   GL112469  19.400  17.782   4.930  0.0684  0.0656  0.1616
  780loPI   GL212470  19.608  18.053   4.961 -0.2731 -0.3669 -0.0055
  780loPI   C1A12471  19.076  17.901   5.133 -0.1710 -0.0803  0.3106
  780loPI   C2A12472  18.994  17.886   5.526 -0.2198  0.1281  0.0171
  780loPI   C3A12473  18.954  17.805   6.058 -0.1744 -0.2033 -0.2594
  780loPI   C4A12474  18.936  17.763   6.529 -0.0279 -0.3723  0.2859
  780loPI   C5A12475  19.053  17.869   6.996 -0.0351  0.1096 -0.0862
  780loPI   C6A12476  18.958  18.153   7.258 -0.0532 -0.1937 -0.1899
  780loPI   C1B12477  19.540  17.937   5.397 -0.2608 -0.0631  0.1002
  780loPI   C2B12478  19.531  17.779   5.859 -0.6274 -0.1692  0.0411
  780loPI   C3B12479  19.377  17.844   6.305 -0.1009 -0.0237 -0.1993
  780loPI   C4B12480  19.288  18.091   6.641 -0.1638 -0.0023 -0.0746
  781loPI    C112481   1.195   0.215   4.160  0.2023 -0.3246 -0.0426
  781loPI    C212482   1.271  -0.161   4.046  0.0931 -0.2433 -0.3956
  781loPI    C312483   1.522   0.133   3.945 -0.0159 -0.1664 -0.4448
  781loPI   PO412484   1.157   0.213   4.427  0.0662  0.2015 -0.1085
  781loPI   GL112485   1.255   0.136   4.848  0.2932 -0.1892  0.1754
  781loPI   GL212486   1.476   0.270   4.927  0.0021 -0.0203 -0.0235
  781loPI   C1A12487   1.055   0.293   5.207 -0.4171  0.1966  0.0843
  781loPI   C2A12488   1.138   0.174   5.683 -0.0833 -0.0146 -0.3038
  781loPI   C3A12489   1.461   0.260   5.826 -0.1802 -0.2796 -0.0844
  781loPI   C4A12490   1.754   0.336   6.143  0.1844 -0.0724  0.2525
  781loPI   C5A12491   2.083   0.634   6.306  0.1475 -0.0398  0.2615
  781loPI   C6A12492   2.376   0.582   6.639  0.1181 -0.1170 -0.0477
  781loPI   C1B12493   1.575   0.292   5.288  0.3256  0.2705  0.1124
  781loPI   C2B12494   1.948   0.473   5.672 -0.0831  0.2292  0.3646
  781loPI   C3B12495   2.351   0.434   5.877  0.2067 -0.1845  0.2697
  781loPI   C4B12496   2.432   0.231   6.281  0.2498  0.1786  0.1173
  782loPI    C112497   6.640   4.926   4.585  0.0713  0.1101  0.0808
  782loPI    C212498   6.811   5.149   4.301  0.1853  0.0937  0.1360
  782loPI    C312499   6.470   4.954   4.224  0.1739  0.1521  0.0354
  782loPI   PO412500   6.676   5.075   4.805 -0.0476 -0.1011 -0.0758
  782loPI   GL112501   6.461   5.301   5.011  0.1521 -0.1036  0.3198
  782loPI   GL212502   6.343   5.644   5.004 -0.2849 -0.1147  0.1980
  782loPI   C1A12503   6.280   5.187   5.303 -0.2727  0.0473 -0.0719
  782loPI   C2A12504   6.346   5.210   5.736  0.2422  0.2301  0.0342
  782loPI   C3A12505   6.195   5.097   6.034 -0.2264 -0.2134  0.0606
  782loPI   C4A12506   6.375   5.187   6.440 -0.2020  0.0209  0.2480
  782loPI   C5A12507   6.167   5.121   6.815 -0.1859  0.2386 -0.0058
  782loPI   C6A12508   5.982   4.953   7.159  0.1758 -0.4438 -0.0389
  782loPI   C1B12509   6.501   5.630   5.373 -0.1758 -0.0145 -0.0186
  782loPI   C2B12510   6.598   5.689   5.730 -0.2012  0.0285  0.0524
  782loPI   C3B12511   6.517   5.638   6.065 -0.2052 -0.0795  0.2763
  782loPI   C4B12512   6.620   5.734   6.490 -0.0259  0.0504  0.0536
  783loPI    C112513  10.325  15.889   4.435  0.0405  0.0770 -0.2183
  783loPI    C212514  10.547  16.218   4.487  0.0116  0.0765 -0.0874
  783loPI    C312515  10.724  15.861   4.451  0.0416  0.1022 -0.1993
  783loPI   PO412516  10.085  15.878   4.555  0.1892 -0.2973  0.1957
  783loPI   GL112517   9.809  16.044   4.853 -0.2515 -0.2384 -0.1078
  783loPI   GL212518   9.758  15.798   4.965  0.3294 -0.2343 -0.3312
  783loPI   C1A12519   9.924  16.167   5.291 -0.0497  0.1336 -0.1022
  783loPI   C2A12520   9.933  16.360   5.728  0.0762 -0.1585  0.1404
  783loPI   C3A12521  10.198  16.693   5.880  0.0825  0.0890  0.0169
  783loPI   C4A12522  10.118  16.915   6.284 -0.0988 -0.0207  0.0701
  783loPI   C5A12523  10.325  17.000   6.495 -0.0184  0.1387 -0.4156
  783loPI   C6A12524  10.516  17.188   6.749 -0.1290  0.0951 -0.1122
  783loPI   C1B12525   9.755  15.710   5.459 -0.1526 -0.5179 -0.0373
  783loPI   C2B12526   9.810  15.930   5.825  0.1359  0.0296  0.1240
  783loPI   C3B12527   9.844  16.167   6.180 -0.0427 -0.0421 -0.2891
  783loPI   C4B12528   9.826  16.414   6.594 -0.2269 -0.0717 -0.1849
  784loPI    C112529  10.336   7.901   4.832  0.3213  0.1191  0.1304
  784loPI    C212530   9.984   7.966   5.010  0.3102 -0.0817  0.1850
  784loPI    C312531  10.013   7.984   4.611  0.2089 -0.1920  0.1721
  784loPI   PO412532  10.478   8.036   4.990 -0.2639 -0.0568  0.1595
  784loPI   GL112533  10.403   8.151   5.326  0.4538  0.0140 -0.1784
  784loPI   GL212534  10.591   7.920   5.478  0.1831 -0.3578 -0.0312
  784loPI   C1A12535  10.270   8.204   5.757 -0.3458  0.2150 -0.3733
  784loPI   C2A12536  10.030   8.345   6.066  0.0418  0.1335 -0.0769
  784loPI   C3A12537   9.770   8.389   6.468 -0.2408 -0.3904  0.0585
  784loPI   C4A12538   9.498   8.270   6.867 -0.0304  0.1488  0.2160
  784loPI   C5A12539   9.399   8.233   7.246  0.1444  0.0163  0.1069
  784loPI   C6A12540   9.569   8.072   7.578  0.1722 -0.2825  0.3393
  784loPI   C1B12541  10.664   7.735   5.917 -0.2603 -0.1344  0.4744
  784loPI   C2B12542  10.733   7.922   6.344 -0.0821 -0.3659 -0.0490
  784loPI   C3B12543  10.702   8.256   6.662  0.1294  0.2836 -0.3418
  784loPI   C4B12544  10.802   8.425   7.072  0.0396  0.1188  0.0727
  785loPI    C112545   9.657  19.933   4.251 -0.0257 -0.2473  0.1955
  785loPI    C212546   9.416  19.616   4.212 -0.0258 -0.1907 -0.3253
  785loPI    C312547   9.785  19.608   4.056  0.0718 -0.0307 -0.1082
  785loPI   PO412548   9.658  20.130   4.455 -0.0299 -0.0245  0.0331
  785loPI   GL112549   9.901  20.033   4.889 -0.0578  0.1967  0.1228
  785loPI   GL212550  10.078  19.752   5.044  0.0404  0.0399  0.0816
  785loPI   C1A12551   9.806  20.165   5.337  0.0881 -0.1898  0.1409
  785loPI   C2A12552   9.792  20.144   5.774  0.2611 -0.2224 -0.1061
  785loPI   C3A12553   9.751  20.087   6.149 -0.1437 -0.0617  0.0042
  785loPI   C4A12554   9.771  19.859   6.553  0.1230 -0.3334 -0.1733
  785loPI   C5A12555   9.646  19.937   6.964 -0.0117 -0.4269  0.2796
  785loPI   C6A12556   9.884  20.179   7.259  0.2506 -0.1271  0.0787
  785loPI   C1B12557   9.828  19.689   5.431  0.2116 -0.0378  0.2782
  785loPI   C2B12558   9.903  19.679   5.813  0.2108  0.0491  0.4682
  785loPI   C3B12559   9.865  19.527   6.186  0.3838 -0.0429 -0.0788
  785loPI   C4B12560   9.707  19.364   6.586  0.1051  0.0309 -0.0991
  786loPI    C112561  12.975  16.524   4.308  0.0647  0.0731 -0.0145
  786loPI    C212562  13.097  16.320   3.987  0.1147 -0.0246  0.0660
  786loPI    C312563  12.722  16.456   4.006  0.0783 -0.1170  0.0157
  786loPI   PO412564  13.064  16.363   4.497 -0.3384 -0.1040 -0.1229
  786loPI   GL112565  13.225  16.236   4.856 -0.0689  0.0452  0.1826
  786loPI   GL212566  13.324  15.879   4.776 -0.1807 -0.2199  0.0590
  786loPI   C1A12567  13.064  16.474   5.173 -0.3994 -0.0537 -0.2238
  786loPI   C2A12568  12.896  16.381   5.540 -0.2896 -0.0759 -0.2071
  786loPI   C3A12569  12.981  16.293   5.884  0.1930 -0.1003 -0.1053
  786loPI   C4A12570  13.020  16.347   6.421  0.0681  0.0666  0.2345
  786loPI   C5A12571  12.948  16.312   6.847 -0.1090 -0.0552  0.1631
  786loPI   C6A12572  12.799  16.049   7.171  0.0323 -0.0127 -0.2770
  786loPI   C1B12573  13.451  15.846   5.209 -0.2159  0.2566  0.0967
  786loPI   C2B12574  13.521  15.764   5.665 -0.0257  0.1528 -0.0250
  786loPI   C3B12575  13.444  15.464   6.075  0.4120 -0.2936  0.0356
  786loPI   C4B12576  13.554  15.066   6.304  0.1914 -0.1556  0.0455
  787loPI    C112577   4.241  14.484   4.703 -0.0875 -0.0182 -0.0452
  787loPI    C212578   4.568  14.255   4.686 -0.0210  0.0793 -0.0929
  787loPI    C312579   4.372  14.349   4.350  0.0739  0.2658 -0.0971
  787loPI   PO412580   4.284  14.504   4.997  0.1022 -0.0139 -0.3738
  787loPI   GL112581   4.409  14.535   5.483  0.2019  0.0256 -0.0963
  787loPI   GL212582   4.346  14.939   5.349 -0.2150 -0.1519 -0.0641
  787loPI   C1A12583   4.555  14.390   5.826 -0.0214  0.0820  0.4352
  787loPI   C2A12584   4.695  14.397   6.240 -0.1340 -0.2881  0.1579
  787loPI   C3A12585   4.942  14.180   6.571 -0.2806  0.0227  0.2102
  787loPI   C4A12586   5.305  14.421   6.803 -0.1504  0.0434 -0.0020
  787loPI   C5A12587   5.357  14.586   7.309  0.1430  0.2096  0.1736
  787loPI   C6A12588   5.539  14.911   7.489 -0.1359 -0.0281  0.1023
  787loPI   C1B12589   4.574  14.906   5.721  0.1374  0.2419 -0.1895
  787loPI   C2B12590   4.552  14.986   6.207  0.1732 -0.0237 -0.0208
  787loPI   C3B12591   4.820  14.752   6.545 -0.3313  0.1321  0.3080
  787loPI   C4B12592   4.901  14.726   6.938 -0.2426  0.0878 -0.1343
  788loPI    C112593   7.999  13.628   4.555 -0.3005  0.1704  0.2434
  788loPI    C212594   8.074  13.376   4.254  0.2334  0.2663  0.2865
  788loPI    C312595   7.841  13.696   4.194 -0.0922  0.0038  0.1187
  788loPI   PO412596   7.928  13.454   4.731  0.0203  0.0074 -0.2011
  788loPI   GL112597   7.970  13.502   5.189  0.1135  0.0907 -0.2407
  788loPI   GL212598   7.724  13.340   5.384 -0.1685  0.1771  0.3043
  788loPI   C1A12599   8.091  13.666   5.583 -0.1361  0.2190  0.0129
  788loPI   C2A12600   8.180  13.636   6.042 -0.0993 -0.2322 -0.1914
  788loPI   C3A12601   8.319  13.832   6.416 -0.1182  0.0990  0.0885
  788loPI   C4A12602   8.073  13.968   6.797 -0.3814  0.2482  0.1925
  788loPI   C5A12603   7.669  13.840   6.958 -0.0690 -0.0693 -0.1707
  788loPI   C6A12604   7.536  14.019   7.344  0.3105  0.0161 -0.0686
  788loPI   C1B12605   7.611  13.366   5.806  0.1188  0.0404 -0.0420
  788loPI   C2B12606   7.422  13.385   6.213 -0.0632 -0.2740 -0.0469
  788loPI   C3B12607   7.151  13.350   6.442 -0.2644 -0.0007 -0.1329
  788loPI   C4B12608   6.921  13.155   6.884  0.3447  0.0636 -0.1193
  789loPI    C112609  13.969  15.020   4.143  0.0412 -0.0687 -0.2406
  789loPI    C212610  14.224  14.846   4.397 -0.1424  0.1390  0.0928
  789loPI    C312611  13.870  14.677   4.323 -0.0612  0.0430 -0.0815
  789loPI   PO412612  13.958  15.232   4.280  0.2033 -0.0581  0.1053
  789loPI   GL112613  14.069  15.330   4.649  0.1470 -0.0047  0.1817
  789loPI   GL212614  14.230  15.216   4.914  0.0724 -0.0546  0.1155
  789loPI   C1A12615  14.236  15.698   4.873 -0.1895  0.2073  0.1136
  789loPI   C2A12616  14.281  15.924   5.303 -0.1063  0.1195 -0.3281
  789loPI   C3A12617  14.371  15.885   5.804  0.2832 -0.1519 -0.0390
  789loPI   C4A12618  14.374  15.696   6.195  0.2680 -0.4834  0.0276
  789loPI   C5A12619  14.801  15.537   6.358 -0.0813  0.1354  0.0129
  789loPI   C6A12620  14.926  15.745   6.687 -0.1276 -0.0120  0.0692
  789loPI   C1B12621  13.910  15.153   5.176  0.1450 -0.1185  0.1186
  789loPI   C2B12622  13.912  14.937   5.522 -0.0075  0.0229 -0.1912
  789loPI   C3B12623  13.993  15.019   6.045 -0.0599  0.1969 -0.3030
  789loPI   C4B12624  14.025  15.024   6.528 -0.0193  0.0157  0.1657
  790loPI    C112625  11.319  13.587   5.275 -0.2680  0.0363  0.0368
  790loPI    C212626  11.022  13.410   5.075 -0.1925 -0.0807  0.0276
  790loPI    C312627  11.396  13.273   5.040 -0.1004  0.2035 -0.1357
  790loPI   PO412628  11.285  13.878   5.263  0.1780  0.0140 -0.0631
  790loPI   GL112629  11.432  14.349   5.342 -0.1554  0.2489 -0.2505
  790loPI   GL212630  11.488  14.109   5.645  0.3152  0.0497  0.2678
  790loPI   C1A12631  11.435  14.589   5.833 -0.1310  0.0475 -0.3636
  790loPI   C2A12632  11.562  14.800   6.155  0.0111  0.1059 -0.0079
  790loPI   C3A12633  11.446  14.992   6.544  0.1326  0.3253 -0.1179
  790loPI   C4A12634  11.030  15.027   6.534 -0.0472  0.0548  0.0260
  790loPI   C5A12635  10.749  15.313   6.685  0.1277 -0.1569 -0.1714
  790loPI   C6A12636  10.689  15.347   7.123 -0.1662 -0.2695 -0.1646
  790loPI   C1B12637  11.402  14.086   6.139  0.1172  0.1191  0.0364
  790loPI   C2B12638  11.036  14.003   6.495  0.1149  0.0504  0.2158
  790loPI   C3B12639  10.985  13.932   6.947  0.2936  0.1295  0.3624
  790loPI   C4B12640  11.290  13.621   7.201  0.1118 -0.1464 -0.0008
  791loPI    C112641  17.208   0.416   4.191  0.0042  0.0127 -0.3985
  791loPI    C212642  17.569   0.344   4.347 -0.1842 -0.1850 -0.0412
  791loPI    C312643  17.527   0.618   4.059  0.2014  0.0626  0.1299
  791loPI   PO412644  17.064   0.237   4.325  0.0750 -0.0754  0.0288
  791loPI   GL112645  17.075  -0.007   4.695  0.2101  0.2030  0.0311
  791loPI   GL212646  17.401  -0.072   4.591 -0.1219 -0.0941 -0.0247
  791loPI   C1A12647  16.753   0.112   5.104  0.1232  0.0618 -0.0362
  791loPI   C2A12648  16.710   0.082   5.501  0.1707 -0.3593 -0.0686
  791loPI   C3A12649  16.636   0.192   5.885 -0.1353  0.1582  0.0703
  791loPI   C4A12650  16.539   0.076   6.331  0.1016  0.1824 -0.3148
  791loPI   C5A12651  16.012   0.243   6.661 -0.3513 -0.1482 -0.4927
  791loPI   C6A12652  15.729   0.040   6.906 -0.0166 -0.1909 -0.1585
  791loPI   C1B12653  17.335  -0.367   4.968 -0.0624  0.0038  0.4198
  791loPI   C2B12654  17.079  -0.263   5.365 -0.0408 -0.2012  0.0894
  791loPI   C3B12655  17.191  -0.464   5.680  0.0276  0.1174 -0.1296
  791loPI   C4B12656  17.137  -0.476   6.151 -0.0319  0.3610  0.0648
  792loPI    C112657   2.812  10.240   4.593 -0.3563  0.2546 -0.0091
  792loPI    C212658   2.910  10.227   4.205 -0.1735  0.0232  0.0422
  792loPI    C312659   2.625   9.985   4.348 -0.0101 -0.1286  0.1143
  792loPI   PO412660   2.826  10.456   4.671  0.2585  0.3560  0.0570
  792loPI   GL112661   2.525  10.565   5.061 -0.2847  0.0436  0.0479
  792loPI   GL212662   2.784  10.372   5.148 -0.1177  0.2186 -0.0411
  792loPI   C1A12663   2.611  10.693   5.466  0.2867  0.0292 -0.0281
  792loPI   C2A12664   2.560  10.621   5.854 -0.1149  0.3885  0.1027
  792loPI   C3A12665   2.414  10.675   6.281  0.0246  0.0609 -0.2484
  792loPI   C4A12666   2.307  10.454   6.685  0.3128 -0.0685  0.1621
  792loPI   C5A12667   1.923  10.295   6.875 -0.1181 -0.3849  0.0339
  792loPI   C6A12668   1.491  10.417   6.951 -0.1816 -0.0660  0.1813
  792loPI   C1B12669   2.864  10.282   5.559 -0.2764 -0.0646  0.2382
  792loPI   C2B12670   2.898  10.293   5.987 -0.0043 -0.0251  0.2418
  792loPI   C3B12671   2.854  10.281   6.444  0.0476  0.3964  0.0632
  792loPI   C4B12672   2.714  10.104   6.896  0.1127  0.0315 -0.0997
  793loPI    C112673   3.452   8.565   4.906  0.0056  0.0996  0.3550
  793loPI    C212674   3.592   8.190   4.903  0.0921  0.1316  0.0467
  793loPI    C312675   3.234   8.271   4.744  0.2270  0.2341 -0.2101
  793loPI   PO412676   3.488   8.675   5.171 -0.1023 -0.0485  0.2295
  793loPI   GL112677   3.396   8.579   5.551  0.1572  0.0794 -0.0012
  793loPI   GL212678   3.134   8.708   5.625  0.0999  0.0277 -0.2194
  793loPI   C1A12679   3.607   8.674   5.973 -0.1620 -0.1308 -0.4447
  793loPI   C2A12680   3.869   8.521   6.315 -0.1665 -0.2245  0.1005
  793loPI   C3A12681   4.310   8.681   6.355  0.0652 -0.0532 -0.0460
  793loPI   C4A12682   4.606   8.750   6.738 -0.0463 -0.2951  0.0699
  793loPI   C5A12683   5.040   8.661   6.873  0.0891 -0.1639 -0.0900
  793loPI   C6A12684   5.360   8.474   7.138 -0.0037  0.0280 -0.5599
  793loPI   C1B12685   3.150   8.693   6.021 -0.0793  0.0334  0.3205
  793loPI   C2B12686   3.059   8.698   6.405 -0.0730  0.1003  0.2286
  793loPI   C3B12687   2.993   8.398   6.778  0.0350  0.0288 -0.0708
  793loPI   C4B12688   2.788   8.336   7.199  0.3073 -0.0035  0.0722
  794loPI    C112689   2.070  16.569   4.359  0.0381  0.0354  0.0851
  794loPI    C212690   2.341  16.328   4.190  0.0632  0.1788 -0.0815
  794loPI    C312691   2.002  16.415   3.996 -0.1601 -0.0969  0.1767
  794loPI   PO412692   2.031  16.444   4.564  0.3400 -0.3990 -0.1741
  794loPI   GL112693   1.932  16.552   5.019  0.2392  0.2078  0.0317
  794loPI   GL212694   1.812  16.772   5.167  0.0821  0.1880  0.1053
  794loPI   C1A12695   1.760  16.415   5.495  0.1455 -0.0571 -0.4081
  794loPI   C2A12696   1.319  16.371   5.733 -0.1386 -0.1368 -0.0057
  794loPI   C3A12697   1.250  16.279   6.161 -0.2326  0.0264 -0.1329
  794loPI   C4A12698   1.332  16.139   6.548 -0.0860 -0.5108  0.0416
  794loPI   C5A12699   1.475  16.290   6.875  0.1871 -0.2945  0.3382
  794loPI   C6A12700   1.421  16.274   7.407 -0.0865  0.6974 -0.1378
  794loPI   C1B12701   1.874  16.876   5.595 -0.4100 -0.0724 -0.1750
  794loPI   C2B12702   1.906  16.838   6.001  0.1813  0.3559  0.0147
  794loPI   C3B12703   1.674  16.608   6.301  0.3471 -0.3057  0.1328
  794loPI   C4B12704   1.819  16.509   6.653  0.1252  0.0401  0.1553
  795loPI    C112705   0.022   0.815   4.067  0.0822  0.2046 -0.0017
  795loPI    C212706  -0.131   1.095   3.825 -0.0076  0.0088 -0.1744
  795loPI    C312707   0.205   0.904   3.723 -0.0149 -0.0347 -0.1175
  795loPI   PO412708   0.092   0.954   4.321 -0.0434 -0.1263 -0.1314
  795loPI   GL112709   0.127   1.244   4.704  0.2843  0.3234  0.0124
  795loPI   GL212710  -0.201   1.237   4.702 -0.1980  0.1104 -0.0344
  795loPI   C1A12711   0.373   1.277   5.060 -0.1594 -0.1209 -0.1960
  795loPI   C2A12712   0.375   1.380   5.512  0.2748 -0.0659  0.0734
  795loPI   C3A12713   0.075   1.488   5.850 -0.2940  0.0250  0.1566
  795loPI   C4A12714   0.039   1.346   6.255 -0.1811 -0.0285 -0.1131
  795loPI   C5A12715  -0.173   1.177   6.567 -0.1912  0.1008  0.0441
  795loPI   C6A12716  -0.189   0.718   6.611  0.0960 -0.1871 -0.0623
  795loPI   C1B12717  -0.094   1.385   5.162  0.1791  0.4462  0.1277
  795loPI   C2B12718   0.035   1.810   5.404  0.1143  0.0531  0.1582
  795loPI   C3B12719   0.385   1.868   5.699 -0.2607 -0.0917  0.4608
  795loPI   C4B12720   0.516   1.763   6.010 -0.1016 -0.1284  0.0492
  796loPI    C112721   7.702  -0.114   4.190 -0.0839 -0.1344 -0.0941
  796loPI    C212722   7.506   0.022   3.869 -0.0335 -0.0546 -0.0916
  796loPI    C312723   7.782   0.251   4.045 -0.0266 -0.1174 -0.0203
  796loPI   PO412724   7.597  -0.277   4.351 -0.2770 -0.1135  0.1675
  796loPI   GL112725   7.387  -0.294   4.731 -0.2969 -0.1718 -0.1052
  796loPI   GL212726   7.160  -0.502   4.760 -0.1274 -0.0596  0.1787
  796loPI   C1A12727   7.407  -0.263   5.222  0.4383 -0.1666 -0.1577
  796loPI   C2A12728   7.507  -0.078   5.504 -0.2461 -0.0092  0.0294
  796loPI   C3A12729   7.723   0.151   5.885  0.0220 -0.0404 -0.1340
  796loPI   C4A12730   7.612   0.527   5.991  0.0591 -0.1450  0.2078
  796loPI   C5A12731   7.590   0.930   6.334 -0.1464  0.2325  0.1288
  796loPI   C6A12732   7.238   1.223   6.354  0.2667  0.1754 -0.2998
  796loPI   C1B12733   6.904  -0.548   5.184  0.1417  0.0495  0.0821
  796loPI   C2B12734   6.916  -0.373   5.585  0.4704  0.2571 -0.1613
  796loPI   C3B12735   7.106  -0.091   5.839  0.1585  0.0320 -0.3052
  796loPI   C4B12736   7.267   0.200   6.158  0.0745 -0.0071 -0.0205
  797loPI    C112737  17.588   4.444   4.286 -0.1631 -0.0980  0.1629
  797loPI    C212738  17.488   4.784   4.100  0.1209 -0.0656  0.0651
  797loPI    C312739  17.559   4.453   3.887  0.2944 -0.0685  0.1255
  797loPI   PO412740  17.458   4.541   4.569 -0.6389 -0.2038 -0.0144
  797loPI   GL112741  17.474   4.705   4.923  0.0662  0.1247 -0.3773
  797loPI   GL212742  17.379   4.467   5.170  0.1799  0.3825 -0.1998
  797loPI   C1A12743  17.273   4.894   5.305 -0.0582  0.0293  0.0183
  797loPI   C2A12744  17.271   4.959   5.704 -0.1337 -0.3103 -0.0685
  797loPI   C3A12745  17.148   4.922   6.117  0.0949 -0.1107 -0.4994
  797loPI   C4A12746  16.943   4.764   6.506  0.1326  0.2630 -0.2176
  797loPI   C5A12747  16.576   4.450   6.588 -0.0854 -0.0692  0.0578
  797loPI   C6A12748  16.615   4.044   6.775  0.0739 -0.1796  0.0792
  797loPI   C1B12749  17.239   4.247   5.544  0.2327 -0.1349 -0.2359
  797loPI   C2B12750  17.204   3.984   5.889 -0.2324  0.1300  0.1295
  797loPI   C3B12751  17.345   3.957   6.399 -0.0701  0.1684  0.1808
  797loPI   C4B12752  17.280   3.896   6.862 -0.1371 -0.0848  0.0909
  798loPI    C112753   6.713  10.047   4.567 -0.0608 -0.1489 -0.0235
  798loPI    C212754   6.518   9.701   4.617  0.0217 -0.1939 -0.0120
  798loPI    C312755   6.410   9.951   4.324 -0.2170 -0.1033  0.1505
  798loPI   PO412756   6.765  10.102   4.829  0.0505 -0.0679 -0.0751
  798loPI   GL112757   6.679  10.282   5.249  0.0778 -0.1274 -0.0328
  798loPI   GL212758   6.927  10.498   5.501  0.0364 -0.1514  0.1458
  798loPI   C1A12759   6.587  10.174   5.726 -0.3545  0.0414 -0.0510
  798loPI   C2A12760   6.609   9.922   6.144  0.0007  0.2053 -0.1020
  798loPI   C3A12761   6.691   9.703   6.429 -0.1478  0.0555 -0.3908
  798loPI   C4A12762   6.614   9.764   6.904  0.0893  0.1279  0.2257
  798loPI   C5A12763   6.826   9.819   7.358 -0.1557 -0.0788  0.3633
  798loPI   C6A12764   7.126   9.930   7.778 -0.0528  0.5433  0.3586
  798loPI   C1B12765   6.979  10.584   5.882  0.1302 -0.1097 -0.0897
  798loPI   C2B12766   6.896  10.541   6.282 -0.0899 -0.2058 -0.1598
  798loPI   C3B12767   6.817  10.679   6.677  0.1923  0.0175  0.1559
  798loPI   C4B12768   6.944  10.575   7.120 -0.1672 -0.3577  0.0743
  799loPI    C112769  15.377   9.179   4.187  0.1260 -0.1523 -0.0335
  799loPI    C212770  15.275   9.028   3.830 -0.1799  0.0379 -0.0304
  799loPI    C312771  15.499   9.359   3.851 -0.1209 -0.0010 -0.0448
  799loPI   PO412772  15.106   9.264   4.359 -0.3338 -0.2270  0.0976
  799loPI   GL112773  15.142   9.424   4.707  0.1018 -0.0620  0.1258
  799loPI   GL212774  15.206   9.385   5.041  0.0669 -0.1950 -0.0862
  799loPI   C1A12775  14.699   9.319   4.931 -0.1424 -0.0112 -0.0052
  799loPI   C2A12776  14.556   9.168   5.318  0.1599 -0.2331  0.2749
  799loPI   C3A12777  14.564   9.358   5.624  0.0562  0.3088 -0.0285
  799loPI   C4A12778  14.290   9.499   6.010  0.0507  0.5235 -0.1907
  799loPI   C5A12779  14.517   9.309   6.399 -0.1912 -0.2056 -0.2061
  799loPI   C6A12780  14.572   9.093   6.811 -0.0797 -0.0690  0.2416
  799loPI   C1B12781  15.029   9.289   5.389 -0.1278 -0.2955  0.3315
  799loPI   C2B12782  14.965   9.139   5.794 -0.1919  0.0194 -0.2355
  799loPI   C3B12783  14.976   9.228   6.272  0.2181 -0.3894  0.0774
  799loPI   C4B12784  14.894   9.412   6.671  0.0113 -0.0406  0.1407
  800loPI    C112785   1.229  11.444   4.632  0.0185 -0.1987 -0.1331
  800loPI    C212786   0.985  11.750   4.550  0.0631 -0.0807  0.1601
  800loPI    C312787   1.150  11.539   4.252 -0.0543  0.1108 -0.0432
  800loPI   PO412788   1.035  11.290   4.808  0.2301 -0.2026 -0.0277
  800loPI   GL112789   0.845  11.393   5.218  0.1566 -0.0130  0.0554
  800loPI   GL212790   0.564  11.427   5.294  0.0154  0.0691  0.0657
  800loPI   C1A12791   1.013  11.272   5.616  0.0906 -0.1488 -0.0321
  800loPI   C2A12792   1.265  10.997   5.794  0.2087 -0.1228  0.1401
  800loPI   C3A12793   1.374  10.761   6.038 -0.0843  0.1748 -0.0388
  800loPI   C4A12794   1.368  10.355   6.094  0.1457  0.0500  0.0020
  800loPI   C5A12795   1.308  10.195   6.488 -0.1989  0.0997 -0.0153
  800loPI   C6A12796   1.186  10.035   6.853  0.0080  0.2178  0.3563
  800loPI   C1B12797   0.649  11.636   5.628  0.0466 -0.0169 -0.1398
  800loPI   C2B12798   0.607  11.665   6.109 -0.2013  0.0095 -0.0229
  800loPI   C3B12799   0.782  11.498   6.549 -0.1307  0.1974  0.0193
  800loPI   C4B12800   0.833  11.709   6.951 -0.1838 -0.0433 -0.1692
  801loPI    C112801   5.574   0.474   4.291 -0.3297 -0.1285 -0.2643
  801loPI    C212802   5.341   0.789   4.368 -0.0471  0.0468 -0.1058
  801loPI    C312803   5.611   0.808   4.074  0.2933  0.1281  0.2056
  801loPI   PO412804   5.707   0.481   4.518  0.1448  0.1052 -0.2341
  801loPI   GL112805   5.695   0.654   4.914  0.2644 -0.1546  0.3896
  801loPI   GL212806   5.614   0.494   5.170 -0.0690  0.1447  0.0884
  801loPI   C1A12807   6.090   0.570   5.115  0.1017  0.1455 -0.1049
  801loPI   C2A12808   6.337   0.424   5.543 -0.0376  0.1254  0.1946
  801loPI   C3A12809   6.637   0.683   5.624 -0.0888 -0.0681  0.3021
  801loPI   C4A12810   6.894   0.981   5.572  0.1665 -0.0628  0.1229
  801loPI   C5A12811   6.914   1.424   5.415  0.0492 -0.0237  0.0581
  801loPI   C6A12812   7.286   1.667   5.228 -0.2987  0.1164 -0.2458
  801loPI   C1B12813   5.815   0.462   5.572  0.0775 -0.1914 -0.1708
  801loPI   C2B12814   5.718   0.420   5.950 -0.1608  0.0673 -0.1363
  801loPI   C3B12815   5.722   0.218   6.369 -0.1423 -0.2662 -0.0692
  801loPI   C4B12816   5.427   0.222   6.669 -0.2508  0.1681 -0.1033
  802loPI    C112817   0.261  15.637   4.466  0.1684  0.0649  0.0844
  802loPI    C212818   0.416  15.301   4.314  0.2002  0.1912 -0.1682
  802loPI    C312819   0.170  15.525   4.092 -0.3463 -0.0014  0.2219
  802loPI   PO412820   0.151  15.523   4.712 -0.1351 -0.4045  0.0233
  802loPI   GL112821  -0.011  15.363   5.082  0.0647 -0.2261  0.2339
  802loPI   GL212822  -0.276  15.392   5.303 -0.0012 -0.1677  0.1199
  802loPI   C1A12823   0.042  15.709   5.470  0.1888 -0.0793 -0.2043
  802loPI   C2A12824   0.167  15.953   5.855 -0.0562  0.1429  0.2166
  802loPI   C3A12825   0.307  15.976   6.197 -0.2346 -0.0210 -0.2940
  802loPI   C4A12826   0.338  15.808   6.630 -0.3072 -0.0507 -0.1868
  802loPI   C5A12827   0.441  15.872   7.038  0.0972  0.2953 -0.3166
  802loPI   C6A12828   0.447  15.978   7.487  0.0771 -0.3844  0.0701
  802loPI   C1B12829  -0.299  15.489   5.792  0.3388  0.2721 -0.2485
  802loPI   C2B12830  -0.500  15.787   6.134 -0.1257 -0.0071 -0.1276
  802loPI   C3B12831  -0.647  15.964   6.520  0.0401 -0.2229 -0.2726
  802loPI   C4B12832  -0.885  15.835   6.777  0.1116  0.2749  0.0281
  803loPI    C112833   6.660   8.861   4.691  0.1638  0.0755 -0.1629
  803loPI    C212834   6.500   8.883   4.325 -0.0304 -0.0316 -0.0864
  803loPI    C312835   6.879   8.762   4.371  0.0365  0.1062 -0.2605
  803loPI   PO412836   6.589   9.070   4.806  0.0351 -0.0591 -0.0321
  803loPI   GL112837   6.350   9.441   5.043 -0.1202 -0.1191  0.0110
  803loPI   GL212838   6.377   9.827   5.202  0.0485 -0.1123 -0.2527
  803loPI   C1A12839   6.498   9.376   5.458 -0.0870  0.2021  0.1116
  803loPI   C2A12840   6.563   9.398   5.966 -0.1063 -0.1638  0.0603
  803loPI   C3A12841   6.372   9.352   6.295 -0.1617  0.1137 -0.1090
  803loPI   C4A12842   6.357   9.332   6.653  0.1334  0.2542  0.4254
  803loPI   C5A12843   6.422   9.161   7.026  0.0269 -0.1302  0.0111
  803loPI   C6A12844   6.493   9.007   7.473 -0.0306  0.0463  0.2009
  803loPI   C1B12845   6.718   9.817   5.404  0.0566 -0.0188  0.0853
  803loPI   C2B12846   7.050   9.634   5.723  0.1231  0.4207 -0.1957
  803loPI   C3B12847   7.209   9.393   6.030  0.0032 -0.0596  0.2358
  803loPI   C4B12848   7.367   9.138   6.200  0.0514 -0.2545 -0.0214
  804loPI    C112849  10.666  17.639   4.320 -0.2887  0.0265  0.4244
  804loPI    C212850  10.662  17.975   4.538 -0.0104  0.3534 -0.0546
  804loPI    C312851  10.380  17.913   4.261 -0.2643  0.0195  0.2684
  804loPI   PO412852  10.857  17.510   4.430 -0.2714 -0.0893  0.0956
  804loPI   GL112853  11.092  17.629   4.771  0.0046  0.2102  0.0417
  804loPI   GL212854  11.187  17.356   4.871 -0.0336  0.2343 -0.0002
  804loPI   C1A12855  10.910  17.913   5.075  0.2935  0.1111 -0.1680
  804loPI   C2A12856  11.121  18.051   5.452  0.0421 -0.1830 -0.2495
  804loPI   C3A12857  11.129  17.968   5.997  0.2756  0.0059 -0.3710
  804loPI   C4A12858  11.049  18.251   6.414  0.0474 -0.0911  0.0704
  804loPI   C5A12859  10.957  18.463   6.776  0.0527  0.0659 -0.1494
  804loPI   C6A12860  11.148  18.524   7.209 -0.1896 -0.0556  0.0626
  804loPI   C1B12861  11.307  17.602   5.251  0.0290  0.1850 -0.0312
  804loPI   C2B12862  11.338  17.539   5.722  0.0744  0.0322  0.3112
  804loPI   C3B12863  11.229  17.506   6.178  0.2790 -0.6057 -0.2209
  804loPI   C4B12864  11.062  17.713   6.476  0.1855 -0.0718  0.2189
  805loPI    C112865  13.023   1.691   3.850 -0.1047 -0.2456 -0.0869
  805loPI    C212866  12.698   1.740   3.620 -0.0389  0.1677 -0.1001
  805loPI    C312867  13.039   1.607   3.459 -0.1222  0.0047 -0.1436
  805loPI   PO412868  12.834   1.740   4.141 -0.1130 -0.1267  0.0923
  805loPI   GL112869  12.990   1.766   4.574 -0.2733  0.2446  0.0863
  805loPI   GL212870  12.698   1.773   4.710 -0.2819 -0.2170  0.3015
  805loPI   C1A12871  12.884   1.343   4.796 -0.3070  0.3112 -0.3931
  805loPI   C2A12872  12.799   1.454   5.242  0.0361 -0.0888  0.2299
  805loPI   C3A12873  12.996   1.475   5.650  0.0673 -0.1949 -0.2406
  805loPI   C4A12874  12.935   1.210   6.061  0.0521  0.1479  0.3530
  805loPI   C5A12875  12.697   1.080   6.386  0.1744 -0.0250 -0.3900
  805loPI   C6A12876  12.933   1.015   6.793 -0.0743  0.0704  0.1013
  805loPI   C1B12877  12.949   1.935   5.038  0.0408  0.0437 -0.1222
  805loPI   C2B12878  13.229   2.011   5.372  0.0855 -0.0615 -0.1521
  805loPI   C3B12879  13.164   1.916   5.812 -0.2005 -0.1895 -0.1123
  805loPI   C4B12880  12.883   1.979   6.170  0.1774  0.1049 -0.2472
  806loPI    C112881   4.979  19.514   4.335 -0.1572 -0.1385  0.0007
  806loPI    C212882   4.656  19.281   4.307 -0.0218 -0.3222 -0.0531
  806loPI    C312883   4.821  19.436   3.977 -0.0088 -0.2928 -0.0328
  806loPI   PO412884   4.955  19.688   4.622  0.2046  0.2266 -0.0941
  806loPI   GL112885   5.217  20.034   4.807  0.1897  0.1142 -0.1062
  806loPI   GL212886   4.917  20.027   4.996  0.0361  0.4430  0.0604
  806loPI   C1A12887   5.453  19.752   5.129 -0.2142 -0.2381  0.1059
  806loPI   C2A12888   5.594  19.714   5.519  0.1034  0.3018  0.2942
  806loPI   C3A12889   5.708  19.508   5.844 -0.0305 -0.2646 -0.0593
  806loPI   C4A12890   5.860  19.575   6.304  0.0941 -0.0532  0.1786
  806loPI   C5A12891   5.854  19.391   6.649  0.0917  0.4767 -0.1193
  806loPI   C6A12892   5.768  19.161   7.009  0.2674  0.1830  0.0886
  806loPI   C1B12893   4.952  19.860   5.430  0.1823  0.1047 -0.0983
  806loPI   C2B12894   4.736  19.893   5.873 -0.0810 -0.0787  0.0144
  806loPI   C3B12895   4.703  20.110   6.304  0.0476  0.1226  0.0194
  806loPI   C4B12896   4.976  20.397   6.540 -0.0611  0.0589  0.3651
  807loPI    C112897  15.030   0.660   3.936 -0.3300 -0.1515  0.0531
  807loPI    C212898  15.230   0.443   4.206  0.0022 -0.0684 -0.1199
  807loPI    C312899  15.375   0.484   3.836 -0.2918  0.0729 -0.2227
  807loPI   PO412900  14.760   0.636   4.144  0.0425 -0.0117  0.0671
  807loPI   GL112901  14.655   0.526   4.510 -0.2375 -0.0213 -0.0823
  807loPI   GL212902  14.598   0.863   4.615 -0.0622  0.0606  0.0968
  807loPI   C1A12903  14.503   0.232   4.843  0.0662  0.0130  0.1352
  807loPI   C2A12904  14.443   0.233   5.296 -0.1332 -0.0905 -0.0770
  807loPI   C3A12905  14.388   0.252   5.762 -0.0892 -0.0588  0.3515
  807loPI   C4A12906  14.114   0.127   6.007  0.1410 -0.3672  0.2263
  807loPI   C5A12907  13.919   0.009   6.398 -0.1912 -0.0251 -0.1661
  807loPI   C6A12908  13.921  -0.119   6.857 -0.4759 -0.1339  0.1292
  807loPI   C1B12909  14.527   0.670   5.004  0.0379  0.4515 -0.1533
  807loPI   C2B12910  14.524   0.708   5.494 -0.2088 -0.1315 -0.1334
  807loPI   C3B12911  14.684   0.845   5.837  0.0505  0.3935 -0.1033
  807loPI   C4B12912  14.665   0.749   6.154 -0.0430  0.0140 -0.2753
  808loPI    C112913   2.470   6.794   5.040 -0.5626  0.4210 -0.1658
  808loPI    C212914   2.728   7.092   4.971  0.0493 -0.0074  0.1784
  808loPI    C312915   2.650   6.824   4.685  0.0946  0.0445  0.1172
  808loPI   PO412916   2.595   6.717   5.263  0.0661 -0.2264 -0.2293
  808loPI   GL112917   2.645   6.713   5.750 -0.3244 -0.2113 -0.1065
  808loPI   GL212918   2.292   6.473   5.742  0.1634  0.0504  0.3148
  808loPI   C1A12919   2.750   6.857   6.126  0.3178  0.0841 -0.1764
  808loPI   C2A12920   2.865   6.961   6.565  0.2604 -0.1597 -0.0359
  808loPI   C3A12921   2.902   6.965   7.112  0.3883 -0.1870 -0.0214
  808loPI   C4A12922   2.775   6.995   7.572 -0.0550 -0.2236  0.0996
  808loPI   C5A12923   2.745   6.566   7.862  0.0964  0.0275 -0.0951
  808loPI   C6A12924   2.597   6.499   8.272 -0.0232  0.0356 -0.2581
  808loPI   C1B12925   2.347   6.518   6.177  0.0204 -0.1158 -0.1329
  808loPI   C2B12926   2.650   6.486   6.426 -0.0051  0.2348  0.2127
  808loPI   C3B12927   2.527   6.632   6.837  0.1273  0.0990 -0.2144
  808loPI   C4B12928   2.367   6.769   7.190 -0.1252 -0.0162 -0.1172
  809loPI    C112929  10.629   7.389   4.473 -0.3455 -0.1909  0.0169
  809loPI    C212930  10.780   7.019   4.498  0.1189  0.0012  0.1752
  809loPI    C312931  10.900   7.265   4.206  0.1789  0.1863  0.3535
  809loPI   PO412932  10.673   7.480   4.686 -0.3686 -0.1603  0.0963
  809loPI   GL112933  10.777   7.418   5.106  0.1157  0.1067  0.2015
  809loPI   GL212934  11.120   7.632   5.235  0.0958 -0.0339  0.0467
  809loPI   C1A12935  10.670   7.441   5.479  0.2562 -0.1181 -0.4408
  809loPI   C2A12936  11.013   7.298   5.758 -0.0526 -0.0761 -0.0385
  809loPI   C3A12937  11.399   7.260   6.104 -0.2053 -0.0649 -0.3154
  809loPI   C4A12938  11.683   7.321   6.398 -0.0332  0.1439 -0.3076
  809loPI   C5A12939  11.565   7.342   6.751  0.0377  0.2188 -0.1555
  809loPI   C6A12940  11.602   7.277   7.149 -0.1688  0.0888 -0.0656
  809loPI   C1B12941  11.215   7.788   5.584 -0.2706  0.0805 -0.4092
  809loPI   C2B12942  11.349   7.788   6.012 -0.0054 -0.4898  0.3053
  809loPI   C3B12943  11.402   7.685   6.398  0.0289 -0.3380  0.2270
  809loPI   C4B12944  11.254   7.721   6.727 -0.0895 -0.1512  0.3308
  810loPI    C112945  17.455  17.612   4.445  0.1059 -0.0979  0.1031
  810loPI    C212946  17.264  17.534   4.102  0.1290 -0.0809  0.0864
  810loPI    C312947  17.655  17.455   4.136  0.1248 -0.0906  0.1116
  810loPI   PO412948  17.330  17.527   4.577 -0.1911 -0.0143 -0.3228
  810loPI   GL112949  17.392  17.575   5.002  0.0457 -0.1128  0.0875
  810loPI   GL212950  17.710  17.648   4.952  0.3853 -0.0360 -0.0532
  810loPI   C1A12951  17.098  17.803   5.281  0.1651 -0.0062  0.0068
  810loPI   C2A12952  16.836  18.072   5.476  0.3670 -0.2126 -0.0240
  810loPI   C3A12953  16.888  18.064   5.918 -0.0418 -0.0315 -0.3586
  810loPI   C4A12954  16.956  18.292   6.320  0.3512  0.2945  0.1026
  810loPI   C5A12955  17.071  18.643   6.617 -0.1681  0.0385 -0.1007
  810loPI   C6A12956  17.246  18.911   6.954 -0.1930 -0.1887  0.1661
  810loPI   C1B12957  17.769  17.487   5.366 -0.1361  0.1270 -0.2588
  810loPI   C2B12958  18.156  17.292   5.553  0.0317 -0.3570 -0.0498
  810loPI   C3B12959  18.230  17.001   5.919 -0.3320  0.2073 -0.1808
  810loPI   C4B12960  18.011  16.589   5.849  0.0989 -0.1971  0.0089
  811loPI    C112961   7.155   8.239   4.765  0.1386  0.2608 -0.1395
  811loPI    C212962   7.098   8.242   4.369 -0.4616 -0.0652 -0.0682
  811loPI    C312963   7.183   7.899   4.557  0.2707  0.1586  0.0424
  811loPI   PO412964   6.946   8.409   4.872  0.1872  0.0299 -0.2378
  811loPI   GL112965   6.836   8.534   5.365 -0.1620 -0.1079  0.1009
  811loPI   GL212966   6.620   8.783   5.226 -0.0793  0.0546  0.4269
  811loPI   C1A12967   6.822   8.571   5.781 -0.1317  0.3193  0.0167
  811loPI   C2A12968   6.518   8.667   6.236  0.0733 -0.1293  0.1154
  811loPI   C3A12969   6.273   8.881   6.517  0.0353  0.3482  0.1278
  811loPI   C4A12970   5.964   9.008   6.795 -0.0066  0.4054  0.3482
  811loPI   C5A12971   5.859   8.751   7.183 -0.1885 -0.1078  0.1895
  811loPI   C6A12972   5.852   8.451   7.557  0.1642  0.1109 -0.1509
  811loPI   C1B12973   6.440   8.896   5.650 -0.0748 -0.0430 -0.0935
  811loPI   C2B12974   6.100   8.898   5.877  0.1281 -0.2046  0.2470
  811loPI   C3B12975   5.904   9.229   6.036  0.2011  0.2500 -0.3099
  811loPI   C4B12976   5.835   9.363   6.470 -0.1757  0.0940  0.1105
  812loPI    C112977   2.982   9.748   4.660  0.0287 -0.0719  0.3908
  812loPI    C212978   2.932   9.352   4.687 -0.4245 -0.0122  0.5061
  812loPI    C312979   2.870   9.538   4.339  0.1492 -0.0828  0.3551
  812loPI   PO412980   2.891   9.862   4.995  0.0280 -0.6032  0.1735
  812loPI   GL112981   2.563   9.887   5.278 -0.1140 -0.0063  0.0355
  812loPI   GL212982   2.244  10.073   5.387 -0.1505 -0.2264  0.3033
  812loPI   C1A12983   2.711   9.761   5.727  0.3814  0.1838 -0.0614
  812loPI   C2A12984   2.802   9.821   6.148 -0.1102  0.2424  0.1330
  812loPI   C3A12985   2.713   9.744   6.533  0.0157 -0.1417 -0.3168
  812loPI   C4A12986   2.747   9.516   6.869 -0.2509 -0.1264  0.0394
  812loPI   C5A12987   2.813   9.449   7.317 -0.0085 -0.1394 -0.2705
  812loPI   C6A12988   3.111   9.300   7.522  0.0543  0.3810  0.1323
  812loPI   C1B12989   2.388  10.166   5.778  0.3544  0.1663  0.1821
  812loPI   C2B12990   2.371  10.144   6.176 -0.0177 -0.0377 -0.0557
  812loPI   C3B12991   2.233   9.959   6.503 -0.0932 -0.0276 -0.1548
  812loPI   C4B12992   2.220   9.778   6.855 -0.1442  0.0661 -0.0096
  813loPI    C112993   9.190  11.527   4.566 -0.2552 -0.0770  0.0041
  813loPI    C212994   8.915  11.671   4.315 -0.1163 -0.1052 -0.1663
  813loPI    C312995   9.137  11.356   4.209  0.1375  0.0565 -0.1242
  813loPI   PO412996   9.075  11.618   4.824  0.1644 -0.0522 -0.0903
  813loPI   GL112997   8.961  11.472   5.276 -0.2138  0.1771  0.1271
  813loPI   GL212998   8.620  11.260   5.434 -0.1761  0.0891  0.0396
  813loPI   C1A12999   9.040  11.521   5.739 -0.0995  0.0355 -0.0489
  813loPI   C2A13000   9.310  11.640   6.017  0.2102 -0.1397  0.1092
  813loPI   C3A13001   9.379  11.767   6.442 -0.0972  0.1553 -0.0550
  813loPI   C4A13002   9.221  11.662   6.806 -0.2448  0.1116 -0.0830
  813loPI   C5A13003   9.372  11.640   7.244  0.2512  0.0778 -0.1550
  813loPI   C6A13004   9.408  11.774   7.612 -0.2057  0.4099  0.0382
  813loPI   C1B13005   8.867  11.004   5.808 -0.1288 -0.1498  0.0410
  813loPI   C2B13006   8.905  10.775   6.188  0.0017 -0.1766 -0.3506
  813loPI   C3B13007   8.934  10.823   6.601  0.1962 -0.2124 -0.2713
  813loPI   C4B13008   8.631  10.807   6.885  0.0292  0.3709 -0.2497
  814loPI    C113009   5.992   5.195   4.652  0.0600 -0.0225  0.1580
  814loPI    C213010   6.331   5.353   4.510  0.0405  0.0523  0.1940
  814loPI    C313011   5.983   5.426   4.325  0.0299  0.0612  0.2174
  814loPI   PO413012   6.043   4.957   4.637 -0.1761 -0.0554  0.0462
  814loPI   GL113013   6.285   4.799   4.942  0.1873  0.1280 -0.0392
  814loPI   GL213014   6.466   4.635   4.974  0.0129  0.0799  0.3211
  814loPI   C1A13015   6.488   4.808   5.410  0.1026 -0.0401  0.0751
  814loPI   C2A13016   6.561   4.719   5.833  0.2257  0.0759  0.0046
  814loPI   C3A13017   6.557   4.773   6.251 -0.3574  0.0086 -0.1712
  814loPI   C4A13018   6.652   4.758   6.656  0.0016 -0.0555  0.0379
  814loPI   C5A13019   6.365   4.695   6.998 -0.3683 -0.1942 -0.0331
  814loPI   C6A13020   6.048   4.449   7.122 -0.0214  0.0483  0.1795
  814loPI   C1B13021   6.718   4.407   5.323  0.1314 -0.0791 -0.1539
  814loPI   C2B13022   6.918   4.310   5.712  0.2994  0.0405 -0.2680
  814loPI   C3B13023   6.731   4.348   6.141  0.0697  0.1629  0.2943
  814loPI   C4B13024   6.822   4.343   6.554 -0.0076  0.0986 -0.1087
  815loPI    C113025  11.686   8.314   4.456 -0.2963  0.0766  0.2994
  815loPI    C213026  11.528   7.959   4.361  0.0297 -0.0633  0.2670
  815loPI    C313027  11.551   8.248   4.085 -0.3465  0.0281  0.3262
  815loPI   PO413028  11.646   8.289   4.746 -0.0410 -0.1634 -0.2296
  815loPI   GL113029  11.698   8.332   5.181 -0.0793 -0.1734 -0.0450
  815loPI   GL213030  11.554   8.044   5.286 -0.2084 -0.0918  0.3455
  815loPI   C1A13031  11.945   8.255   5.565 -0.1223 -0.2435  0.1789
  815loPI   C2A13032  12.088   8.224   5.943  0.0960  0.0958  0.1371
  815loPI   C3A13033  12.121   8.207   6.437  0.0836  0.3434  0.1215
  815loPI   C4A13034  12.304   7.962   6.782  0.0206  0.0956 -0.0084
  815loPI   C5A13035  12.646   7.778   7.123  0.0722 -0.1983 -0.0194
  815loPI   C6A13036  12.926   7.438   7.080  0.3963 -0.1969  0.2365
  815loPI   C1B13037  11.775   7.811   5.627  0.1866  0.0211 -0.0007
  815loPI   C2B13038  11.803   7.568   5.946 -0.4428 -0.0905  0.0532
  815loPI   C3B13039  11.996   7.716   6.233 -0.0499  0.1807  0.1157
  815loPI   C4B13040  12.200   7.521   6.593  0.1235 -0.1568  0.0342
  816loPI    C113041  15.444   2.980   4.225 -0.0963  0.1822  0.2908
  816loPI    C213042  15.517   3.208   3.904 -0.2412  0.0155  0.1377
  816loPI    C313043  15.817   3.103   4.147 -0.1315  0.1463  0.0597
  816loPI   PO413044  15.210   3.089   4.346  0.0732  0.0747 -0.0557
  816loPI   GL113045  15.149   3.110   4.775 -0.0171 -0.3107 -0.0593
  816loPI   GL213046  15.085   2.828   4.917  0.3467  0.2037 -0.0668
  816loPI   C1A13047  15.409   2.971   5.217 -0.0546 -0.1839 -0.1532
  816loPI   C2A13048  15.417   2.913   5.599 -0.0284 -0.1398  0.2332
  816loPI   C3A13049  15.311   2.881   6.030 -0.1236  0.0008 -0.0365
  816loPI   C4A13050  15.017   2.972   6.385 -0.2500 -0.1490 -0.0129
  816loPI   C5A13051  14.977   2.877   6.793 -0.2295 -0.3347 -0.0283
  816loPI   C6A13052  14.967   2.429   7.012  0.2224 -0.0327  0.1957
  816loPI   C1B13053  15.266   2.493   5.306  0.3045 -0.1603 -0.2848
  816loPI   C2B13054  15.595   2.249   5.453 -0.3091 -0.0053 -0.2279
  816loPI   C3B13055  15.791   2.295   5.809  0.0770 -0.0483 -0.2202
  816loPI   C4B13056  15.622   2.461   6.147  0.1607 -0.0789 -0.0964
  817loPI    C113057  17.778  14.475   4.605  0.0456  0.0851  0.0491
  817loPI    C213058  18.154  14.364   4.682 -0.0443 -0.2485  0.0245
  817loPI    C313059  18.069  14.563   4.345  0.1441  0.0435  0.1448
  817loPI   PO413060  17.688  14.658   4.875  0.3775 -0.0670  0.1132
  817loPI   GL113061  17.580  14.692   5.272  0.3886  0.3771 -0.0870
  817loPI   GL213062  17.981  14.635   5.226  0.1590 -0.1402 -0.0546
  817loPI   C1A13063  17.574  14.836   5.670 -0.1320  0.2156  0.3437
  817loPI   C2A13064  17.897  14.659   6.082 -0.1673 -0.0461 -0.0806
  817loPI   C3A13065  18.110  14.710   6.531 -0.1211 -0.0907  0.0020
  817loPI   C4A13066  18.288  14.697   6.897 -0.0977  0.0861 -0.1258
  817loPI   C5A13067  18.704  14.479   7.141  0.1015 -0.1300 -0.1888
  817loPI   C6A13068  18.969  14.252   7.390  0.0572 -0.1379 -0.1079
  817loPI   C1B13069  18.076  14.532   5.622  0.1387  0.1049  0.0272
  817loPI   C2B13070  18.079  14.235   5.931 -0.1389  0.2065 -0.3200
  817loPI   C3B13071  17.989  14.253   6.389  0.2291  0.0695  0.0920
  817loPI   C4B13072  18.036  14.266   6.819 -0.2230  0.3561 -0.0630
  818loPI    C113073  17.504   2.085   4.381  0.0748  0.1255 -0.1526
  818loPI    C213074  17.113   2.013   4.337  0.0127  0.3033  0.0892
  818loPI    C313075  17.280   2.326   4.153  0.1343 -0.0199 -0.3680
  818loPI   PO413076  17.569   1.963   4.509 -0.0328  0.0473 -0.1668
  818loPI   GL113077  17.874   1.712   4.774 -0.0579  0.0688  0.1119
  818loPI   GL213078  17.605   1.742   4.997 -0.1556 -0.0014  0.2725
  818loPI   C1A13079  18.021   1.460   5.137  0.0398 -0.2638 -0.0297
  818loPI   C2A13080  18.015   1.206   5.588 -0.6749 -0.0858 -0.3562
  818loPI   C3A13081  17.863   0.824   5.800 -0.1924  0.4540  0.1022
  818loPI   C4A13082  17.822   0.669   6.200  0.1429  0.0056  0.1976
  818loPI   C5A13083  17.847   0.556   6.661 -0.0010 -0.1376  0.0639
  818loPI   C6A13084  17.929   0.721   7.024  0.0098 -0.1207  0.0549
  818loPI   C1B13085  17.546   1.324   5.237  0.0893  0.3581 -0.2141
  818loPI   C2B13086  17.461   1.152   5.645  0.0492 -0.3329 -0.1010
  818loPI   C3B13087  17.632   1.140   6.123  0.1926  0.2051 -0.1529
  818loPI   C4B13088  17.441   1.412   6.525  0.0909  0.2528  0.1540
  819loPI    C113089  19.585  18.482   4.234  0.3459 -0.1576  0.1699
  819loPI    C213090  19.838  18.671   3.989 -0.1394  0.0452 -0.1908
  819loPI    C313091  19.850  18.273   4.019  0.2819  0.0582 -0.1261
  819loPI   PO413092  19.695  18.656   4.477  0.0731  0.0157 -0.1316
  819loPI   GL113093  19.659  18.542   4.846  0.2633 -0.4395 -0.1219
  819loPI   GL213094  19.516  18.803   4.964  0.1129  0.0516  0.5177
  819loPI   C1A13095  19.396  18.377   5.328 -0.0806  0.0991 -0.1609
  819loPI   C2A13096  19.298  18.276   5.729  0.2764  0.0680 -0.4139
  819loPI   C3A13097  19.429  18.435   6.231 -0.0714 -0.0769  0.1466
  819loPI   C4A13098  19.422  18.640   6.576  0.0791 -0.3086  0.0931
  819loPI   C5A13099  19.435  18.888   6.880  0.1448 -0.0860  0.0533
  819loPI   C6A13100  19.074  19.105   7.111 -0.0650 -0.3721  0.0090
  819loPI   C1B13101  19.640  18.889   5.377  0.2334 -0.1142 -0.0666
  819loPI   C2B13102  19.557  18.685   5.823  0.0970 -0.1287  0.1837
  819loPI   C3B13103  19.784  18.786   6.242  0.0457 -0.4201 -0.0148
  819loPI   C4B13104  19.716  19.018   6.538  0.1046 -0.1218 -0.1320
  820loPI    C113105  18.487   5.936   4.205  0.5558  0.0015  0.2797
  820loPI    C213106  18.654   6.257   4.035  0.2320  0.0404  0.0257
  820loPI    C313107  18.749   5.890   3.907  0.0683  0.0656 -0.1722
  820loPI   PO413108  18.477   6.009   4.473  0.3336 -0.0680  0.0675
  820loPI   GL113109  18.288   5.847   4.889  0.1151  0.0447 -0.0904
  820loPI   GL213110  18.175   5.737   5.186  0.0680 -0.0905 -0.0383
  820loPI   C1A13111  18.444   6.110   5.319  0.2406 -0.1339  0.2482
  820loPI   C2A13112  18.660   6.404   5.628 -0.0365 -0.3053 -0.0031
  820loPI   C3A13113  18.765   6.445   6.050  0.0395  0.3811 -0.1123
  820loPI   C4A13114  18.990   6.433   6.412  0.0929 -0.1401  0.1410
  820loPI   C5A13115  18.951   6.257   6.818 -0.2828 -0.0137  0.2160
  820loPI   C6A13116  18.838   6.405   7.261 -0.3139 -0.2274  0.1554
  820loPI   C1B13117  18.144   5.643   5.594  0.1100  0.0758 -0.1288
  820loPI   C2B13118  18.135   5.568   6.077 -0.0326  0.2222 -0.0240
  820loPI   C3B13119  18.130   5.602   6.562 -0.1508  0.2064  0.0974
  820loPI   C4B13120  18.258   5.513   6.910 -0.3069 -0.3035 -0.0738
  821loPI    C113121  10.479   6.560   4.414  0.1899  0.0454 -0.0098
  821loPI    C213122  10.659   6.275   4.198  0.1922  0.1785 -0.1855
  821loPI    C313123  10.707   6.660   4.101  0.0516  0.2304 -0.0529
  821loPI   PO413124  10.570   6.531   4.732 -0.0692  0.2621  0.0902
  821loPI   GL113125  10.810   6.815   4.987 -0.2682 -0.2759  0.1079
  821loPI   GL213126  10.509   6.809   5.180 -0.3065  0.4499  0.0065
  821loPI   C1A13127  10.972   6.975   5.383  0.0330  0.0454 -0.1484
  821loPI   C2A13128  10.932   6.707   5.817 -0.2240  0.2887  0.1598
  821loPI   C3A13129  10.900   6.588   6.330 -0.0181 -0.2492  0.0350
  821loPI   C4A13130  10.578   6.539   6.548  0.1671 -0.0964  0.0805
  821loPI   C5A13131  10.677   6.338   6.943 -0.2398 -0.0403 -0.0657
  821loPI   C6A13132  10.686   5.965   7.250  0.1840 -0.0968 -0.3010
  821loPI   C1B13133  10.568   6.983   5.601 -0.1848 -0.1606  0.0498
  821loPI   C2B13134  10.440   7.301   5.979 -0.2732 -0.2435  0.1580
  821loPI   C3B13135  10.547   7.287   6.412 -0.1489 -0.1301 -0.0490
  821loPI   C4B13136  10.565   7.632   6.733 -0.1645 -0.2498 -0.1242
  822loPI    C113137   7.121   1.796   4.051  0.0260  0.0445  0.0662
  822loPI    C213138   7.262   2.070   3.795  0.0037  0.0068  0.0134
  822loPI    C313139   6.949   1.844   3.693 -0.0336  0.0226  0.0918
  822loPI   PO413140   7.001   1.890   4.400  0.0773 -0.1478 -0.0135
  822loPI   GL113141   6.832   1.897   4.855 -0.0085 -0.1373 -0.4751
  822loPI   GL213142   6.578   2.015   4.807  0.0611 -0.3598  0.0536
  822loPI   C1A13143   6.910   2.125   5.236  0.3654 -0.1716  0.0661
  822loPI   C2A13144   7.067   1.900   5.609  0.2602 -0.0754 -0.1411
  822loPI   C3A13145   7.159   1.952   5.985 -0.0160  0.1711 -0.1179
  822loPI   C4A13146   6.991   1.801   6.365  0.0666 -0.0057  0.0346
  822loPI   C5A13147   6.786   1.451   6.380 -0.1195 -0.0487 -0.0157
  822loPI   C6A13148   6.878   1.082   6.718  0.3479  0.1979  0.1445
  822loPI   C1B13149   6.134   2.060   5.076  0.2289 -0.0580  0.3104
  822loPI   C2B13150   5.963   2.273   5.400  0.1615  0.2437 -0.0468
  822loPI   C3B13151   6.039   2.230   5.838 -0.2757  0.3346  0.1339
  822loPI   C4B13152   5.962   2.087   6.224  0.2015  0.0318 -0.1104
  823loPI    C113153   7.873   6.376   4.747 -0.2368 -0.1382  0.1026
  823loPI    C213154   7.719   6.568   4.432  0.2230  0.2306  0.0929
  823loPI    C313155   7.857   6.195   4.390 -0.1948  0.0828 -0.0131
  823loPI   PO413156   7.973   6.518   4.856 -0.0106  0.0106  0.1740
  823loPI   GL113157   7.950   6.501   5.341 -0.0009  0.0056  0.0346
  823loPI   GL213158   8.045   6.240   5.270  0.0084 -0.3502 -0.4379
  823loPI   C1A13159   8.073   6.416   5.799  0.2746 -0.0410  0.2484
  823loPI   C2A13160   8.351   6.363   6.110 -0.3605  0.0927  0.1703
  823loPI   C3A13161   8.505   6.247   6.443 -0.0649  0.0598 -0.0298
  823loPI   C4A13162   8.464   6.001   6.835  0.2427 -0.0356  0.2025
  823loPI   C5A13163   8.814   6.047   7.207 -0.0281  0.0583 -0.0223
  823loPI   C6A13164   9.144   6.098   7.399  0.4577  0.2771  0.1609
  823loPI   C1B13165   8.106   5.965   5.569 -0.0600 -0.0428 -0.0722
  823loPI   C2B13166   8.026   5.899   6.013  0.0744 -0.1822 -0.3080
  823loPI   C3B13167   8.100   5.868   6.417 -0.1414 -0.0902  0.0907
  823loPI   C4B13168   7.893   6.013   6.833 -0.0454  0.1812 -0.0795
  824loPI    C113169  18.203  15.345   4.494  0.1693  0.1713 -0.0486
  824loPI    C213170  18.524  15.156   4.641  0.1804  0.0733 -0.1962
  824loPI    C313171  18.382  15.058   4.280  0.0195  0.1574 -0.1570
  824loPI   PO413172  18.039  15.408   4.720 -0.1306  0.0068  0.2476
  824loPI   GL113173  17.763  15.162   4.973 -0.1009 -0.0427  0.5058
  824loPI   GL213174  17.758  15.394   5.126 -0.0784  0.0724  0.3034
  824loPI   C1A13175  17.938  15.069   5.455  0.0618  0.3291 -0.2117
  824loPI   C2A13176  18.252  14.960   5.773 -0.0452 -0.2298  0.4006
  824loPI   C3A13177  18.211  15.031   6.156 -0.1913  0.3565 -0.1997
  824loPI   C4A13178  18.263  15.185   6.593 -0.3367 -0.1180  0.2655
  824loPI   C5A13179  18.138  15.143   7.030 -0.0207  0.1484 -0.1569
  824loPI   C6A13180  17.786  15.018   7.238  0.1644 -0.0739  0.0503
  824loPI   C1B13181  17.430  15.292   5.371 -0.1528  0.1197 -0.0783
  824loPI   C2B13182  17.191  15.319   5.720  0.1095 -0.0551 -0.2790
  824loPI   C3B13183  16.949  15.464   6.011  0.1862  0.1403  0.1830
  824loPI   C4B13184  16.909  15.566   6.455  0.1357  0.2488 -0.1422
  825loPI    C113185  12.514   7.192   4.501  0.0401 -0.0024  0.0532
  825loPI    C213186  12.522   6.873   4.260  0.1550  0.0593 -0.0256
  825loPI    C313187  12.581   7.239   4.110 -0.0368  0.1248  0.0547
  825loPI   PO413188  12.287   7.062   4.680 -0.1012 -0.1396  0.0806
  825loPI   GL113189  12.238   6.943   5.079  0.0371 -0.0904 -0.2382
  825loPI   GL213190  12.060   7.133   5.159 -0.1423  0.2085 -0.3096
  825loPI   C1A13191  12.265   6.786   5.487  0.1819  0.2014 -0.0477
  825loPI   C2A13192  12.374   6.720   5.932  0.2579  0.0772 -0.2097
  825loPI   C3A13193  12.480   6.535   6.229  0.3456  0.2281 -0.0123
  825loPI   C4A13194  12.510   6.173   6.611  0.1724  0.0250 -0.0491
  825loPI   C5A13195  12.284   5.884   6.809 -0.0878  0.3124  0.1361
  825loPI   C6A13196  11.895   5.651   6.669  0.2001 -0.0101  0.1106
  825loPI   C1B13197  11.917   7.053   5.699  0.1796  0.2898 -0.0158
  825loPI   C2B13198  11.826   6.987   6.063 -0.1387 -0.0394 -0.5096
  825loPI   C3B13199  11.900   6.894   6.487  0.1975 -0.0040  0.1680
  825loPI   C4B13200  12.081   7.091   6.938  0.1256  0.1954  0.1706
  826loPI    C113201  14.567   9.968   4.288 -0.1295 -0.2604 -0.2326
  826loPI    C213202  14.548  10.255   4.011 -0.2675 -0.0520 -0.0107
  826loPI    C313203  14.226  10.031   4.089 -0.2748 -0.0081  0.0871
  826loPI   PO413204  14.673  10.027   4.499  0.2946 -0.2809 -0.0482
  826loPI   GL113205  14.578   9.941   4.880 -0.0658  0.2978 -0.1470
  826loPI   GL213206  14.400  10.181   4.926 -0.3855 -0.0807 -0.1489
  826loPI   C1A13207  14.759   9.751   5.197  0.2328 -0.0153 -0.0966
  826loPI   C2A13208  15.004   9.716   5.619 -0.1352  0.2142  0.1660
  826loPI   C3A13209  14.820   9.666   6.035  0.0694 -0.0522  0.0895
  826loPI   C4A13210  14.636   9.792   6.397 -0.2105 -0.2401  0.1256
  826loPI   C5A13211  14.607  10.164   6.642  0.2210  0.1912 -0.0637
  826loPI   C6A13212  14.345  10.436   6.835 -0.0144  0.1080 -0.2290
  826loPI   C1B13213  14.446  10.404   5.312 -0.3726 -0.0118  0.1613
  826loPI   C2B13214  14.776  10.210   5.457  0.0066 -0.0040  0.0585
  826loPI   C3B13215  15.062  10.329   5.898 -0.1538 -0.1914 -0.0397
  826loPI   C4B13216  15.445  10.519   6.128  0.1510  0.0322 -0.0759
  827loPI    C113217  14.024  13.611   4.710 -0.0265 -0.0119  0.0579
  827loPI    C213218  14.105  13.372   4.399 -0.1800 -0.1320  0.1086
  827loPI    C313219  13.765  13.581   4.407  0.0547  0.2674 -0.0421
  827loPI   PO413220  13.998  13.570   4.891 -0.3180 -0.1410 -0.0973
  827loPI   GL113221  14.118  13.439   5.232 -0.0388 -0.0523 -0.1115
  827loPI   GL213222  14.106  13.726   5.392 -0.0727  0.2242 -0.4406
  827loPI   C1A13223  14.335  13.326   5.657  0.0108  0.0075  0.2247
  827loPI   C2A13224  14.597  13.288   6.069  0.0945 -0.2145  0.1387
  827loPI   C3A13225  14.687  13.472   6.453 -0.0130 -0.0532  0.0461
  827loPI   C4A13226  14.725  13.398   6.912 -0.0066  0.0568  0.3361
  827loPI   C5A13227  14.919  13.067   7.155  0.2987  0.0160  0.1687
  827loPI   C6A13228  14.832  12.651   7.403  0.0301 -0.1848 -0.1503
  827loPI   C1B13229  14.111  13.732   5.838 -0.1456  0.0589  0.3074
  827loPI   C2B13230  14.399  13.806   6.201 -0.4063 -0.0286  0.2483
  827loPI   C3B13231  14.520  13.919   6.649  0.4301  0.0649  0.0191
  827loPI   C4B13232  14.469  13.789   7.085  0.1573  0.0984 -0.2668
  828loPI    C113233  12.501  17.724   4.192 -0.1963 -0.1569 -0.1001
  828loPI    C213234  12.442  17.551   3.837 -0.0778 -0.0130 -0.1912
  828loPI    C313235  12.698  17.856   3.870 -0.0889 -0.0251  0.0182
  828loPI   PO413236  12.403  17.436   4.317 -0.1739 -0.2835  0.3283
  828loPI   GL113237  12.268  17.404   4.716 -0.0661  0.0421  0.0002
  828loPI   GL213238  12.321  17.021   4.676  0.4093 -0.0070  0.1500
  828loPI   C1A13239  12.084  17.478   5.164 -0.0155 -0.2107 -0.0128
  828loPI   C2A13240  11.827  17.368   5.439  0.0280  0.2866  0.2058
  828loPI   C3A13241  11.830  17.382   5.943  0.1023  0.1133  0.1529
  828loPI   C4A13242  12.132  17.408   6.295  0.1809  0.3681  0.0432
  828loPI   C5A13243  12.119  17.669   6.614  0.1522  0.0478 -0.3172
  828loPI   C6A13244  11.921  17.900   6.969 -0.1941 -0.1092 -0.1708
  828loPI   C1B13245  12.286  17.050   5.107 -0.0006  0.0374  0.3939
  828loPI   C2B13246  12.420  17.169   5.514 -0.1124 -0.3442  0.0657
  828loPI   C3B13247  12.433  17.466   5.878  0.4550 -0.2621  0.2653
  828loPI   C4B13248  12.196  17.867   6.040  0.0518 -0.1364  0.0801
  829loPI    C113249   7.050  11.086   4.496 -0.1814 -0.1301 -0.0228
  829loPI    C213250   7.067  10.914   4.135 -0.0859 -0.0442 -0.0596
  829loPI    C313251   7.216  11.282   4.189 -0.0048 -0.0982  0.0915
  829loPI   PO413252   7.106  10.984   4.692  0.1444  0.0380  0.2457
  829loPI   GL113253   7.164  10.839   5.103  0.0422  0.1835  0.0976
  829loPI   GL213254   7.390  10.627   5.227 -0.0981 -0.1803  0.1215
  829loPI   C1A13255   7.224  10.920   5.510  0.0221 -0.2712 -0.2246
  829loPI   C2A13256   7.506  11.066   5.936  0.2703 -0.1412 -0.0428
  829loPI   C3A13257   7.505  11.401   6.199 -0.1004  0.0325  0.0089
  829loPI   C4A13258   7.381  11.375   6.596  0.0340  0.2527 -0.0204
  829loPI   C5A13259   7.485  11.555   7.004  0.0057  0.0376  0.0533
  829loPI   C6A13260   7.578  11.563   7.379  0.2134  0.3041  0.1738
  829loPI   C1B13261   7.485  10.518   5.556  0.1807 -0.2029 -0.2123
  829loPI   C2B13262   7.479  10.545   5.979  0.2853  0.2394  0.0657
  829loPI   C3B13263   7.381  10.413   6.353 -0.0905 -0.1954 -0.1657
  829loPI   C4B13264   7.302  10.327   6.782 -0.0950 -0.1545  0.0429
  830loPI    C113265   0.737   8.411   4.892 -0.2770 -0.0337  0.0403
  830loPI    C213266   0.650   8.734   5.111  0.0419  0.0795  0.0051
  830loPI    C313267   0.583   8.736   4.717  0.0842  0.1196 -0.0020
  830loPI   PO413268   0.695   8.254   5.194  0.1307 -0.2784 -0.2432
  830loPI   GL113269   0.892   8.428   5.580 -0.1042 -0.3814 -0.0413
  830loPI   GL213270   1.136   8.646   5.693 -0.0030 -0.0333  0.0987
  830loPI   C1A13271   0.688   8.090   5.893  0.4079 -0.0112 -0.0801
  830loPI   C2A13272   0.371   8.001   6.218 -0.2979  0.2626 -0.1682
  830loPI   C3A13273   0.145   7.868   6.549  0.1557 -0.2167 -0.2735
  830loPI   C4A13274   0.169   7.737   7.031  0.2220  0.1941 -0.0884
  830loPI   C5A13275   0.473   7.473   7.252  0.0360  0.3546 -0.2517
  830loPI   C6A13276   0.629   7.076   7.219  0.0590  0.4413  0.1274
  830loPI   C1B13277   0.991   8.464   6.128  0.0943 -0.0855  0.0787
  830loPI   C2B13278   0.830   8.109   6.435  0.1933  0.1986  0.0088
  830loPI   C3B13279   1.075   8.223   6.856 -0.0673  0.2393  0.1469
  830loPI   C4B13280   1.489   8.118   6.970  0.1140  0.0107  0.2571
  831loPI    C113281  11.494   3.417   4.048  0.0958  0.2812 -0.0538
  831loPI    C213282  11.269   3.139   3.868 -0.0063  0.2677  0.0927
  831loPI    C313283  11.610   3.034   4.050  0.0876  0.2786 -0.0747
  831loPI   PO413284  11.326   3.583   4.105  0.1480  0.3132  0.0175
  831loPI   GL113285  11.468   3.737   4.559  0.1049  0.2544  0.3122
  831loPI   GL213286  11.654   3.593   4.571  0.0480  0.2432  0.3003
  831loPI   C1A13287  11.552   3.825   5.021 -0.0205  0.1312 -0.0818
  831loPI   C2A13288  11.363   3.675   5.232  0.0036 -0.2307  0.1677
  831loPI   C3A13289  11.110   3.302   5.432 -0.2389  0.1569 -0.1035
  831loPI   C4A13290  10.623   3.236   5.461 -0.1187 -0.2690 -0.1325
  831loPI   C5A13291  10.272   3.180   5.136  0.1846 -0.0035  0.2534
  831loPI   C6A13292   9.916   3.142   5.305 -0.2111 -0.2125 -0.2760
  831loPI   C1B13293  11.733   3.383   4.864  0.0017 -0.0601  0.0924
  831loPI   C2B13294  11.647   3.280   5.331  0.0655  0.5784  0.1223
  831loPI   C3B13295  11.751   2.967   5.558  0.0636 -0.2354 -0.0676
  831loPI   C4B13296  11.698   2.511   5.770 -0.2653 -0.2856  0.2516
  832loPI    C113297   1.804   1.712   4.111 -0.0315  0.0981 -0.0230
  832loPI    C213298   1.758   1.888   3.755 -0.1337 -0.0592 -0.0887
  832loPI    C313299   1.829   1.495   3.776 -0.0752 -0.0413  0.0631
  832loPI   PO413300   1.962   1.867   4.283  0.0783 -0.3725 -0.3697
  832loPI   GL113301   1.883   1.984   4.750 -0.0406 -0.1142  0.1612
  832loPI   GL213302   1.592   2.174   4.917  0.1189  0.2487  0.0965
  832loPI   C1A13303   1.935   1.601   5.105 -0.0464 -0.1216  0.0694
  832loPI   C2A13304   2.132   1.691   5.496 -0.0942  0.2554  0.0840
  832loPI   C3A13305   2.201   1.663   5.916  0.1583  0.2465  0.0947
  832loPI   C4A13306   2.246   1.471   6.303  0.0356 -0.0245  0.2282
  832loPI   C5A13307   2.006   1.518   6.684 -0.2202  0.3329 -0.0284
  832loPI   C6A13308   1.932   1.296   7.084  0.0725  0.0512 -0.2131
  832loPI   C1B13309   1.741   2.101   5.393  0.1412  0.1586  0.1955
  832loPI   C2B13310   1.902   2.359   5.681 -0.0922  0.0440  0.0230
  832loPI   C3B13311   2.182   2.230   6.014 -0.3197  0.0692  0.1611
  832loPI   C4B13312   2.007   1.943   6.262  0.0231  0.0681  0.3373
  833loPI    C113313  14.530   3.760   3.957 -0.2038 -0.0656  0.3878
  833loPI    C213314  14.141   3.842   3.915 -0.1882 -0.0174  0.3341
  833loPI    C313315  14.261   3.465   3.971 -0.1931 -0.1246 -0.3028
  833loPI   PO413316  14.657   3.853   4.183 -0.0067  0.0542  0.1225
  833loPI   GL113317  14.755   3.837   4.694  0.1162  0.4953  0.1658
  833loPI   GL213318  15.009   3.833   4.885 -0.2154 -0.3075  0.0556
  833loPI   C1A13319  14.610   4.051   5.123 -0.1869  0.0684 -0.2572
  833loPI   C2A13320  14.648   3.779   5.457 -0.3468 -0.2435 -0.0101
  833loPI   C3A13321  14.657   3.386   5.611  0.0145 -0.1188 -0.0111
  833loPI   C4A13322  14.562   3.004   5.731  0.1278  0.0133  0.2076
  833loPI   C5A13323  14.284   2.807   6.088 -0.0853 -0.0982  0.2140
  833loPI   C6A13324  13.955   2.893   6.428 -0.0483  0.1955 -0.2079
  833loPI   C1B13325  14.864   3.474   5.136 -0.3392  0.0699 -0.2503
  833loPI   C2B13326  14.911   3.101   5.314  0.0281 -0.2395 -0.0642
  833loPI   C3B13327  14.972   2.710   5.588 -0.2953 -0.1587  0.2665
  833loPI   C4B13328  14.799   2.667   6.043  0.1627 -0.3172 -0.1750
  834loPI    C113329   3.895  18.557   4.386 -0.0928  0.3643 -0.1918
  834loPI    C213330   4.249  18.613   4.209 -0.0021  0.0164 -0.1265
  834loPI    C313331   3.927  18.812   4.080  0.1519  0.0961 -0.3945
  834loPI   PO413332   3.895  18.699   4.548 -0.0033  0.2877 -0.1605
  834loPI   GL113333   3.806  19.029   4.719  0.0022  0.0292  0.0925
  834loPI   GL213334   3.909  19.372   4.658  0.0541  0.1629  0.4552
  834loPI   C1A13335   3.541  18.959   5.157 -0.1002  0.1771 -0.2188
  834loPI   C2A13336   3.582  18.997   5.535 -0.0415 -0.3265  0.0717
  834loPI   C3A13337   3.619  18.958   5.996 -0.2886  0.0086  0.1075
  834loPI   C4A13338   3.852  18.708   6.281  0.0402  0.1936 -0.0271
  834loPI   C5A13339   3.835  18.395   6.651 -0.1170 -0.0296 -0.4030
  834loPI   C6A13340   3.704  17.991   6.741 -0.1441  0.2420 -0.0570
  834loPI   C1B13341   3.596  19.535   5.057 -0.0459 -0.0101 -0.0114
  834loPI   C2B13342   3.700  19.485   5.452 -0.1356 -0.4099 -0.2200
  834loPI   C3B13343   3.950  19.269   5.796  0.1862  0.1590 -0.0055
  834loPI   C4B13344   3.985  19.356   6.281  0.2226  0.0581  0.1919
  835loPI    C113345  15.228   6.710   4.333 -0.0990 -0.0812  0.0352
  835loPI    C213346  15.603   6.618   4.228 -0.0837  0.1205 -0.0912
  835loPI    C313347  15.377   6.843   3.987 -0.3175 -0.0738 -0.0574
  835loPI   PO413348  15.148   6.530   4.503 -0.0838  0.1857  0.2081
  835loPI   GL113349  15.035   6.619   4.895 -0.2655 -0.1939 -0.1498
  835loPI   GL213350  15.255   6.453   5.064  0.0355  0.1714  0.1561
  835loPI   C1A13351  14.747   6.284   5.005 -0.3079 -0.0574 -0.4217
  835loPI   C2A13352  14.601   6.184   5.473 -0.1326  0.1290  0.0660
  835loPI   C3A13353  14.454   6.341   5.923 -0.0267  0.0368 -0.1954
  835loPI   C4A13354  14.209   6.378   6.329 -0.0179 -0.2705  0.1858
  835loPI   C5A13355  14.113   6.284   6.715 -0.4483  0.0022  0.2951
  835loPI   C6A13356  13.915   6.366   7.095 -0.0154  0.1969  0.0004
  835loPI   C1B13357  14.860   6.611   5.405  0.0789  0.4742  0.4922
  835loPI   C2B13358  14.945   6.593   5.880 -0.0898 -0.0286  0.0201
  835loPI   C3B13359  15.162   6.500   6.312  0.0427  0.1774 -0.0306
  835loPI   C4B13360  15.341   6.518   6.629 -0.0645  0.0373  0.0429
  836loPI    C113361   1.479   7.073   4.690  0.2969  0.0926  0.1194
  836loPI    C213362   1.468   6.707   4.529 -0.3510  0.0197  0.2987
  836loPI    C313363   1.615   7.013   4.319 -0.2418 -0.2547 -0.0347
  836loPI   PO413364   1.652   7.139   5.013  0.1909 -0.2957  0.2901
  836loPI   GL113365   1.764   7.161   5.433  0.2817 -0.1374 -0.1023
  836loPI   GL213366   1.642   7.317   5.786  0.2235  0.2045  0.0736
  836loPI   C1A13367   1.965   6.932   5.771 -0.0650 -0.2684  0.1571
  836loPI   C2A13368   2.281   7.057   6.042 -0.1363  0.0057  0.0540
  836loPI   C3A13369   2.337   6.969   6.478  0.0443  0.0097  0.0956
  836loPI   C4A13370   2.019   7.067   6.904 -0.0679  0.2100 -0.0526
  836loPI   C5A13371   1.776   7.118   7.256 -0.1623  0.2006 -0.3272
  836loPI   C6A13372   1.691   6.916   7.739  0.2630 -0.0004 -0.0602
  836loPI   C1B13373   1.646   7.074   6.176  0.2599  0.0635  0.0529
  836loPI   C2B13374   1.882   6.771   6.347 -0.5008  0.0641 -0.0466
  836loPI   C3B13375   1.995   6.533   6.733  0.0860  0.1418  0.0183
  836loPI   C4B13376   2.092   6.335   7.138 -0.1204 -0.0537  0.1720
  837loPI    C113377  13.370   2.418   4.265 -0.1541 -0.2740 -0.0131
  837loPI    C213378  13.210   2.331   3.908 -0.3766 -0.1854  0.0631
  837loPI    C313379  13.201   2.061   4.203 -0.1361 -0.2821 -0.0154
  837loPI   PO413380  13.228   2.656   4.339  0.1687  0.2137 -0.0630
  837loPI   GL113381  13.156   2.819   4.692 -0.0513 -0.0505 -0.1647
  837loPI   GL213382  12.841   2.591   4.750 -0.0077 -0.1542  0.2303
  837loPI   C1A13383  13.005   2.870   5.167 -0.1746  0.2994 -0.0763
  837loPI   C2A13384  12.862   3.066   5.642 -0.2082  0.0479  0.3684
  837loPI   C3A13385  12.612   2.881   5.992 -0.1584  0.0323 -0.0317
  837loPI   C4A13386  12.352   2.753   6.335 -0.0206  0.1735 -0.3474
  837loPI   C5A13387  12.097   2.905   6.583 -0.1031  0.3274  0.0776
  837loPI   C6A13388  11.728   3.217   6.590 -0.1417 -0.1098  0.5694
  837loPI   C1B13389  13.018   2.399   5.138 -0.0797  0.0768 -0.2563
  837loPI   C2B13390  12.924   2.454   5.574  0.2693  0.1415 -0.2661
  837loPI   C3B13391  12.743   2.386   5.940 -0.1010 -0.0576 -0.0538
  837loPI   C4B13392  12.600   2.318   6.374  0.0287 -0.0524 -0.0207
  838loPI    C113393  17.038  11.212   4.244  0.0394 -0.2755  0.2363
  838loPI    C213394  16.844  11.301   3.905 -0.1482  0.0000  0.4116
  838loPI    C313395  17.083  10.980   3.921 -0.0433  0.0518 -0.0155
  838loPI   PO413396  16.898  11.253   4.426 -0.2287  0.2244 -0.1518
  838loPI   GL113397  16.731  11.430   4.756 -0.2612 -0.1554 -0.1018
  838loPI   GL213398  16.977  11.259   4.925  0.0198 -0.2020  0.0279
  838loPI   C1A13399  16.482  11.188   5.059  0.0409 -0.0767 -0.2340
  838loPI   C2A13400  16.460  11.231   5.473  0.1189  0.0050 -0.2704
  838loPI   C3A13401  16.578  11.337   5.856  0.0664 -0.2402  0.0380
  838loPI   C4A13402  16.562  11.393   6.308 -0.1262  0.2068  0.0313
  838loPI   C5A13403  16.306  11.493   6.650  0.0111 -0.0767 -0.0758
  838loPI   C6A13404  16.018  11.573   6.859  0.1052 -0.0350 -0.3742
  838loPI   C1B13405  16.815  10.856   5.208 -0.0735  0.2836 -0.1793
  838loPI   C2B13406  16.789  10.836   5.775 -0.0302 -0.1279  0.0330
  838loPI   C3B13407  16.705  10.938   6.242  0.0402  0.5110 -0.0853
  838loPI   C4B13408  16.751  10.939   6.612 -0.2308 -0.0919  0.2338
  839loPI    C113409  19.276   0.696   3.697 -0.0692 -0.1277  0.1763
  839loPI    C213410  19.128   1.040   3.838 -0.2996 -0.0622 -0.2110
  839loPI    C313411  19.344   1.038   3.501  0.2217 -0.2192  0.1122
  839loPI   PO413412  19.267   0.526   4.068 -0.1369 -0.0264  0.2127
  839loPI   GL113413  19.299   0.624   4.500 -0.1247  0.0439  0.1398
  839loPI   GL213414  19.596   0.608   4.548 -0.1461  0.0596 -0.0598
  839loPI   C1A13415  19.268   0.406   4.865 -0.2431 -0.0554  0.3374
  839loPI   C2A13416  19.368   0.542   5.349  0.0597 -0.0258  0.0660
  839loPI   C3A13417  19.423   0.690   5.747 -0.1365 -0.1601  0.0371
  839loPI   C4A13418  19.302   0.769   6.243  0.1297 -0.0029 -0.3790
  839loPI   C5A13419  19.146   1.040   6.526 -0.0429  0.0341 -0.0721
  839loPI   C6A13420  19.141   1.174   6.923 -0.2568 -0.2165  0.2424
  839loPI   C1B13421  19.596   0.790   4.887  0.0037  0.1800 -0.3174
  839loPI   C2B13422  19.757   0.838   5.197  0.0228 -0.1431  0.0846
  839loPI   C3B13423  19.798   0.970   5.581  0.1274  0.0853  0.1474
  839loPI   C4B13424  19.940   1.001   5.940 -0.0453  0.1607  0.2298
  840loPI    C113425  11.647  10.686   4.865  0.2882  0.1880  0.0371
  840loPI    C213426  11.867  10.432   4.648 -0.2999 -0.3698  0.0658
  840loPI    C313427  11.699  10.750   4.473 -0.0115 -0.3007 -0.0914
  840loPI   PO413428  11.755  10.629   5.172 -0.2686  0.3259 -0.3490
  840loPI   GL113429  11.600  10.293   5.528  0.0813 -0.2761 -0.1317
  840loPI   GL213430  11.290  10.453   5.696  0.2200  0.0708  0.0307
  840loPI   C1A13431  11.943   9.976   5.727 -0.0345  0.4907 -0.2478
  840loPI   C2A13432  12.031   9.531   5.934 -0.3832  0.1905  0.0737
  840loPI   C3A13433  11.955   9.178   6.256  0.2267 -0.0143  0.0786
  840loPI   C4A13434  12.208   9.051   6.612  0.2235 -0.0879  0.1910
  840loPI   C5A13435  12.505   8.850   6.919 -0.3858  0.0021  0.0999
  840loPI   C6A13436  12.941   8.581   6.969 -0.0260  0.1575  0.0912
  840loPI   C1B13437  11.417  10.192   5.959  0.2345 -0.0713  0.0202
  840loPI   C2B13438  11.689   9.885   6.173  0.0451 -0.0696  0.3550
  840loPI   C3B13439  11.961   9.825   6.425  0.3998 -0.2548 -0.1413
  840loPI   C4B13440  12.303   9.644   6.732 -0.0324 -0.0906 -0.1637
  841loPI    C113441   3.715   5.429   4.930 -0.0362 -0.0325  0.0710
  841loPI    C213442   3.524   5.083   4.868  0.1376 -0.1253  0.0486
  841loPI    C313443   3.727   5.256   4.569 -0.2829  0.2057 -0.0553
  841loPI   PO413444   3.857   5.471   5.116  0.3680 -0.2327 -0.1940
  841loPI   GL113445   4.229   5.433   5.253 -0.1568  0.3462  0.2935
  841loPI   GL213446   4.149   5.716   5.469  0.1085  0.0527  0.0651
  841loPI   C1A13447   3.999   5.160   5.592  0.0619  0.4467  0.0699
  841loPI   C2A13448   4.002   4.949   6.063  0.0803  0.2518 -0.2889
  841loPI   C3A13449   3.918   5.038   6.487 -0.0030  0.1543  0.0509
  841loPI   C4A13450   3.990   5.004   6.921  0.0494 -0.1049 -0.0240
  841loPI   C5A13451   4.007   5.318   7.279  0.0442 -0.3749  0.1428
  841loPI   C6A13452   4.183   5.634   7.685  0.1653 -0.1497 -0.3031
  841loPI   C1B13453   3.896   5.606   5.789 -0.0474  0.1875 -0.3455
  841loPI   C2B13454   3.740   5.539   6.281 -0.0230  0.6242  0.4348
  841loPI   C3B13455   3.824   5.465   6.780 -0.2516 -0.0293  0.1020
  841loPI   C4B13456   4.301   5.345   6.857  0.1552  0.1801  0.1746
  842loPI    C113457   3.086  16.930   4.208  0.2646  0.2408 -0.0991
  842loPI    C213458   3.227  17.263   4.379 -0.0409  0.1855  0.2759
  842loPI    C313459   2.899  17.279   4.150 -0.0185  0.1528  0.2415
  842loPI   PO413460   3.083  16.726   4.392  0.1599 -0.1533 -0.1686
  842loPI   GL113461   3.125  16.695   4.817 -0.1776 -0.2226  0.1700
  842loPI   GL213462   3.154  16.446   5.065 -0.3583  0.2345  0.2769
  842loPI   C1A13463   3.552  16.622   4.925  0.1557  0.1218  0.4281
  842loPI   C2A13464   3.651  16.760   5.386  0.0056  0.0157 -0.0723
  842loPI   C3A13465   3.778  16.602   5.822  0.0386 -0.3156 -0.2017
  842loPI   C4A13466   3.851  16.291   6.129  0.0276  0.0061  0.4858
  842loPI   C5A13467   3.784  16.476   6.523  0.4410 -0.0110 -0.3688
  842loPI   C6A13468   3.644  16.713   6.896  0.1563 -0.1190 -0.0782
  842loPI   C1B13469   3.218  16.314   5.455  0.3804 -0.1434  0.0228
  842loPI   C2B13470   3.386  16.213   5.879 -0.2420 -0.2722  0.4230
  842loPI   C3B13471   3.366  16.456   6.209 -0.1860 -0.0480  0.4391
  842loPI   C4B13472   3.293  16.441   6.663 -0.0250  0.2494 -0.1965
  843loPI    C113473  16.779   2.293   4.640 -0.2246  0.1481 -0.0507
  843loPI    C213474  16.608   2.134   4.316  0.1003  0.0741 -0.1889
  843loPI    C313475  16.791   2.489   4.292  0.1019  0.0809 -0.0804
  843loPI   PO413476  16.757   2.090   4.799 -0.1118  0.0583  0.1179
  843loPI   GL113477  16.888   2.012   5.169  0.1055 -0.1825 -0.3103
  843loPI   GL213478  17.194   2.023   5.291 -0.0996 -0.0550 -0.0015
  843loPI   C1A13479  16.650   2.210   5.550  0.1107  0.1729  0.0632
  843loPI   C2A13480  16.680   2.377   6.005 -0.0001 -0.0296 -0.1249
  843loPI   C3A13481  16.505   2.473   6.388  0.0413  0.0992  0.2469
  843loPI   C4A13482  16.366   2.423   6.801  0.0221 -0.1127  0.1483
  843loPI   C5A13483  16.037   2.324   7.022 -0.0580 -0.3182 -0.1291
  843loPI   C6A13484  15.612   2.272   6.849 -0.0515 -0.0423 -0.4086
  843loPI   C1B13485  17.495   2.044   5.617  0.1786  0.0599 -0.1263
  843loPI   C2B13486  17.678   2.116   6.038 -0.0887  0.0300  0.1793
  843loPI   C3B13487  17.462   1.958   6.411 -0.2470  0.0744 -0.1007
  843loPI   C4B13488  17.253   1.757   6.824  0.1303 -0.0920  0.2520
  844loPI    C113489  10.092   1.649   4.022  0.1958  0.0363 -0.0359
  844loPI    C213490   9.724   1.557   3.896  0.1719  0.0377  0.0324
  844loPI    C313491  10.034   1.532   3.644  0.0549  0.5250 -0.1737
  844loPI   PO413492  10.115   1.611   4.295 -0.1078  0.2140  0.3622
  844loPI   GL113493  10.209   1.494   4.661  0.1085 -0.0084  0.2767
  844loPI   GL213494   9.930   1.336   4.811  0.0959 -0.3062 -0.2547
  844loPI   C1A13495  10.272   1.365   5.092  0.0339 -0.1090 -0.1814
  844loPI   C2A13496  10.369   1.329   5.527  0.0642 -0.1984  0.0858
  844loPI   C3A13497  10.580   1.136   5.879 -0.1703  0.3157  0.1744
  844loPI   C4A13498  10.691   1.214   6.366  0.0465  0.4965 -0.1337
  844loPI   C5A13499  10.981   1.547   6.517 -0.2919  0.2016 -0.3935
  844loPI   C6A13500  11.360   1.669   6.764 -0.1797 -0.3359  0.1059
  844loPI   C1B13501   9.782   1.244   5.247 -0.1669  0.0230 -0.2770
  844loPI   C2B13502   9.704   1.282   5.702  0.1356 -0.1981 -0.0794
  844loPI   C3B13503   9.875   1.245   6.055 -0.3215  0.0843  0.1683
  844loPI   C4B13504   9.947   1.407   6.474  0.0138  0.1100 -0.0201
  845loPI    C113505  13.014  10.353   4.771 -0.0652 -0.1784 -0.0801
  845loPI    C213506  13.299  10.165   4.563  0.0835  0.0648 -0.1005
  845loPI    C313507  12.913  10.083   4.494  0.1420 -0.1265 -0.2080
  845loPI   PO413508  13.228  10.384   4.993  0.2136 -0.0489  0.0331
  845loPI   GL113509  13.150  10.497   5.347 -0.1724 -0.0766 -0.0899
  845loPI   GL213510  12.856  10.691   5.485  0.3423 -0.0568 -0.0020
  845loPI   C1A13511  13.068  10.296   5.720 -0.0233  0.0862 -0.0588
  845loPI   C2A13512  12.995   9.997   6.013  0.1639 -0.1005 -0.1813
  845loPI   C3A13513  12.734   9.826   6.348 -0.2112  0.1217 -0.0796
  845loPI   C4A13514  12.745   9.878   6.807 -0.1817  0.1435  0.0847
  845loPI   C5A13515  12.472   9.792   7.196 -0.0588 -0.2310 -0.1489
  845loPI   C6A13516  11.956   9.649   7.446  0.0036 -0.1425  0.0513
  845loPI   C1B13517  13.001  10.903   5.848 -0.1471  0.2851 -0.2212
  845loPI   C2B13518  13.014  11.419   6.016  0.0200  0.0766 -0.1968
  845loPI   C3B13519  13.356  11.716   6.012  0.2792 -0.0153  0.1867
  845loPI   C4B13520  13.814  11.474   5.994  0.1496 -0.0962  0.1118
  846loPI    C113521   0.947  13.615   4.684  0.3232  0.3764 -0.1957
  846loPI    C213522   0.701  13.834   4.457  0.0893  0.1462 -0.1691
  846loPI    C313523   0.765  13.449   4.369  0.0555  0.0744  0.1105
  846loPI   PO413524   0.853  13.641   4.892 -0.2935  0.1339  0.2745
  846loPI   GL113525   0.956  13.665   5.337  0.0691  0.1529 -0.0706
  846loPI   GL213526   0.770  13.852   5.443 -0.1308  0.2158 -0.1050
  846loPI   C1A13527   1.244  13.640   5.790  0.2552  0.0046 -0.3560
  846loPI   C2A13528   1.290  13.759   6.176 -0.0427  0.1971 -0.1954
  846loPI   C3A13529   1.446  13.862   6.531 -0.1432  0.1228 -0.0529
  846loPI   C4A13530   1.570  13.834   7.031  0.1847 -0.1371  0.2698
  846loPI   C5A13531   1.902  14.070   7.246 -0.2513  0.0937 -0.4146
  846loPI   C6A13532   2.270  14.314   7.256  0.1433  0.1327 -0.2590
  846loPI   C1B13533   0.747  13.912   5.862 -0.1160 -0.0008  0.0196
  846loPI   C2B13534   0.833  13.927   6.331 -0.0459 -0.1528 -0.1128
  846loPI   C3B13535   0.758  14.156   6.593  0.0714  0.1901 -0.1854
  846loPI   C4B13536   0.571  14.196   6.985 -0.2881  0.4487 -0.4845
  847loPI    C113537  12.245   1.153   4.025  0.2506 -0.0741  0.2095
  847loPI    C213538  12.584   1.337   3.917  0.0772  0.0830 -0.0815
  847loPI    C313539  12.238   1.538   3.915 -0.0662 -0.1594 -0.0891
  847loPI   PO413540  12.270   1.042   4.277  0.0100  0.2171  0.2674
  847loPI   GL113541  12.158   1.092   4.669 -0.0690 -0.0719  0.1871
  847loPI   GL213542  12.442   1.140   4.900  0.0832 -0.3641  0.1921
  847loPI   C1A13543  12.248   0.657   4.815 -0.2696  0.2401 -0.2790
  847loPI   C2A13544  12.245   0.553   5.305 -0.0712 -0.0454 -0.0324
  847loPI   C3A13545  12.134   0.713   5.672 -0.3040 -0.0782 -0.1127
  847loPI   C4A13546  12.021   0.879   6.040 -0.1404 -0.1078  0.0851
  847loPI   C5A13547  12.283   0.748   6.456  0.0435 -0.0366  0.0001
  847loPI   C6A13548  12.774   0.599   6.458  0.1116  0.2685  0.2773
  847loPI   C1B13549  12.114   1.094   5.163 -0.1337 -0.3411 -0.0493
  847loPI   C2B13550  11.964   1.208   5.594 -0.3472 -0.1957  0.3924
  847loPI   C3B13551  12.259   1.239   5.875 -0.1200 -0.0931 -0.0850
  847loPI   C4B13552  12.566   1.545   6.055  0.0246  0.2301 -0.3495
  848loPI    C113553  11.206   2.750   4.184  0.1168  0.2244  0.1484
  848loPI    C213554  11.355   2.487   4.447  0.0806  0.1271  0.0722
  848loPI    C313555  11.445   2.455   4.059 -0.2714 -0.0340  0.0002
  848loPI   PO413556  10.926   2.756   4.232  0.2731 -0.0308  0.2393
  848loPI   GL113557  10.732   2.595   4.628 -0.0074  0.0298 -0.0876
  848loPI   GL213558  10.926   2.395   4.622 -0.0652  0.0356  0.1166
  848loPI   C1A13559  10.555   2.486   5.049 -0.1951 -0.1672  0.2780
  848loPI   C2A13560  10.607   2.341   5.531  0.0152  0.2121  0.2199
  848loPI   C3A13561  10.718   2.265   5.901 -0.2266 -0.2837 -0.0234
  848loPI   C4A13562  10.755   2.414   6.352  0.0924  0.1896  0.0512
  848loPI   C5A13563  10.504   2.142   6.626  0.0516 -0.0202  0.0765
  848loPI   C6A13564  10.083   1.929   6.705 -0.1462 -0.0877  0.2717
  848loPI   C1B13565  11.199   2.693   4.856 -0.2553  0.0860 -0.0640
  848loPI   C2B13566  11.693   2.831   4.941 -0.0323  0.0255 -0.1744
  848loPI   C3B13567  12.103   2.976   5.114  0.2980 -0.0281 -0.0418
  848loPI   C4B13568  12.347   3.024   5.511 -0.0082 -0.0447 -0.5816
  849loPI    C113569  13.483   1.042   3.874  0.3667 -0.0847  0.1096
  849loPI    C213570  13.129   1.209   3.795  0.3150 -0.1694  0.1613
  849loPI    C313571  13.464   1.423   3.753  0.2457 -0.0366  0.2762
  849loPI   PO413572  13.382   0.710   3.826 -0.0646 -0.0272  0.0252
  849loPI   GL113573  13.297   0.665   4.276  0.2522  0.3621  0.1932
  849loPI   GL213574  13.373   0.346   4.320  0.1688 -0.2209 -0.0240
  849loPI   C1A13575  13.253   0.993   4.536 -0.1207 -0.0473 -0.2056
  849loPI   C2A13576  13.192   1.011   4.960 -0.2710 -0.0188 -0.1099
  849loPI   C3A13577  13.090   1.119   5.313  0.1922 -0.2267  0.3249
  849loPI   C4A13578  13.276   0.930   5.694 -0.2255 -0.0349 -0.4999
  849loPI   C5A13579  13.346   0.563   5.822  0.0373 -0.2503 -0.1741
  849loPI   C6A13580  13.695   0.469   5.844  0.1423 -0.2206  0.1181
  849loPI   C1B13581  13.174   0.455   4.795 -0.2444 -0.2149 -0.3707
  849loPI   C2B13582  13.129   0.268   5.130 -0.2664 -0.1871  0.0003
  849loPI   C3B13583  13.155   0.223   5.497  0.1850  0.4352 -0.2894
  849loPI   C4B13584  13.426   0.000   5.784 -0.2017  0.1249 -0.0903
  850loPI    C113585  12.739  19.348   3.875 -0.1046 -0.0913 -0.0843
  850loPI    C213586  12.986  19.662   3.875 -0.0481 -0.1353 -0.0177
  850loPI    C313587  12.948  19.436   3.547 -0.0256 -0.1085 -0.0388
  850loPI   PO413588  12.599  19.369   4.154  0.0086 -0.2791  0.3355
  850loPI   GL113589  12.482  19.275   4.436  0.1499 -0.3479 -0.1358
  850loPI   GL213590  12.167  19.174   4.481  0.1841 -0.2596  0.2381
  850loPI   C1A13591  12.475  19.556   4.830  0.2297  0.0037  0.1839
  850loPI   C2A13592  12.477  19.401   5.133  0.0382  0.0624  0.2017
  850loPI   C3A13593  12.443  19.181   5.475  0.1509 -0.1192 -0.4598
  850loPI   C4A13594  12.062  18.842   5.615  0.2363  0.3390  0.2001
  850loPI   C5A13595  12.007  18.737   6.151 -0.0226 -0.2436 -0.1704
  850loPI   C6A13596  11.916  18.706   6.547 -0.2848  0.1034  0.0358
  850loPI   C1B13597  12.172  19.018   4.902  0.1273  0.2080  0.2617
  850loPI   C2B13598  12.319  18.648   5.121 -0.3797  0.1878 -0.2322
  850loPI   C3B13599  12.606  18.690   5.512  0.2386 -0.1047  0.0552
  850loPI   C4B13600  12.512  18.893   5.941 -0.0742 -0.0553 -0.1235
  851loPI    C113601  16.514   6.573   4.241  0.1683  0.3339 -0.0806
  851loPI    C213602  16.738   6.370   3.978 -0.2874 -0.1428 -0.1188
  851loPI    C313603  16.498   6.664   3.851 -0.0130  0.0778 -0.1362
  851loPI   PO413604  16.682   6.628   4.447  0.0785 -0.0686 -0.0575
  851loPI   GL113605  16.512   6.893   4.767 -0.0302  0.0721 -0.0440
  851loPI   GL213606  16.382   6.520   4.810 -0.0899  0.0038  0.0029
  851loPI   C1A13607  16.578   6.791   5.241 -0.0889  0.0963  0.1806
  851loPI   C2A13608  16.532   6.678   5.701 -0.1875 -0.2409 -0.1670
  851loPI   C3A13609  16.442   6.663   6.153  0.1151 -0.3749  0.1653
  851loPI   C4A13610  16.216   6.709   6.519  0.0530  0.0372  0.1404
  851loPI   C5A13611  16.043   7.129   6.722  0.1401  0.3237 -0.0461
  851loPI   C6A13612  16.157   7.360   7.014  0.0572 -0.1468 -0.2201
  851loPI   C1B13613  16.327   6.386   5.212  0.1446 -0.2320 -0.0564
  851loPI   C2B13614  16.005   6.355   5.457  0.0200  0.1793 -0.0802
  851loPI   C3B13615  15.839   6.367   5.841  0.0091 -0.0947  0.0102
  851loPI   C4B13616  15.465   6.752   5.952 -0.2381 -0.2133  0.0991
  852loPI    C113617  13.505  15.514   4.269 -0.2526 -0.0152 -0.1772
  852loPI    C213618  13.819  15.604   4.039  0.0510 -0.1984  0.1538
  852loPI    C313619  13.513  15.396   3.887  0.2245 -0.2780 -0.0948
  852loPI   PO413620  13.564  15.565   4.487 -0.0989  0.0151 -0.2726
  852loPI   GL113621  13.725  15.577   4.886 -0.0653 -0.1447 -0.2253
  852loPI   GL213622  13.402  15.383   4.985 -0.0314 -0.0964 -0.0935
  852loPI   C1A13623  13.893  15.616   5.391  0.2827  0.1566  0.1537
  852loPI   C2A13624  14.004  15.504   5.767 -0.0289 -0.2479  0.0542
  852loPI   C3A13625  13.884  15.466   6.211  0.1385 -0.3235 -0.0777
  852loPI   C4A13626  13.707  15.579   6.564 -0.2727  0.0707  0.0626
  852loPI   C5A13627  13.420  15.861   6.637  0.0861 -0.2207  0.1067
  852loPI   C6A13628  13.458  16.333   6.606 -0.1316 -0.0251  0.2484
  852loPI   C1B13629  13.505  15.248   5.472 -0.1612 -0.2157  0.2693
  852loPI   C2B13630  13.444  15.083   5.722 -0.0253  0.1159 -0.1219
  852loPI   C3B13631  13.358  14.736   5.949 -0.1146  0.4249  0.0624
  852loPI   C4B13632  13.369  14.272   5.811 -0.0053 -0.0035 -0.0891
  853loPI    C113633   1.561  14.776   4.648  0.1702 -0.2115 -0.0162
  853loPI    C213634   1.345  14.962   4.367  0.1425 -0.2476 -0.0188
  853loPI    C313635   1.728  14.872   4.297  0.2191  0.0059  0.0652
  853loPI   PO413636   1.517  14.909   4.856 -0.0126  0.2644  0.1109
  853loPI   GL113637   1.501  14.938   5.342 -0.0108  0.3512  0.2703
  853loPI   GL213638   1.318  15.147   5.272  0.4502  0.1166 -0.0791
  853loPI   C1A13639   1.496  15.092   5.816 -0.0159 -0.0754  0.3058
  853loPI   C2A13640   1.674  15.109   6.159  0.3048  0.2854  0.4386
  853loPI   C3A13641   1.408  15.409   6.380  0.0135  0.0582 -0.1204
  853loPI   C4A13642   1.459  15.695   6.755  0.2737 -0.0250 -0.3478
  853loPI   C5A13643   1.693  15.939   7.135 -0.2898  0.0955  0.1986
  853loPI   C6A13644   1.915  15.939   7.596 -0.1774 -0.0025  0.1244
  853loPI   C1B13645   1.544  15.430   5.446  0.1779 -0.0767  0.2914
  853loPI   C2B13646   1.621  15.586   5.812  0.1363  0.1534 -0.0415
  853loPI   C3B13647   1.695  15.772   6.264 -0.0567 -0.1847 -0.1807
  853loPI   C4B13648   1.781  16.097   6.417  0.1009 -0.3535 -0.1964
  854loPI    C113649  15.249  17.803   3.914  0.1965  0.1088 -0.0576
  854loPI    C213650  15.269  18.135   3.692 -0.0065  0.2470  0.1277
  854loPI    C313651  15.025  17.837   3.584 -0.2355  0.3854  0.2539
  854loPI   PO413652  15.192  17.876   4.152 -0.1091 -0.3916  0.3178
  854loPI   GL113653  15.075  17.900   4.562 -0.1001  0.1467  0.3118
  854loPI   GL213654  14.920  17.647   4.832  0.0074  0.2062 -0.0828
  854loPI   C1A13655  15.147  18.040   4.980 -0.1029 -0.0719  0.0402
  854loPI   C2A13656  15.032  18.150   5.326 -0.2313  0.1927  0.0136
  854loPI   C3A13657  14.931  18.280   5.751  0.0974  0.1568  0.0003
  854loPI   C4A13658  14.720  18.259   6.057 -0.1998  0.1315 -0.0178
  854loPI   C5A13659  14.723  18.411   6.474 -0.1348 -0.1706  0.0922
  854loPI   C6A13660  14.682  18.542   6.796 -0.2719  0.1187  0.0040
  854loPI   C1B13661  14.940  17.671   5.256 -0.0694  0.2470 -0.0923
  854loPI   C2B13662  14.959  17.672   5.651 -0.4296 -0.0140  0.1140
  854loPI   C3B13663  15.005  17.465   6.105 -0.0067  0.0519  0.2927
  854loPI   C4B13664  14.882  17.487   6.588 -0.2832  0.0831  0.0599
  855loPI    C113665  15.857   3.650   4.092  0.0770 -0.1735 -0.0926
  855loPI    C213666  15.856   3.934   3.810 -0.1232  0.1723  0.2462
  855loPI    C313667  15.517   3.742   3.902  0.0094 -0.1782  0.0251
  855loPI   PO413668  15.925   3.661   4.314  0.2620 -0.0802 -0.1374
  855loPI   GL113669  15.676   3.749   4.717  0.2167 -0.0934  0.0654
  855loPI   GL213670  15.824   4.000   4.803 -0.2197 -0.1907  0.3183
  855loPI   C1A13671  15.371   3.499   5.052 -0.1897  0.1247  0.2512
  855loPI   C2A13672  15.316   3.360   5.487 -0.0508 -0.0994 -0.1326
  855loPI   C3A13673  15.094   3.273   5.801 -0.0505 -0.1263  0.5228
  855loPI   C4A13674  14.779   3.383   6.090  0.1613  0.0624  0.1781
  855loPI   C5A13675  14.861   3.434   6.476 -0.1391  0.3009 -0.2680
  855loPI   C6A13676  15.068   3.355   6.811  0.4204  0.0967 -0.3803
  855loPI   C1B13677  15.977   4.222   5.216  0.2183 -0.1006  0.0762
  855loPI   C2B13678  15.997   4.292   5.765 -0.3896  0.2505  0.0144
  855loPI   C3B13679  16.003   4.537   6.150 -0.3425 -0.0669 -0.0253
  855loPI   C4B13680  16.105   4.636   6.578  0.3500 -0.1292  0.2159
  856loPI    C113681  10.278   6.959   4.734 -0.1094 -0.4515 -0.0291
  856loPI    C213682   9.921   7.029   4.568 -0.0058 -0.0297 -0.0857
  856loPI    C313683  10.245   6.996   4.337 -0.0194 -0.5280 -0.0441
  856loPI   PO413684  10.370   7.200   4.919  0.2313 -0.0429  0.0586
  856loPI   GL113685  10.262   7.265   5.379  0.2196  0.2368 -0.0957
  856loPI   GL213686  10.263   7.604   5.262  0.0158  0.1493 -0.0776
  856loPI   C1A13687  10.080   6.978   5.689  0.2140 -0.0620  0.3544
  856loPI   C2A13688  10.022   6.516   5.842 -0.3121 -0.1002  0.1101
  856loPI   C3A13689  10.109   6.306   6.277 -0.3901  0.1745  0.0734
  856loPI   C4A13690   9.968   6.021   6.638 -0.1863  0.0179  0.0590
  856loPI   C5A13691  10.270   5.776   6.968  0.2365 -0.1158  0.0896
  856loPI   C6A13692  10.667   5.645   6.893  0.0295  0.0483  0.1374
  856loPI   C1B13693  10.152   7.629   5.701  0.1778  0.0097  0.0053
  856loPI   C2B13694  10.262   7.833   6.123  0.0284  0.2395 -0.0834
  856loPI   C3B13695  10.211   7.986   6.583 -0.0516 -0.1231 -0.0999
  856loPI   C4B13696  10.012   8.283   6.857  0.1686  0.0901  0.0096
  857loPI    C113697  11.825   4.201   4.044  0.3161 -0.0537 -0.2177
  857loPI    C213698  11.869   4.588   3.955 -0.2303  0.0443 -0.0983
  857loPI    C313699  11.691   4.342   3.695  0.1088 -0.1308 -0.1707
  857loPI   PO413700  11.755   4.269   4.330  0.2622  0.1879  0.1719
  857loPI   GL113701  11.662   4.196   4.747  0.2420  0.0659  0.1284
  857loPI   GL213702  11.336   4.456   4.677  0.1115  0.0707 -0.0264
  857loPI   C1A13703  11.783   4.459   5.146 -0.2409 -0.1127  0.2246
  857loPI   C2A13704  11.666   4.734   5.483 -0.1606 -0.1540 -0.0783
  857loPI   C3A13705  11.559   4.730   5.923  0.0693 -0.0406  0.6323
  857loPI   C4A13706  11.505   4.805   6.356  0.0402 -0.1772  0.0050
  857loPI   C5A13707  11.343   4.756   6.716  0.0406  0.0225 -0.3100
  857loPI   C6A13708  11.610   4.784   7.002 -0.0090 -0.1193  0.2747
  857loPI   C1B13709  11.237   4.207   4.967  0.1436  0.2702 -0.1491
  857loPI   C2B13710  11.175   4.199   5.355  0.0697 -0.1817  0.3043
  857loPI   C3B13711  11.189   4.415   5.738 -0.1044 -0.0086 -0.4329
  857loPI   C4B13712  10.973   4.665   6.059 -0.5850 -0.0686  0.0023
  858loPI    C113713   0.663   6.386   4.866  0.1006 -0.1892 -0.1055
  858loPI    C213714   0.539   6.222   4.524 -0.0124 -0.0187 -0.1473
  858loPI    C313715   0.619   6.613   4.540  0.1685 -0.0597 -0.0253
  858loPI   PO413716   0.427   6.185   5.082  0.1380  0.1421 -0.1448
  858loPI   GL113717   0.318   6.045   5.469 -0.0322  0.0335  0.0109
  858loPI   GL213718   0.201   5.821   5.414  0.1700 -0.1592  0.3291
  858loPI   C1A13719   0.529   6.094   5.832  0.2434 -0.3074  0.0104
  858loPI   C2A13720   0.504   6.148   6.214  0.2148  0.2252  0.0427
  858loPI   C3A13721   0.255   6.164   6.461  0.0422  0.1027  0.1342
  858loPI   C4A13722   0.160   6.219   6.820  0.0295  0.4900  0.1472
  858loPI   C5A13723  -0.005   6.401   7.084 -0.1051  0.0452 -0.1049
  858loPI   C6A13724   0.282   6.651   7.385 -0.0997 -0.1771  0.0025
  858loPI   C1B13725   0.281   5.665   5.829  0.1194  0.1605  0.0505
  858loPI   C2B13726   0.333   5.366   6.221  0.0287 -0.1025 -0.2939
  858loPI   C3B13727   0.034   5.194   6.442  0.0412  0.0840  0.0650
  858loPI   C4B13728  -0.289   5.293   6.629  0.3142 -0.1616  0.0818
  859loPI    C113729  17.017   9.392   4.628  0.1186  0.0003 -0.1067
  859loPI    C213730  16.761   9.084   4.636  0.0720  0.0433  0.1501
  859loPI    C313731  16.850   9.262   4.288 -0.2219  0.0071  0.0540
  859loPI   PO413732  16.900   9.613   4.729  0.2970  0.1066 -0.0690
  859loPI   GL113733  16.859   9.636   5.135  0.2508  0.0362 -0.0316
  859loPI   GL213734  17.247   9.571   5.091 -0.0078  0.0631  0.2357
  859loPI   C1A13735  16.955   9.532   5.582  0.1296  0.0840  0.0178
  859loPI   C2A13736  16.938   9.258   5.862  0.2045 -0.1042 -0.1424
  859loPI   C3A13737  16.787   8.995   6.126  0.0549  0.2998  0.0016
  859loPI   C4A13738  16.429   9.062   6.436 -0.0733  0.0629  0.1487
  859loPI   C5A13739  16.175   8.852   6.804 -0.0280 -0.4336 -0.1058
  859loPI   C6A13740  16.190   8.823   7.258 -0.2875 -0.3601  0.0662
  859loPI   C1B13741  17.478   9.474   5.497  0.0977  0.3459  0.3156
  859loPI   C2B13742  17.476   9.509   5.861  0.0565 -0.1306 -0.3587
  859loPI   C3B13743  17.638   9.458   6.288 -0.1144 -0.3413 -0.1975
  859loPI   C4B13744  17.788   9.479   6.752  0.0607  0.0608 -0.0478
  860loPI    C113745  13.410  11.930   4.553 -0.0630 -0.2227  0.0085
  860loPI    C213746  13.180  11.651   4.383 -0.0427 -0.0650 -0.2844
  860loPI    C313747  13.515  11.773   4.201 -0.0183  0.1055 -0.1290
  860loPI   PO413748  13.496  11.785   4.868  0.0672  0.1609 -0.1054
  860loPI   GL113749  13.639  11.749   5.296 -0.1221  0.0245  0.2565
  860loPI   GL213750  13.318  11.662   5.300 -0.2963 -0.1072 -0.3880
  860loPI   C1A13751  13.643  11.878   5.640  0.0416 -0.4419  0.0444
  860loPI   C2A13752  13.740  12.073   5.965  0.1952  0.0097 -0.0617
  860loPI   C3A13753  13.809  12.136   6.338 -0.2007  0.0907 -0.5680
  860loPI   C4A13754  13.942  12.087   6.744  0.0025  0.0762  0.1313
  860loPI   C5A13755  14.049  11.791   7.055  0.0189  0.5192 -0.3281
  860loPI   C6A13756  14.204  11.393   7.236 -0.1381 -0.2154 -0.3602
  860loPI   C1B13757  13.442  11.418   5.649 -0.0526  0.4008  0.1701
  860loPI   C2B13758  13.446  11.157   6.107  0.1368  0.0418 -0.3840
  860loPI   C3B13759  13.541  10.939   6.449 -0.1153 -0.0594 -0.1599
  860loPI   C4B13760  13.493  10.523   6.496  0.1727 -0.1085  0.3158
  861loPI    C113761  14.038   5.423   4.657  0.2120 -0.1304 -0.0838
  861loPI    C213762  14.088   5.809   4.747 -0.1182 -0.0659 -0.1630
  861loPI    C313763  14.368   5.615   4.537  0.0237  0.1443 -0.1721
  861loPI   PO413764  13.814   5.396   4.497 -0.2891  0.0896  0.2721
  861loPI   GL113765  13.452   5.378   4.803 -0.1177  0.0130 -0.0876
  861loPI   GL213766  13.696   5.170   4.886  0.2243 -0.1852 -0.0214
  861loPI   C1A13767  13.289   5.025   5.149  0.2544  0.1141 -0.0148
  861loPI   C2A13768  13.099   4.938   5.402 -0.3142  0.2458  0.1159
  861loPI   C3A13769  13.252   4.783   5.894  0.1617 -0.0795 -0.3616
  861loPI   C4A13770  13.444   4.709   6.309  0.0745  0.0194  0.2776
  861loPI   C5A13771  13.546   4.622   6.733  0.0264 -0.1420  0.0642
  861loPI   C6A13772  13.603   4.885   7.046 -0.1352  0.2233 -0.2498
  861loPI   C1B13773  13.893   5.089   5.247 -0.0225 -0.2978  0.2293
  861loPI   C2B13774  14.088   4.919   5.630  0.1377  0.1821  0.2948
  861loPI   C3B13775  14.284   4.878   6.043  0.1785  0.1348  0.2825
  861loPI   C4B13776  14.612   4.955   6.376  0.2822  0.0161  0.2762
  862loPI    C113777  14.899  13.593   4.595 -0.0295 -0.1378  0.0591
  862loPI    C213778  14.846  13.807   4.261  0.0998 -0.0236  0.1107
  862loPI    C313779  14.534  13.629   4.436 -0.0045  0.1003  0.0514
  862loPI   PO413780  14.968  13.672   4.813  0.1702  0.2091 -0.0935
  862loPI   GL113781  14.806  13.868   5.114 -0.0592 -0.0500  0.1930
  862loPI   GL213782  14.634  13.883   5.305  0.0803 -0.0537  0.0648
  862loPI   C1A13783  15.086  13.698   5.438  0.1415 -0.5248 -0.1376
  862loPI   C2A13784  15.373  13.804   5.757 -0.0228  0.3847 -0.3548
  862loPI   C3A13785  15.422  13.836   6.225 -0.2984 -0.1704  0.1949
  862loPI   C4A13786  15.667  13.630   6.537  0.3162  0.0606 -0.0620
  862loPI   C5A13787  16.153  13.396   6.567  0.0956 -0.0679  0.0830
  862loPI   C6A13788  16.534  13.493   6.670  0.2095 -0.1398  0.2164
  862loPI   C1B13789  14.589  13.761   5.672 -0.1388  0.1675 -0.0490
  862loPI   C2B13790  14.857  13.737   6.083 -0.3004 -0.0411  0.1376
  862loPI   C3B13791  15.056  13.833   6.504 -0.2779  0.3502 -0.1679
  862loPI   C4B13792  14.983  13.794   6.940 -0.1770 -0.0356 -0.0920
  863loPI    C113793   7.832  17.682   4.167  0.0346  0.2107 -0.0939
  863loPI    C213794   8.127  17.444   4.041 -0.1363  0.0387 -0.1748
  863loPI    C313795   7.918  17.659   3.777 -0.1821  0.0448 -0.1337
  863loPI   PO413796   7.830  17.548   4.454 -0.2516 -0.0662  0.1052
  863loPI   GL113797   7.705  17.573   4.879  0.0675 -0.3853 -0.1036
  863loPI   GL213798   8.054  17.522   4.883 -0.1838 -0.1139 -0.0264
  863loPI   C1A13799   7.572  17.600   5.333  0.1682  0.4585  0.0566
  863loPI   C2A13800   7.576  17.695   5.634  0.5140 -0.0473  0.0595
  863loPI   C3A13801   7.559  18.002   6.062  0.0699  0.1727  0.0501
  863loPI   C4A13802   7.355  18.229   6.355 -0.0277  0.0157  0.2623
  863loPI   C5A13803   7.161  18.407   6.725 -0.2278  0.2618  0.0539
  863loPI   C6A13804   7.017  18.561   7.158 -0.2945 -0.2989  0.1588
  863loPI   C1B13805   8.093  17.610   5.323 -0.0903 -0.1195  0.0611
  863loPI   C2B13806   8.083  17.693   5.771 -0.3330  0.2530  0.1350
  863loPI   C3B13807   7.807  17.531   6.063  0.0777  0.0929  0.0796
  863loPI   C4B13808   7.663  17.673   6.406 -0.0331 -0.1237 -0.1289
  864loPI    C113809   2.607   4.988   4.544  0.1006  0.0397  0.1648
  864loPI    C213810   2.208   4.950   4.542  0.1129 -0.1311  0.4245
  864loPI    C313811   2.436   4.682   4.351  0.0950  0.1302  0.0256
  864loPI   PO413812   2.642   4.999   4.860 -0.1147 -0.2170 -0.1679
  864loPI   GL113813   2.333   5.174   5.157  0.4269  0.1125 -0.2882
  864loPI   GL213814   2.680   5.404   5.193 -0.0422  0.2348 -0.0493
  864loPI   C1A13815   2.258   5.011   5.631  0.3611 -0.0409  0.1420
  864loPI   C2A13816   2.427   4.938   6.064  0.0122 -0.2459  0.1771
  864loPI   C3A13817   2.575   4.855   6.453  0.0756 -0.1752  0.1176
  864loPI   C4A13818   2.704   4.749   6.879  0.0068  0.0489 -0.1378
  864loPI   C5A13819   2.559   5.066   7.205 -0.2819  0.0093  0.0576
  864loPI   C6A13820   2.217   5.306   7.295  0.2305 -0.1142 -0.2811
  864loPI   C1B13821   2.759   5.477   5.604  0.1535 -0.1090 -0.1714
  864loPI   C2B13822   2.569   5.527   6.044 -0.2150  0.2143 -0.3713
  864loPI   C3B13823   2.478   5.360   6.482  0.2789  0.4691  0.2742
  864loPI   C4B13824   2.505   5.592   6.832 -0.0671  0.0792 -0.1910
  865loPI    C113825  15.360   7.903   4.044 -0.0125  0.3445 -0.3929
  865loPI    C213826  15.583   7.572   4.049 -0.4565  0.0285  0.3863
  865loPI    C313827  15.473   7.734   3.700  0.0356 -0.4476 -0.0088
  865loPI   PO413828  15.521   8.059   4.288 -0.0538  0.0039  0.1029
  865loPI   GL113829  15.516   7.940   4.870  0.0577  0.2598  0.1053
  865loPI   GL213830  15.077   7.943   4.881 -0.0038  0.4501  0.2057
  865loPI   C1A13831  15.481   7.883   5.250  0.2241  0.2825 -0.0039
  865loPI   C2A13832  15.645   7.849   5.613 -0.1471 -0.1167 -0.1905
  865loPI   C3A13833  15.910   7.630   5.949 -0.0044  0.3364 -0.0818
  865loPI   C4A13834  15.993   7.503   6.426  0.3677 -0.0884 -0.2172
  865loPI   C5A13835  15.896   7.727   6.831 -0.3152  0.0371 -0.3416
  865loPI   C6A13836  15.927   7.975   7.156  0.0563 -0.0448 -0.2463
  865loPI   C1B13837  14.949   7.725   5.258 -0.1120  0.2850  0.0423
  865loPI   C2B13838  14.753   7.444   5.457 -0.2319 -0.0849 -0.2194
  865loPI   C3B13839  14.701   7.122   5.718  0.1162 -0.0008  0.1120
  865loPI   C4B13840  14.419   6.740   5.630 -0.4113  0.1929 -0.0130
  866loPI    C113841  13.504   6.401   4.373  0.0035  0.0444 -0.0885
  866loPI    C213842  13.666   6.143   4.115  0.1034 -0.0958  0.1119
  866loPI    C313843  13.294   6.084   4.249  0.1131 -0.1165  0.1299
  866loPI   PO413844  13.702   6.313   4.625 -0.1513 -0.2053 -0.1071
  866loPI   GL113845  13.801   6.176   5.043  0.0454  0.2873 -0.1582
  866loPI   GL213846  13.596   6.526   5.069  0.2738 -0.0261 -0.3458
  866loPI   C1A13847  14.062   6.047   5.363 -0.2391  0.2150 -0.1698
  866loPI   C2A13848  13.998   6.104   5.817 -0.0208 -0.0858 -0.0473
  866loPI   C3A13849  14.015   5.931   6.221  0.0101  0.2823 -0.2461
  866loPI   C4A13850  14.021   5.730   6.702 -0.3520 -0.0191 -0.1564
  866loPI   C5A13851  13.932   5.875   7.116 -0.0428  0.1616 -0.3037
  866loPI   C6A13852  13.482   5.953   7.419  0.0946  0.0399  0.1451
  866loPI   C1B13853  13.558   6.214   5.449 -0.0153 -0.3871 -0.1071
  866loPI   C2B13854  13.530   5.844   5.669  0.0507 -0.2161 -0.0874
  866loPI   C3B13855  13.716   5.625   5.989  0.0090  0.1133  0.3200
  866loPI   C4B13856  13.662   5.547   6.398  0.0022 -0.1978  0.0661
  867loPI    C113857   2.634   6.269   4.828 -0.1969 -0.4402  0.0809
  867loPI    C213858   2.904   6.353   4.545 -0.2293  0.0192  0.1781
  867loPI    C313859   2.514   6.371   4.460 -0.2378  0.0535  0.2236
  867loPI   PO413860   2.761   6.241   5.038 -0.0906  0.0169  0.0963
  867loPI   GL113861   2.804   6.279   5.487 -0.2282  0.3068 -0.0683
  867loPI   GL213862   3.002   6.571   5.452 -0.1125  0.2801  0.2951
  867loPI   C1A13863   2.865   6.327   5.945 -0.2239 -0.1320 -0.0114
  867loPI   C2A13864   3.190   6.205   6.169 -0.0024  0.0648  0.1912
  867loPI   C3A13865   3.139   6.243   6.595  0.2362  0.1001  0.0014
  867loPI   C4A13866   2.963   6.412   6.970 -0.1057  0.0390  0.1907
  867loPI   C5A13867   2.774   6.530   7.310 -0.3231  0.1940 -0.1199
  867loPI   C6A13868   2.400   6.356   7.579 -0.4939  0.2338  0.1091
  867loPI   C1B13869   3.160   6.761   5.831  0.2172 -0.0747 -0.1579
  867loPI   C2B13870   3.307   6.752   6.248  0.2694 -0.1372 -0.4897
  867loPI   C3B13871   3.333   6.750   6.798  0.4395 -0.2515  0.2116
  867loPI   C4B13872   3.340   6.691   7.166  0.2892  0.2520 -0.3837
  868loPI    C113873  16.540   4.120   4.404  0.0011 -0.2449  0.1435
  868loPI    C213874  16.523   4.282   4.039 -0.1533 -0.0676  0.2280
  868loPI    C313875  16.237   4.029   4.159 -0.1325 -0.0825  0.2461
  868loPI   PO413876  16.599   4.386   4.521 -0.1062 -0.1013 -0.1125
  868loPI   GL113877  16.566   4.478   4.944 -0.2858  0.0916  0.0909
  868loPI   GL213878  16.382   4.175   4.921  0.1395  0.0614 -0.0063
  868loPI   C1A13879  16.864   4.536   5.263 -0.0646  0.4064  0.0598
  868loPI   C2A13880  16.905   4.575   5.754  0.2210 -0.0395 -0.0586
  868loPI   C3A13881  16.559   4.637   6.034  0.3559 -0.3054  0.0643
  868loPI   C4A13882  16.473   4.838   6.354 -0.5473 -0.4601  0.0598
  868loPI   C5A13883  16.430   4.884   6.856 -0.1870  0.0690  0.0244
  868loPI   C6A13884  16.297   4.594   7.100  0.1252 -0.0465 -0.0555
  868loPI   C1B13885  16.592   4.086   5.353  0.0024 -0.2885 -0.1564
  868loPI   C2B13886  16.543   4.150   5.794  0.1909  0.1153 -0.0976
  868loPI   C3B13887  16.451   4.028   6.191  0.2717  0.3515 -0.2633
  868loPI   C4B13888  16.387   3.630   6.484 -0.0135 -0.2893 -0.2937
  869loPI    C113889  13.005   7.835   3.965 -0.3660 -0.0900  0.0034
  869loPI    C213890  12.912   8.215   4.049  0.0355 -0.0027  0.0731
  869loPI    C313891  13.260   8.129   3.872  0.0675 -0.3605  0.2995
  869loPI   PO413892  13.045   7.697   4.173  0.1978 -0.0851  0.0866
  869loPI   GL113893  13.062   7.746   4.582  0.3380 -0.0434 -0.2521
  869loPI   GL213894  12.882   7.611   4.708  0.0987 -0.1042  0.1717
  869loPI   C1A13895  13.195   7.906   4.989 -0.0009 -0.2657 -0.1746
  869loPI   C2A13896  13.310   7.630   5.312 -0.0458 -0.2005 -0.1643
  869loPI   C3A13897  13.467   7.298   5.658 -0.0139  0.2051  0.0441
  869loPI   C4A13898  13.588   7.264   6.148 -0.1480 -0.2137 -0.1954
  869loPI   C5A13899  13.529   7.100   6.564  0.2014  0.1297 -0.1804
  869loPI   C6A13900  13.411   7.229   6.959  0.0009  0.2613 -0.0328
  869loPI   C1B13901  12.770   7.547   5.069 -0.0557  0.1688 -0.0095
  869loPI   C2B13902  12.509   7.337   5.355  0.0765  0.1371  0.2923
  869loPI   C3B13903  12.418   7.155   5.733  0.1288  0.0155  0.0693
  869loPI   C4B13904  12.257   7.267   6.148  0.2394 -0.0021 -0.2521
  870loPI    C113905   4.660   9.306   4.824  0.2812 -0.0501 -0.1288
  870loPI    C213906   4.264   9.300   4.768  0.2350 -0.1891  0.1941
  870loPI    C313907   4.509   9.362   4.458 -0.0480  0.1834  0.0383
  870loPI   PO413908   4.747   9.073   5.081 -0.0167 -0.0515 -0.0432
  870loPI   GL113909   4.939   9.158   5.384 -0.1610 -0.1294  0.2444
  870loPI   GL213910   4.862   9.528   5.371  0.1827 -0.1182  0.0889
  870loPI   C1A13911   4.842   9.062   5.774 -0.1855 -0.0560 -0.1479
  870loPI   C2A13912   4.861   8.914   6.215 -0.2087  0.3022  0.2200
  870loPI   C3A13913   5.005   9.112   6.605 -0.2399 -0.0039 -0.3331
  870loPI   C4A13914   5.018   9.345   6.977 -0.1460 -0.1519  0.1528
  870loPI   C5A13915   4.860   9.581   7.342 -0.1816  0.0437 -0.1953
  870loPI   C6A13916   4.516   9.854   7.341  0.2628  0.0020  0.0008
  870loPI   C1B13917   4.533   9.510   5.689 -0.1870 -0.0118 -0.4230
  870loPI   C2B13918   4.256   9.729   6.027  0.1584  0.0594 -0.0050
  870loPI   C3B13919   4.210   9.663   6.438 -0.0238  0.1758 -0.2567
  870loPI   C4B13920   4.124   9.577   6.871  0.0975  0.0849 -0.0466
  871loPI    C113921  10.036  13.936   5.070  0.0513  0.0906 -0.1811
  871loPI    C213922  10.371  14.055   4.887  0.0416  0.2970 -0.0675
  871loPI    C313923  10.014  14.139   4.726  0.0401  0.2038 -0.1140
  871loPI   PO413924  10.041  13.648   5.162 -0.1118  0.1781  0.0806
  871loPI   GL113925   9.928  13.548   5.539 -0.0186  0.5219  0.0598
  871loPI   GL213926  10.180  13.319   5.728  0.0021 -0.1029  0.1628
  871loPI   C1A13927   9.936  13.816   5.842 -0.1213  0.2608 -0.0384
  871loPI   C2A13928  10.163  13.988   6.101 -0.0248  0.1829 -0.2534
  871loPI   C3A13929  10.460  13.975   6.414  0.2407 -0.0019 -0.4463
  871loPI   C4A13930  10.502  14.089   6.832 -0.1466 -0.0764  0.2322
  871loPI   C5A13931  10.529  13.947   7.199  0.0361  0.1114  0.2524
  871loPI   C6A13932  10.681  13.676   7.485  0.1894 -0.1158 -0.1060
  871loPI   C1B13933   9.942  13.409   6.159  0.0392 -0.0957  0.4746
  871loPI   C2B13934   9.999  13.737   6.524 -0.1601  0.0825 -0.1662
  871loPI   C3B13935  10.005  14.014   6.809  0.2917  0.1587  0.0014
  871loPI   C4B13936   9.987  13.844   7.192  0.1106 -0.1568  0.0046
  872loPI    C113937  12.611   7.881   4.420 -0.0433 -0.0273  0.0647
  872loPI    C213938  12.339   7.610   4.305  0.0178 -0.0101 -0.1232
  872loPI    C313939  12.519   7.842   4.033 -0.0710  0.2559  0.0409
  872loPI   PO413940  12.490   8.033   4.671  0.3945  0.0254  0.1045
  872loPI   GL113941  12.692   8.032   4.978  0.0563 -0.3176  0.2348
  872loPI   GL213942  12.764   8.314   5.138  0.1567  0.3172 -0.0456
  872loPI   C1A13943  12.821   7.902   5.398 -0.1788  0.0723  0.0253
  872loPI   C2A13944  12.871   7.761   5.821 -0.0864  0.3463 -0.0227
  872loPI   C3A13945  12.935   7.896   6.314  0.0375  0.1003  0.2068
  872loPI   C4A13946  13.004   8.149   6.709  0.1078  0.1140  0.0503
  872loPI   C5A13947  12.976   8.197   7.220  0.0551  0.0206  0.1527
  872loPI   C6A13948  12.886   8.016   7.573  0.1029  0.1924  0.0173
  872loPI   C1B13949  12.845   8.712   5.408  0.2560  0.3370 -0.0640
  872loPI   C2B13950  13.078   8.718   5.663 -0.0162  0.0662 -0.1044
  872loPI   C3B13951  13.023   8.760   6.122 -0.3592 -0.0897 -0.1026
  872loPI   C4B13952  12.727   8.855   6.449 -0.0524  0.0967 -0.1370
  873loPI    C113953  18.366  13.894   4.532 -0.1296 -0.2543  0.3339
  873loPI    C213954  17.974  13.974   4.526  0.0121  0.5042  0.2007
  873loPI    C313955  18.211  14.114   4.236  0.3580 -0.1434  0.1523
  873loPI   PO413956  18.418  13.861   4.805  0.2231 -0.0127 -0.3887
  873loPI   GL113957  18.270  13.749   5.129 -0.1745  0.0242 -0.1487
  873loPI   GL213958  18.577  13.852   5.345 -0.0823  0.4106 -0.0828
  873loPI   C1A13959  18.342  13.511   5.578 -0.1907 -0.3891  0.0277
  873loPI   C2A13960  18.317  13.524   6.073  0.1268 -0.1412  0.1527
  873loPI   C3A13961  18.046  13.682   6.329 -0.1569 -0.5254 -0.2090
  873loPI   C4A13962  17.854  13.844   6.677 -0.0198  0.0876  0.0048
  873loPI   C5A13963  17.631  14.089   6.980 -0.0208 -0.1252 -0.0721
  873loPI   C6A13964  17.261  14.127   7.289 -0.0181 -0.1801  0.0203
  873loPI   C1B13965  18.831  13.643   5.606 -0.1604 -0.1949  0.0373
  873loPI   C2B13966  19.190  13.670   5.665  0.1445  0.2815  0.1353
  873loPI   C3B13967  19.344  13.724   6.119 -0.2143  0.1001 -0.0173
  873loPI   C4B13968  19.494  13.479   6.450  0.0557  0.2147 -0.0862
  874loPI    C113969   4.458  12.191   4.561  0.0648  0.2603 -0.2039
  874loPI    C213970   4.393  12.265   4.949  0.0376  0.1064 -0.1783
  874loPI    C313971   4.670  12.474   4.749 -0.0274  0.2643 -0.1052
  874loPI   PO413972   4.487  11.980   4.534 -0.0621 -0.2116 -0.1565
  874loPI   GL113973   4.544  11.781   4.977 -0.6059 -0.1597 -0.0169
  874loPI   GL213974   4.185  11.860   5.045  0.0191  0.1466  0.2038
  874loPI   C1A13975   4.760  11.703   5.333  0.2104  0.1865  0.0645
  874loPI   C2A13976   4.862  11.645   5.817 -0.1910  0.0536  0.0776
  874loPI   C3A13977   4.784  11.749   6.247 -0.2998 -0.1833  0.2951
  874loPI   C4A13978   4.939  11.668   6.620 -0.2161  0.0002  0.1437
  874loPI   C5A13979   4.739  11.705   7.043 -0.0510 -0.2182 -0.3039
  874loPI   C6A13980   4.710  11.561   7.503  0.0440 -0.1605  0.1577
  874loPI   C1B13981   4.177  11.866   5.506 -0.0162  0.0902 -0.2099
  874loPI   C2B13982   4.365  11.716   5.889  0.1691 -0.1064 -0.2117
  874loPI   C3B13983   4.182  11.640   6.342 -0.3573 -0.0654  0.2170
  874loPI   C4B13984   4.347  11.547   6.739 -0.0340 -0.2139 -0.1879
  875loPI    C113985   9.936   2.812   4.008  0.1983  0.0339  0.0923
  875loPI    C213986  10.066   2.489   3.812 -0.0485 -0.0915  0.1316
  875loPI    C313987   9.826   2.752   3.629  0.1997  0.1040  0.0806
  875loPI   PO413988   9.963   2.676   4.316 -0.0217  0.1112 -0.1176
  875loPI   GL113989   9.742   2.473   4.624 -0.1114 -0.0895  0.0722
  875loPI   GL213990   9.592   2.292   4.599 -0.0435 -0.1020  0.3294
  875loPI   C1A13991   9.589   2.700   4.926 -0.0217  0.1563  0.0733
  875loPI   C2A13992   9.768   2.636   5.367 -0.0304 -0.0731 -0.1615
  875loPI   C3A13993   9.946   2.563   5.719 -0.1117 -0.0588 -0.4171
  875loPI   C4A13994   9.944   2.720   6.123 -0.0510 -0.0722 -0.2296
  875loPI   C5A13995   9.861   2.710   6.576  0.3724  0.0337 -0.4244
  875loPI   C6A13996   9.662   2.643   6.942  0.2946  0.2031 -0.1856
  875loPI   C1B13997   9.639   2.207   5.016  0.0254 -0.1006  0.1091
  875loPI   C2B13998   9.579   2.120   5.382  0.2078  0.0318 -0.4034
  875loPI   C3B13999   9.713   2.120   5.851 -0.1198 -0.2668 -0.2806
  875loPI   C4B14000   9.725   1.772   6.238 -0.2127  0.6742 -0.1792
  876loPI    C114001  11.100   5.444   4.601 -0.0107  0.1930  0.2471
  876loPI    C214002  11.489   5.536   4.593 -0.0025  0.1505  0.1472
  876loPI    C314003  11.322   5.347   4.283 -0.0647  0.0134  0.2633
  876loPI   PO414004  10.952   5.613   4.671 -0.0664  0.0591 -0.1350
  876loPI   GL114005  10.609   5.502   4.958 -0.3186  0.3400  0.0829
  876loPI   GL214006  10.692   5.763   5.095 -0.4102 -0.1869 -0.0156
  876loPI   C1A14007  10.577   5.341   5.320 -0.3268 -0.2308  0.0187
  876loPI   C2A14008  10.368   5.143   5.722  0.0599 -0.3194 -0.1278
  876loPI   C3A14009  10.090   4.915   6.022 -0.0662  0.1298  0.1851
  876loPI   C4A14010  10.029   4.546   6.178 -0.0076  0.1598  0.0514
  876loPI   C5A14011  10.156   4.472   6.577  0.1289  0.3322  0.0469
  876loPI   C6A14012  10.010   4.090   6.830 -0.2504  0.1265 -0.1796
  876loPI   C1B14013  10.485   5.791   5.514 -0.2039  0.2039 -0.1009
  876loPI   C2B14014  10.108   5.591   5.645 -0.2658  0.0876 -0.0177
  876loPI   C3B14015   9.961   5.378   6.001  0.0694  0.1114  0.1065
  876loPI   C4B14016   9.590   5.330   6.256  0.1133 -0.0094  0.2514
  877loPI    C114017   5.873  11.065   4.564 -0.0177 -0.0146 -0.1167
  877loPI    C214018   5.854  11.456   4.481 -0.0928 -0.0436 -0.2381
  877loPI    C314019   5.723  11.188   4.214 -0.2313 -0.1433 -0.0719
  877loPI   PO414020   5.795  11.079   4.870  0.0063  0.0760  0.0106
  877loPI   GL114021   5.607  11.025   5.203 -0.3669  0.0123  0.0919
  877loPI   GL214022   5.277  11.082   5.116 -0.0636  0.0929 -0.1133
  877loPI   C1A14023   5.619  11.101   5.698  0.1495  0.0065  0.1583
  877loPI   C2A14024   5.541  11.303   6.089 -0.1429 -0.1418  0.1634
  877loPI   C3A14025   5.702  11.445   6.451 -0.0561 -0.4183  0.2425
  877loPI   C4A14026   5.784  11.703   6.799 -0.2760 -0.1232  0.0860
  877loPI   C5A14027   6.017  12.159   6.837 -0.0768  0.0827  0.0757
  877loPI   C6A14028   6.157  12.656   6.800 -0.1857 -0.4033  0.1766
  877loPI   C1B14029   5.222  10.792   5.446  0.1782 -0.1264 -0.1331
  877loPI   C2B14030   5.128  10.743   5.900 -0.1704  0.1864 -0.1204
  877loPI   C3B14031   5.058  10.796   6.372 -0.2040 -0.0388  0.1685
  877loPI   C4B14032   5.093  10.771   6.855 -0.1953 -0.2573  0.1042
  878loPI    C114033   1.488   4.119   4.469 -0.0669  0.0930  0.3353
  878loPI    C214034   1.528   4.107   4.071 -0.0471 -0.1871  0.3435
  878loPI    C314035   1.853   4.106   4.305 -0.0616 -0.1599  0.3639
  878loPI   PO414036   1.288   4.009   4.547  0.2565 -0.2052  0.0881
  878loPI   GL114037   1.272   4.017   4.977  0.0784  0.3542 -0.1534
  878loPI   GL214038   1.059   3.808   4.955  0.1030  0.1927 -0.0534
  878loPI   C1A14039   1.279   4.075   5.365 -0.0139 -0.0359 -0.1308
  878loPI   C2A14040   1.299   4.387   5.740 -0.0322 -0.3046  0.0503
  878loPI   C3A14041   1.533   4.410   6.105  0.1487  0.0249  0.0247
  878loPI   C4A14042   1.641   4.089   6.422  0.7094  0.1220  0.1342
  878loPI   C5A14043   1.629   3.889   6.843 -0.4052 -0.2802  0.0460
  878loPI   C6A14044   1.615   3.912   7.251 -0.0259  0.5713 -0.0022
  878loPI   C1B14045   0.945   3.625   5.320 -0.3253 -0.1494 -0.0252
  878loPI   C2B14046   0.795   3.448   5.760 -0.0362 -0.1931 -0.1371
  878loPI   C3B14047   0.594   3.687   6.130  0.0721 -0.1011  0.0594
  878loPI   C4B14048   0.333   3.792   6.448 -0.3616 -0.0172 -0.0056
  879loPI    C114049   0.086   6.654   4.611 -0.0201 -0.1216 -0.1855
  879loPI    C214050   0.148   6.395   4.313 -0.1929 -0.0996 -0.2416
  879loPI    C314051   0.038   6.771   4.231 -0.2099 -0.0847 -0.1512
  879loPI   PO414052   0.180   6.627   4.788  0.0637  0.0028 -0.0773
  879loPI   GL114053   0.102   6.615   5.252  0.0312 -0.0111 -0.1545
  879loPI   GL214054   0.424   6.655   5.317  0.1133 -0.2708 -0.0832
  879loPI   C1A14055  -0.123   6.884   5.379  0.3571  0.1423  0.4370
  879loPI   C2A14056  -0.316   7.166   5.713  0.0678 -0.0155 -0.0853
  879loPI   C3A14057  -0.181   7.251   6.089 -0.3151  0.1512  0.0857
  879loPI   C4A14058  -0.016   7.072   6.487 -0.2103  0.2170 -0.2942
  879loPI   C5A14059  -0.027   6.897   6.853 -0.0038  0.1915 -0.2415
  879loPI   C6A14060   0.166   7.115   7.122  0.1594  0.0199 -0.0367
  879loPI   C1B14061   0.415   6.553   5.667  0.4076  0.1114  0.2479
  879loPI   C2B14062   0.720   6.571   6.015 -0.0489  0.0285 -0.3071
  879loPI   C3B14063   0.855   6.441   6.442 -0.1844  0.2459 -0.0653
  879loPI   C4B14064   0.761   6.273   6.829  0.1698  0.1647 -0.2786
  880loPI    C114065  12.941   6.551   4.381  0.0314 -0.1360 -0.0090
  880loPI    C214066  13.202   6.797   4.205  0.0730 -0.0876  0.1190
  880loPI    C314067  12.869   6.688   4.012  0.0409  0.0909  0.0719
  880loPI   PO414068  12.878   6.643   4.635  0.1225  0.2317 -0.0061
  880loPI   GL114069  12.670   6.302   5.007  0.1728 -0.1010  0.3898
  880loPI   GL214070  12.623   6.595   5.090  0.1064  0.0997 -0.0036
  880loPI   C1A14071  12.698   6.332   5.492 -0.0420 -0.0874 -0.3059
  880loPI   C2A14072  12.739   6.321   5.841 -0.0690  0.0171 -0.2392
  880loPI   C3A14073  12.894   6.210   6.225  0.2716 -0.1440 -0.1622
  880loPI   C4A14074  13.009   6.216   6.653 -0.2727  0.0959  0.0525
  880loPI   C5A14075  12.813   5.987   6.957  0.1833  0.2018  0.1603
  880loPI   C6A14076  12.575   5.706   7.288 -0.1195 -0.0616  0.2111
  880loPI   C1B14077  12.786   6.847   5.484  0.4428  0.0827  0.1428
  880loPI   C2B14078  12.915   6.770   5.931 -0.2696 -0.2067 -0.2506
  880loPI   C3B14079  13.107   7.084   6.210 -0.0023  0.4281 -0.3108
  880loPI   C4B14080  13.011   7.279   6.609  0.2884  0.0658  0.4109
  881loPI    C114081   3.404  10.525   4.531 -0.0380  0.1294  0.1648
  881loPI    C214082   3.409  10.629   4.145  0.1378  0.3520  0.2253
  881loPI    C314083   3.082  10.695   4.366 -0.0843 -0.0788  0.0369
  881loPI   PO414084   3.624  10.546   4.656  0.0888 -0.1528 -0.0075
  881loPI   GL114085   3.783  10.431   5.022  0.2706  0.0549  0.0077
  881loPI   GL214086   3.991  10.506   5.110 -0.0820 -0.0464 -0.1114
  881loPI   C1A14087   3.688  10.574   5.468  0.1631  0.0585 -0.1945
  881loPI   C2A14088   3.712  10.515   5.894 -0.1987 -0.0939 -0.4669
  881loPI   C3A14089   3.684  10.505   6.354  0.0228 -0.0028  0.1547
  881loPI   C4A14090   3.918  10.550   6.721  0.4700  0.2277 -0.0704
  881loPI   C5A14091   4.089  10.469   7.130  0.1242 -0.0048 -0.0847
  881loPI   C6A14092   4.108  10.795   7.372  0.0623 -0.0828 -0.1775
  881loPI   C1B14093   4.183  10.456   5.465 -0.1854 -0.0358  0.2445
  881loPI   C2B14094   4.236  10.312   5.917  0.2696  0.1798 -0.0451
  881loPI   C3B14095   4.189  10.214   6.322 -0.0912 -0.0379  0.1915
  881loPI   C4B14096   4.354  10.083   6.667 -0.0132 -0.4301  0.0458
  882loPI    C114097   8.949  15.322   4.848 -0.0935  0.0258 -0.2435
  882loPI    C214098   8.978  14.988   4.630 -0.0434 -0.0418 -0.1339
  882loPI    C314099   9.301  15.215   4.690 -0.0639 -0.0067 -0.1559
  882loPI   PO414100   8.874  15.291   5.029 -0.0105 -0.3024  0.1739
  882loPI   GL114101   8.983  15.316   5.504 -0.0820 -0.0163  0.2854
  882loPI   GL214102   9.149  15.018   5.642 -0.0606  0.1659 -0.1297
  882loPI   C1A14103   8.778  15.475   5.939  0.1026  0.2383 -0.1738
  882loPI   C2A14104   8.476  15.194   6.194 -0.2491  0.1426  0.2674
  882loPI   C3A14105   8.575  14.819   6.485 -0.0989 -0.0845  0.0139
  882loPI   C4A14106   8.721  14.833   6.809  0.0739 -0.2342  0.0162
  882loPI   C5A14107   8.503  14.677   7.155 -0.4150  0.2393 -0.0939
  882loPI   C6A14108   8.219  14.740   7.466 -0.1893 -0.0896 -0.2141
  882loPI   C1B14109   8.640  15.097   5.690 -0.0548 -0.0579 -0.1348
  882loPI   C2B14110   8.198  15.043   5.822  0.2506  0.0996 -0.1617
  882loPI   C3B14111   8.022  15.366   6.151  0.1120  0.0903  0.1280
  882loPI   C4B14112   7.853  15.603   6.454  0.1002  0.0128  0.0497
  883loPI    C114113  10.932   4.732   4.272  0.0774  0.1613  0.0255
  883loPI    C214114  10.946   4.674   3.876  0.1560  0.1050  0.0364
  883loPI    C314115  10.905   4.362   4.123  0.0751  0.1429  0.0713
  883loPI   PO414116  11.131   4.897   4.325 -0.0828 -0.1634 -0.2589
  883loPI   GL114117  11.237   4.966   4.668 -0.0283  0.1474 -0.0913
  883loPI   GL214118  10.930   4.742   4.761  0.1639 -0.1806 -0.1553
  883loPI   C1A14119  11.326   4.712   5.125  0.1989  0.3077  0.1853
  883loPI   C2A14120  11.186   4.774   5.432 -0.0471 -0.1644  0.2576
  883loPI   C3A14121  10.938   5.022   5.620 -0.0789  0.2411 -0.1073
  883loPI   C4A14122  10.809   5.391   5.831 -0.0281  0.1607 -0.0503
  883loPI   C5A14123  10.763   5.787   6.116 -0.1368  0.2510  0.1254
  883loPI   C6A14124  10.674   6.163   6.103  0.0114 -0.3407  0.2229
  883loPI   C1B14125  10.981   5.155   5.115  0.2338  0.3275 -0.2954
  883loPI   C2B14126  11.059   5.502   5.396  0.0176  0.0545  0.1806
  883loPI   C3B14127  11.145   5.760   5.750  0.1314  0.4372  0.0747
  883loPI   C4B14128  11.227   5.802   6.205  0.3866 -0.1997  0.1095
  884loPI    C114129   5.450  13.691   4.550 -0.1181 -0.0736 -0.2019
  884loPI    C214130   5.329  13.997   4.777  0.0888 -0.0747 -0.0875
  884loPI    C314131   5.436  14.060   4.396 -0.0593 -0.0384 -0.1237
  884loPI   PO414132   5.212  13.569   4.602  0.0220  0.2516 -0.0410
  884loPI   GL114133   5.075  13.168   4.826 -0.0275  0.2482 -0.0521
  884loPI   GL214134   5.060  13.493   5.059  0.0594 -0.0746 -0.0984
  884loPI   C1A14135   5.087  12.878   4.990 -0.0478  0.1353  0.1050
  884loPI   C2A14136   5.127  12.905   5.449 -0.3900  0.1392  0.1044
  884loPI   C3A14137   5.084  13.054   5.887 -0.0713 -0.1096  0.3460
  884loPI   C4A14138   5.042  13.178   6.299 -0.2288 -0.1637  0.0981
  884loPI   C5A14139   4.745  13.056   6.606 -0.0401 -0.2908  0.2988
  884loPI   C6A14140   4.702  12.617   6.580  0.0579 -0.0658 -0.0649
  884loPI   C1B14141   4.999  13.470   5.583 -0.0833  0.1856  0.0183
  884loPI   C2B14142   4.930  13.553   5.965  0.0957 -0.1685 -0.2379
  884loPI   C3B14143   4.586  13.913   6.024  0.1148 -0.2510  0.2879
  884loPI   C4B14144   4.161  13.759   6.077  0.1311  0.2638  0.2636
  885loPI    C114145  18.343   4.373   4.625  0.0617 -0.0536  0.1066
  885loPI    C214146  18.595   4.089   4.500 -0.2055 -0.2038 -0.1025
  885loPI    C314147  18.375   4.293   4.235  0.0083  0.2287  0.0417
  885loPI   PO414148  18.468   4.495   4.756  0.1052  0.1579  0.1542
  885loPI   GL114149  18.509   4.773   5.160 -0.1015 -0.1170 -0.0167
  885loPI   GL214150  18.861   4.588   5.231  0.3106  0.0723  0.1949
  885loPI   C1A14151  18.616   4.960   5.623  0.0649 -0.0800 -0.2039
  885loPI   C2A14152  18.579   5.360   5.906 -0.3995 -0.2433 -0.0276
  885loPI   C3A14153  18.541   5.435   6.311 -0.3099 -0.1113  0.0957
  885loPI   C4A14154  18.635   5.336   6.632 -0.1704 -0.0115  0.1849
  885loPI   C5A14155  18.757   5.307   7.003 -0.1058  0.0502  0.4963
  885loPI   C6A14156  18.885   4.945   7.278  0.0003 -0.0822  0.1207
  885loPI   C1B14157  18.766   4.496   5.662  0.1678  0.1015  0.0907
  885loPI   C2B14158  18.576   4.686   6.012 -0.3465  0.0271  0.1829
  885loPI   C3B14159  18.544   4.847   6.481  0.3093 -0.1928  0.0236
  885loPI   C4B14160  18.413   4.891   6.895 -0.2069  0.1225 -0.0680
  886loPI    C114161   5.221   3.091   4.038 -0.0540  0.1019  0.0197
  886loPI    C214162   5.105   3.359   3.765  0.2549  0.3724  0.1477
  886loPI    C314163   5.265   3.012   3.648 -0.0458  0.2856 -0.0178
  886loPI   PO414164   5.073   3.207   4.276 -0.1416 -0.1186 -0.0099
  886loPI   GL114165   5.302   3.169   4.680 -0.0064 -0.1157 -0.0338
  886loPI   GL214166   5.099   3.060   4.721 -0.0263  0.2093  0.2657
  886loPI   C1A14167   5.348   3.391   5.061  0.1791  0.4799 -0.1539
  886loPI   C2A14168   5.390   3.162   5.462  0.1375  0.1011  0.2492
  886loPI   C3A14169   5.450   2.942   5.940 -0.0841 -0.1385 -0.1165
  886loPI   C4A14170   5.314   2.696   6.215  0.2645 -0.1241  0.1890
  886loPI   C5A14171   5.037   2.411   6.427  0.1108  0.0131 -0.1470
  886loPI   C6A14172   4.968   2.011   6.539 -0.1128 -0.1583  0.2835
  886loPI   C1B14173   5.179   2.843   5.102 -0.0279 -0.0839  0.0237
  886loPI   C2B14174   5.193   2.656   5.587  0.0456  0.2888 -0.0370
  886loPI   C3B14175   5.049   2.343   5.779  0.1568  0.2487  0.0393
  886loPI   C4B14176   4.835   2.099   6.030  0.1557  0.1293 -0.0758
  887loPI    C114177  18.623  14.435   4.416  0.2026 -0.0217  0.1241
  887loPI    C214178  18.469  14.612   4.092 -0.1440 -0.2000  0.1865
  887loPI    C314179  18.688  14.279   4.053 -0.0354 -0.1218  0.1226
  887loPI   PO414180  18.616  14.615   4.608  0.0436  0.1923 -0.1188
  887loPI   GL114181  18.504  14.582   5.070 -0.1879 -0.1319  0.0193
  887loPI   GL214182  18.513  14.429   5.324  0.1329  0.0343 -0.0803
  887loPI   C1A14183  18.662  14.854   5.447 -0.4750 -0.1133 -0.0627
  887loPI   C2A14184  18.722  15.061   5.964  0.0547 -0.0095  0.0006
  887loPI   C3A14185  18.670  14.953   6.370  0.1849 -0.3388 -0.1646
  887loPI   C4A14186  18.828  14.661   6.634  0.1379  0.0137 -0.0956
  887loPI   C5A14187  18.856  14.137   6.820 -0.0868 -0.1804 -0.1286
  887loPI   C6A14188  19.095  13.838   7.114  0.0251  0.1124  0.0966
  887loPI   C1B14189  18.551  14.516   5.750 -0.0042 -0.0825  0.1018
  887loPI   C2B14190  18.848  14.507   6.080 -0.1560 -0.3740  0.1039
  887loPI   C3B14191  19.192  14.205   6.273  0.1882  0.0913  0.0272
  887loPI   C4B14192  19.249  13.881   6.596 -0.4723 -0.4903 -0.0577
  888loPI    C114193  18.686   2.288   4.205  0.1588  0.3048  0.1716
  888loPI    C214194  18.342   2.418   4.048  0.2335  0.0889 -0.1816
  888loPI    C314195  18.615   2.680   4.175  0.0875  0.2659 -0.2290
  888loPI   PO414196  18.625   2.109   4.367 -0.2208 -0.1166 -0.3512
  888loPI   GL114197  18.856   1.817   4.578  0.1313 -0.1478  0.1241
  888loPI   GL214198  19.097   1.987   4.593  0.3981  0.3682  0.1885
  888loPI   C1A14199  18.882   1.621   4.872 -0.0550 -0.0314 -0.3271
  888loPI   C2A14200  19.160   1.540   5.321 -0.0107  0.3715 -0.1022
  888loPI   C3A14201  19.406   1.617   5.716  0.0115  0.1338 -0.0159
  888loPI   C4A14202  19.588   1.791   6.099 -0.2354  0.0842  0.1025
  888loPI   C5A14203  19.963   2.005   6.330 -0.0053  0.0248  0.2263
  888loPI   C6A14204  20.282   1.923   6.655 -0.0603  0.2467  0.3406
  888loPI   C1B14205  19.022   2.121   4.980 -0.0345  0.2270  0.1775
  888loPI   C2B14206  18.866   1.917   5.354  0.0159  0.2590 -0.0910
  888loPI   C3B14207  18.955   1.816   5.829 -0.0247  0.1398 -0.2559
  888loPI   C4B14208  18.861   1.832   6.185 -0.1654  0.0651  0.1255
  889loPI    C114209   7.508  14.629   4.673  0.1163 -0.1732  0.2522
  889loPI    C214210   7.764  14.742   4.387 -0.1093  0.1115  0.1577
  889loPI    C314211   7.528  14.424   4.330  0.0426  0.0004  0.1427
  889loPI   PO414212   7.622  14.709   4.879 -0.0181  0.2824  0.3368
  889loPI   GL114213   7.679  14.630   5.267 -0.1254  0.1740  0.1848
  889loPI   GL214214   8.065  14.451   5.237  0.0022 -0.3171 -0.3495
  889loPI   C1A14215   7.350  14.491   5.547  0.1090 -0.0222 -0.1004
  889loPI   C2A14216   7.133  14.387   5.976  0.1843 -0.0579 -0.0016
  889loPI   C3A14217   6.858  14.645   6.290 -0.3095  0.1145  0.2543
  889loPI   C4A14218   6.719  14.933   6.608  0.1722  0.0685  0.1090
  889loPI   C5A14219   6.453  15.092   6.994 -0.2663 -0.1598  0.0351
  889loPI   C6A14220   6.183  14.957   7.328  0.2147  0.1225 -0.2089
  889loPI   C1B14221   8.367  14.605   5.539 -0.1473 -0.0582  0.0717
  889loPI   C2B14222   8.369  14.639   6.037  0.1488 -0.1442 -0.3520
  889loPI   C3B14223   8.607  14.324   6.264 -0.1114  0.1756 -0.0495
  889loPI   C4B14224   8.790  14.171   6.600  0.1088 -0.1037  0.1599
  890loPI    C114225   6.218  16.473   4.284  0.0385  0.0756 -0.0253
  890loPI    C214226   6.608  16.557   4.252  0.0720 -0.0255  0.1070
  890loPI    C314227   6.401  16.442   3.930  0.1422  0.0647  0.0289
  890loPI   PO414228   6.264  16.364   4.578 -0.0989  0.1054 -0.0368
  890loPI   GL114229   6.212  16.218   5.008 -0.0429 -0.0888 -0.2263
  890loPI   GL214230   6.363  16.397   5.195  0.0397 -0.2289 -0.0824
  890loPI   C1A14231   6.144  16.071   5.423 -0.0315  0.0277 -0.1620
  890loPI   C2A14232   6.047  16.171   5.813 -0.2922 -0.2154 -0.0743
  890loPI   C3A14233   6.100  16.528   6.105 -0.2586  0.3156  0.0360
  890loPI   C4A14234   5.992  16.782   6.497 -0.0161 -0.0841 -0.3867
  890loPI   C5A14235   5.762  17.133   6.681  0.0649 -0.2927 -0.1654
  890loPI   C6A14236   5.561  17.450   6.888  0.1128  0.4953  0.0367
  890loPI   C1B14237   6.511  16.540   5.554  0.2429 -0.0674 -0.0862
  890loPI   C2B14238   6.588  16.649   5.952  0.1465  0.1151  0.0417
  890loPI   C3B14239   6.551  16.464   6.354 -0.2154  0.1060 -0.1616
  890loPI   C4B14240   6.197  16.349   6.644  0.0352 -0.0482 -0.3281
  891loPI    C114241   6.628   8.016   4.673  0.0331  0.2431 -0.1857
  891loPI    C214242   6.511   8.016   4.290 -0.5425  0.1133 -0.0195
  891loPI    C314243   6.437   8.333   4.522 -0.6252  0.0025  0.1069
  891loPI   PO414244   6.663   7.679   4.679 -0.0736  0.0491 -0.0781
  891loPI   GL114245   6.602   7.443   5.084  0.1964 -0.3683  0.1512
  891loPI   GL214246   6.301   7.514   5.056 -0.0853  0.2517  0.1080
  891loPI   C1A14247   6.654   7.493   5.507 -0.2085  0.2739 -0.3394
  891loPI   C2A14248   6.520   7.562   5.912 -0.0719  0.0941  0.1104
  891loPI   C3A14249   6.417   7.647   6.350 -0.3644  0.0115 -0.0217
  891loPI   C4A14250   6.342   7.632   6.705 -0.1585 -0.3897 -0.0968
  891loPI   C5A14251   6.379   7.795   7.008  0.0046 -0.1809  0.1275
  891loPI   C6A14252   6.203   8.102   7.267  0.3900  0.1870  0.1292
  891loPI   C1B14253   6.199   7.433   5.482  0.2357  0.0385 -0.0886
  891loPI   C2B14254   6.060   7.519   5.923  0.2709 -0.1444  0.1476
  891loPI   C3B14255   5.958   7.469   6.413  0.0279 -0.1359 -0.0300
  891loPI   C4B14256   5.811   7.374   6.792 -0.3048 -0.0511  0.5192
  892loPI    C114257   9.303  13.331   4.626 -0.2365  0.1466  0.0578
  892loPI    C214258   9.035  13.340   4.330 -0.1807 -0.1971 -0.0080
  892loPI    C314259   9.423  13.289   4.247 -0.1080  0.1586  0.0966
  892loPI   PO414260   9.242  13.567   4.804 -0.1897  0.0386  0.2607
  892loPI   GL114261   9.411  13.873   5.088  0.1262  0.4669 -0.1192
  892loPI   GL214262   9.409  13.540   5.298 -0.2799  0.0675 -0.2626
  892loPI   C1A14263   9.488  13.959   5.505 -0.0076 -0.1117 -0.2218
  892loPI   C2A14264   9.518  14.088   5.889 -0.1992 -0.1225 -0.1964
  892loPI   C3A14265   9.604  13.936   6.220 -0.1359  0.0762  0.2288
  892loPI   C4A14266   9.591  14.224   6.555 -0.2681  0.3210  0.1759
  892loPI   C5A14267   9.267  14.244   6.841 -0.2207  0.0218 -0.0269
  892loPI   C6A14268   8.938  14.409   7.087  0.0513 -0.2830  0.2613
  892loPI   C1B14269   9.401  13.558   5.744  0.0399 -0.3964 -0.0640
  892loPI   C2B14270   9.268  13.444   6.229 -0.0685  0.0804 -0.4284
  892loPI   C3B14271   9.395  13.366   6.650  0.1246 -0.1268 -0.0427
  892loPI   C4B14272   9.056  13.424   6.990 -0.1228  0.0292  0.1111
  893loPI    C114273   5.710   7.474   4.012 -0.0343  0.0066 -0.0988
  893loPI    C214274   5.350   7.427   3.845 -0.0916 -0.3261  0.1083
  893loPI    C314275   5.615   7.128   3.836  0.1817 -0.0854 -0.0380
  893loPI   PO414276   5.747   7.599   4.236  0.0844  0.1568 -0.2219
  893loPI   GL114277   5.656   7.561   4.701 -0.0156 -0.2589  0.1521
  893loPI   GL214278   5.786   7.372   4.829  0.0334 -0.1873 -0.0954
  893loPI   C1A14279   5.682   7.637   5.253 -0.2634  0.0997  0.0233
  893loPI   C2A14280   5.554   7.675   5.653 -0.0488  0.1369 -0.3328
  893loPI   C3A14281   5.532   7.806   6.051  0.1921 -0.1786  0.0465
  893loPI   C4A14282   5.518   7.671   6.523 -0.1672  0.2918  0.1546
  893loPI   C5A14283   5.476   7.687   6.977  0.4748 -0.1711  0.2711
  893loPI   C6A14284   5.431   7.791   7.400 -0.0945  0.0688  0.0397
  893loPI   C1B14285   5.806   7.149   5.190  0.2536 -0.0139  0.1418
  893loPI   C2B14286   5.911   7.024   5.631 -0.1701 -0.1484 -0.0986
  893loPI   C3B14287   5.690   7.221   6.041  0.4665  0.0544 -0.2087
  893loPI   C4B14288   5.363   7.172   6.405  0.2513 -0.1978 -0.1961
  894loPI    C114289   5.453  10.654   4.669 -0.0275  0.1599 -0.1928
  894loPI    C214290   5.490  10.318   4.454 -0.0023  0.1408 -0.1588
  894loPI    C314291   5.555  10.674   4.282 -0.1144  0.1336 -0.2172
  894loPI   PO414292   5.550  10.578   4.889 -0.1620 -0.3619 -0.1299
  894loPI   GL114293   5.909  10.337   5.275 -0.0856  0.2302  0.0383
  894loPI   GL214294   5.650  10.552   5.389 -0.0362 -0.2851  0.0819
  894loPI   C1A14295   6.060  10.326   5.749  0.0559  0.0481  0.0113
  894loPI   C2A14296   6.379  10.371   6.170  0.1620 -0.3654 -0.0313
  894loPI   C3A14297   6.484  10.298   6.605 -0.0262 -0.0293  0.0538
  894loPI   C4A14298   6.509  10.291   7.048  0.0507  0.1778 -0.2774
  894loPI   C5A14299   6.416  10.070   7.409  0.1293  0.0456 -0.0456
  894loPI   C6A14300   6.605   9.926   7.801 -0.1719 -0.1200  0.0907
  894loPI   C1B14301   5.611  10.594   5.858 -0.1206  0.0930 -0.0964
  894loPI   C2B14302   5.503  10.597   6.253  0.0488  0.1364  0.3441
  894loPI   C3B14303   5.351  10.413   6.593 -0.1220  0.0326  0.1814
  894loPI   C4B14304   5.106  10.034   6.883  0.1201  0.4488  0.0013
  895loPI    C114305  17.718  13.097   4.716 -0.2583 -0.3703  0.1347
  895loPI    C214306  17.826  13.174   4.338 -0.0000 -0.3060  0.2196
  895loPI    C314307  17.588  12.863   4.419 -0.2271 -0.1974 -0.0169
  895loPI   PO414308  17.859  13.133   4.844 -0.0777  0.1469 -0.4084
  895loPI   GL114309  17.807  13.192   5.278 -0.1265 -0.3937 -0.1781
  895loPI   GL214310  17.920  13.465   5.435  0.1807 -0.4270 -0.1016
  895loPI   C1A14311  17.853  13.132   5.772  0.0325 -0.1136  0.7585
  895loPI   C2A14312  17.969  13.118   6.165 -0.2388 -0.0753 -0.0352
  895loPI   C3A14313  18.296  13.176   6.429 -0.2671 -0.1685  0.2867
  895loPI   C4A14314  18.444  13.371   6.828 -0.0025 -0.1780 -0.1847
  895loPI   C5A14315  18.727  13.511   7.123 -0.0811  0.1721 -0.1521
  895loPI   C6A14316  18.790  13.711   7.536  0.0646  0.2495  0.1122
  895loPI   C1B14317  17.813  13.753   5.862 -0.2739  0.0278 -0.0143
  895loPI   C2B14318  17.520  13.812   6.006 -0.1508  0.0655  0.1008
  895loPI   C3B14319  17.397  13.761   6.400  0.2456  0.2601  0.2018
  895loPI   C4B14320  17.352  13.721   6.835  0.0386 -0.0110 -0.1843
  896loPI    C114321   5.992  13.044   4.697 -0.1316 -0.0578  0.1407
  896loPI    C214322   6.141  13.146   4.341 -0.1619 -0.0383  0.1336
  896loPI    C314323   6.173  12.769   4.469 -0.1370 -0.0419  0.1172
  896loPI   PO414324   6.135  13.187   4.872  0.3284  0.1290 -0.1760
  896loPI   GL114325   6.257  13.321   5.251  0.0903 -0.4916 -0.3526
  896loPI   GL214326   5.919  13.434   5.278 -0.0243  0.1609 -0.0931
  896loPI   C1A14327   6.135  13.380   5.815 -0.1549  0.4319 -0.1832
  896loPI   C2A14328   5.968  13.327   6.178 -0.0632 -0.0721 -0.0632
  896loPI   C3A14329   5.944  13.284   6.594 -0.0380 -0.2368  0.2716
  896loPI   C4A14330   6.155  13.140   6.922  0.0043  0.2529 -0.1139
  896loPI   C5A14331   6.462  13.218   7.220 -0.0026 -0.0023  0.2542
  896loPI   C6A14332   6.758  13.510   7.341  0.1488  0.2490  0.4370
  896loPI   C1B14333   5.817  13.648   5.567 -0.0295 -0.0863 -0.0954
  896loPI   C2B14334   6.181  13.849   5.789 -0.1037  0.3353  0.1450
  896loPI   C3B14335   6.337  13.847   6.169 -0.0678 -0.3787 -0.1636
  896loPI   C4B14336   6.439  13.965   6.533  0.0352  0.3976 -0.1049
  897loPI    C114337  18.258   5.078   4.445 -0.0148  0.0495  0.0108
  897loPI    C214338  18.477   4.802   4.255 -0.3350 -0.2224  0.0289
  897loPI    C314339  18.185   4.995   4.061 -0.2681 -0.0663  0.0820
  897loPI   PO414340  18.214   4.926   4.733  0.0608  0.2158  0.1174
  897loPI   GL114341  18.071   4.593   5.021 -0.1253 -0.4837 -0.1270
  897loPI   GL214342  18.203   4.366   5.191  0.0163 -0.0090 -0.3436
  897loPI   C1A14343  17.834   4.870   5.228  0.0887 -0.0520  0.1586
  897loPI   C2A14344  17.664   4.741   5.655 -0.1055  0.0330 -0.2099
  897loPI   C3A14345  17.706   4.962   5.993  0.1339  0.1565 -0.0927
  897loPI   C4A14346  17.669   5.176   6.267 -0.0969  0.0919 -0.1254
  897loPI   C5A14347  17.315   5.243   6.556  0.1267 -0.0780  0.1064
  897loPI   C6A14348  17.320   5.381   6.958 -0.0419 -0.1576  0.2253
  897loPI   C1B14349  18.287   4.429   5.566 -0.0191  0.1823  0.1915
  897loPI   C2B14350  18.093   4.550   5.952  0.0237 -0.0158  0.2875
  897loPI   C3B14351  17.924   4.600   6.347  0.1110  0.2147  0.3066
  897loPI   C4B14352  18.038   4.622   6.756 -0.1178 -0.0149 -0.0103
  898loPI    C114353  10.429   9.706   4.928  0.0781 -0.1450 -0.0120
  898loPI    C214354  10.299   9.804   4.563 -0.1484 -0.0688  0.0877
  898loPI    C314355  10.691   9.812   4.645 -0.1233  0.2661 -0.0503
  898loPI   PO414356  10.250   9.774   5.095 -0.0818  0.3205  0.2546
  898loPI   GL114357  10.011   9.609   5.454  0.3772 -0.1534 -0.2374
  898loPI   GL214358   9.628   9.561   5.320 -0.1306 -0.0992  0.8100
  898loPI   C1A14359  10.241   9.663   5.865  0.2745  0.0717 -0.1201
  898loPI   C2A14360  10.254   9.471   6.240  0.1956 -0.1645 -0.1773
  898loPI   C3A14361  10.433   9.207   6.540 -0.0980 -0.1146  0.0317
  898loPI   C4A14362  10.660   9.233   6.957 -0.2361  0.2129  0.0116
  898loPI   C5A14363  10.556   9.106   7.371 -0.0603  0.0686 -0.0142
  898loPI   C6A14364  10.384   9.152   7.766 -0.0475  0.2216  0.0185
  898loPI   C1B14365   9.572   9.616   5.869 -0.0816  0.0828  0.0125
  898loPI   C2B14366   9.499   9.545   6.367  0.4270 -0.0499  0.2319
  898loPI   C3B14367   9.530   9.636   6.757 -0.2195  0.0204  0.1488
  898loPI   C4B14368   9.661   9.649   7.257 -0.2269 -0.2449  0.0658
  899loPI    C114369   9.347   7.673   4.743 -0.2879 -0.0438  0.1643
  899loPI    C214370   9.618   7.519   4.493 -0.2113  0.0788  0.1710
  899loPI    C314371   9.239   7.392   4.480 -0.1663 -0.0522  0.1229
  899loPI   PO414372   9.456   7.642   4.982 -0.6609 -0.3337 -0.0021
  899loPI   GL114373   9.433   7.259   5.276 -0.0161 -0.0301 -0.0848
  899loPI   GL214374   9.718   7.201   5.354 -0.1439 -0.1821  0.0128
  899loPI   C1A14375   9.151   7.239   5.640  0.0386 -0.0251 -0.2522
  899loPI   C2A14376   9.081   7.047   6.061 -0.2238  0.0417  0.3246
  899loPI   C3A14377   9.275   6.782   6.357 -0.1441  0.0311 -0.2839
  899loPI   C4A14378   9.154   6.460   6.583  0.1937 -0.1332  0.1521
  899loPI   C5A14379   9.079   6.473   6.939  0.2881 -0.0438  0.4513
  899loPI   C6A14380   8.655   6.545   7.150  0.0818  0.0147  0.1266
  899loPI   C1B14381   9.683   7.391   5.696  0.0748 -0.0551 -0.1817
  899loPI   C2B14382   9.858   7.351   6.008 -0.1459 -0.0585 -0.1095
  899loPI   C3B14383  10.077   7.465   6.392 -0.0048  0.0352 -0.0675
  899loPI   C4B14384  10.102   7.453   6.875  0.1052 -0.1518 -0.0927
  900loPI    C114385   8.625  18.146   4.274  0.0293  0.0490  0.1350
  900loPI    C214386   8.792  17.940   3.975 -0.2794 -0.2558  0.1662
  900loPI    C314387   8.951  18.288   4.091  0.1160 -0.3615 -0.0403
  900loPI   PO414388   8.652  18.056   4.510 -0.1170  0.1756  0.2259
  900loPI   GL114389   8.701  18.186   4.890  0.1779 -0.1987  0.2592
  900loPI   GL214390   8.812  18.577   5.016  0.1267  0.0078  0.4179
  900loPI   C1A14391   8.915  18.149   5.240  0.0831 -0.4552  0.0614
  900loPI   C2A14392   9.064  18.248   5.663  0.0045  0.0899  0.4279
  900loPI   C3A14393   9.282  18.588   5.941 -0.1561  0.0974  0.0337
  900loPI   C4A14394   9.240  18.708   6.290 -0.1096  0.1659 -0.0826
  900loPI   C5A14395   9.166  19.201   6.405  0.2027  0.2803 -0.1612
  900loPI   C6A14396   8.983  19.576   6.558  0.0196 -0.1355  0.1744
  900loPI   C1B14397   8.620  18.561   5.344 -0.0813  0.4075  0.0528
  900loPI   C2B14398   8.818  18.668   5.700 -0.0638  0.1791  0.1099
  900loPI   C3B14399   8.731  18.834   6.119  0.2038  0.3598 -0.1942
  900loPI   C4B14400   8.657  19.130   6.600  0.3384 -0.1938  0.2944
  901loPI    C114401   4.309   0.790   3.936  0.0711  0.1426 -0.2077
  901loPI    C214402   3.956   0.716   4.108  0.4062 -0.2937  0.3280
  901loPI    C314403   3.998   0.678   3.712 -0.1960 -0.0034  0.2246
  901loPI   PO414404   4.401   0.987   4.086  0.0617 -0.0699 -0.1514
  901loPI   GL114405   4.465   1.246   4.556  0.0107  0.0781  0.4872
  901loPI   GL214406   4.635   1.483   4.766  0.1653 -0.2164 -0.0082
  901loPI   C1A14407   4.246   1.214   4.991  0.3273  0.1323 -0.4261
  901loPI   C2A14408   4.173   0.959   5.386  0.0653 -0.0382  0.5110
  901loPI   C3A14409   4.262   0.689   5.661 -0.1737  0.0232 -0.4786
  901loPI   C4A14410   4.255   0.358   5.981  0.2791  0.0455 -0.1555
  901loPI   C5A14411   4.207   0.385   6.368  0.2191 -0.0221  0.1593
  901loPI   C6A14412   4.236   0.736   6.619  0.1720 -0.2588  0.0025
  901loPI   C1B14413   4.727   1.173   5.129 -0.1205  0.1396 -0.1022
  901loPI   C2B14414   4.987   1.036   5.421  0.3307  0.0828  0.2934
  901loPI   C3B14415   5.065   1.050   5.777 -0.2895  0.1593  0.2037
  901loPI   C4B14416   5.059   0.947   6.164 -0.2221  0.1230 -0.0286
  902loPI    C114417  10.971  12.114   4.628 -0.1737 -0.3206 -0.0596
  902loPI    C214418  10.904  12.502   4.558  0.0930 -0.2016  0.3081
  902loPI    C314419  11.142  12.293   4.314 -0.0988 -0.1528  0.0749
  902loPI   PO414420  10.927  12.126   4.907 -0.3687  0.1109  0.1348
  902loPI   GL114421  10.877  12.121   5.354  0.2345  0.0793  0.2237
  902loPI   GL214422  10.799  12.408   5.561 -0.0661  0.0263  0.0868
  902loPI   C1A14423  11.023  11.956   5.726  0.2596  0.3587  0.0086
  902loPI   C2A14424  11.036  11.717   6.097 -0.0819 -0.1276  0.0946
  902loPI   C3A14425  11.184  11.637   6.448 -0.0236 -0.1886 -0.1829
  902loPI   C4A14426  11.467  11.690   6.729  0.0914 -0.2902  0.1240
  902loPI   C5A14427  11.820  11.744   7.153  0.1791 -0.0176  0.0192
  902loPI   C6A14428  11.786  11.427   7.428  0.2604 -0.0983  0.0949
  902loPI   C1B14429  11.023  12.634   5.761  0.0167  0.0835 -0.0647
  902loPI   C2B14430  11.046  12.687   6.277 -0.0383 -0.2066 -0.1470
  902loPI   C3B14431  11.141  12.746   6.760 -0.0272 -0.1769 -0.0740
  902loPI   C4B14432  11.342  12.834   7.155  0.2449  0.0793 -0.1372
  903loPI    C114433   2.582   3.598   4.914 -0.0310  0.1955  0.0165
  903loPI    C214434   2.964   3.536   4.812 -0.0108  0.0845  0.1566
  903loPI    C314435   2.694   3.623   4.530  0.0781 -0.0423  0.0308
  903loPI   PO414436   2.591   3.694   5.110 -0.0724  0.0495 -0.2295
  903loPI   GL114437   2.779   3.598   5.533  0.1563 -0.2024  0.1630
  903loPI   GL214438   3.004   3.750   5.328  0.0591  0.2249  0.2758
  903loPI   C1A14439   2.798   3.235   5.739 -0.0084  0.0485  0.0575
  903loPI   C2A14440   2.712   3.091   6.103  0.2694 -0.1610 -0.0558
  903loPI   C3A14441   2.763   2.839   6.310 -0.2079 -0.1286 -0.0486
  903loPI   C4A14442   2.512   2.662   6.581  0.3692  0.2168  0.0087
  903loPI   C5A14443   2.479   2.246   6.767  0.0728 -0.2168 -0.2118
  903loPI   C6A14444   2.327   1.870   6.888 -0.3337  0.2240 -0.4166
  903loPI   C1B14445   3.099   3.979   5.662  0.3103 -0.2059 -0.2666
  903loPI   C2B14446   2.976   4.108   6.061  0.3129 -0.0282 -0.1586
  903loPI   C3B14447   3.066   4.097   6.499 -0.2176 -0.0287 -0.0453
  903loPI   C4B14448   3.004   3.831   6.863  0.0042  0.1187  0.0646
  904loPI    C114449   7.155  11.975   4.718  0.2600 -0.0847 -0.0413
  904loPI    C214450   7.016  12.350   4.698 -0.1923 -0.2318  0.1916
  904loPI    C314451   7.410  12.282   4.716 -0.0908  0.2135 -0.1771
  904loPI   PO414452   7.005  11.887   4.894  0.1330  0.3498  0.1451
  904loPI   GL114453   6.951  11.765   5.384 -0.0777 -0.0970  0.1507
  904loPI   GL214454   7.317  11.767   5.302 -0.0916  0.1312 -0.1191
  904loPI   C1A14455   6.711  11.739   5.605  0.0751 -0.0998  0.2241
  904loPI   C2A14456   6.683  11.450   6.016  0.0052 -0.0740 -0.3350
  904loPI   C3A14457   6.583  11.609   6.411  0.1314  0.3794  0.1666
  904loPI   C4A14458   6.628  11.926   6.699  0.1514  0.3203  0.0584
  904loPI   C5A14459   6.498  12.292   7.038  0.1110  0.0048  0.1611
  904loPI   C6A14460   6.727  12.205   7.523 -0.2957 -0.2400 -0.0538
  904loPI   C1B14461   7.298  12.071   5.606  0.1235  0.0332  0.0177
  904loPI   C2B14462   6.907  12.207   5.761  0.1070 -0.1518 -0.1635
  904loPI   C3B14463   6.478  12.195   5.594 -0.2187 -0.4662  0.0707
  904loPI   C4B14464   6.148  12.345   5.626  0.3642 -0.2969 -0.0410
  905loPI    C114465   7.393   7.247   4.913  0.0731  0.2953  0.2651
  905loPI    C214466   7.573   7.568   4.757  0.0956  0.1908  0.0727
  905loPI    C314467   7.259   7.405   4.571  0.0851  0.1006  0.1689
  905loPI   PO414468   7.403   7.334   5.181  0.1656  0.2074 -0.1738
  905loPI   GL114469   7.689   7.569   5.457  0.3883  0.0694 -0.3051
  905loPI   GL214470   7.747   7.799   5.723  0.2297  0.0343  0.1896
  905loPI   C1A14471   7.461   7.413   5.881 -0.0371  0.2099 -0.1437
  905loPI   C2A14472   7.324   7.347   6.240 -0.0292 -0.0639  0.0076
  905loPI   C3A14473   7.395   7.249   6.626 -0.2113 -0.0045 -0.1817
  905loPI   C4A14474   7.133   6.938   6.751  0.1045  0.0170 -0.0423
  905loPI   C5A14475   6.851   6.998   7.039  0.2825 -0.0123 -0.2727
  905loPI   C6A14476   6.932   7.211   7.502 -0.1945 -0.0420  0.0920
  905loPI   C1B14477   7.872   7.820   6.039 -0.1703  0.0028  0.0513
  905loPI   C2B14478   7.761   7.640   6.489 -0.2475  0.1857 -0.0205
  905loPI   C3B14479   7.422   7.735   6.793 -0.1221  0.0488  0.0891
  905loPI   C4B14480   7.102   7.848   7.122 -0.2594  0.1684 -0.0147
  906loPI    C114481   7.901  12.583   4.825 -0.2577 -0.1821 -0.0433
  906loPI    C214482   7.900  12.909   4.594 -0.3660 -0.2158 -0.0911
  906loPI    C314483   7.941  12.547   4.429  0.2885 -0.1990  0.0049
  906loPI   PO414484   7.655  12.614   4.958  0.0300 -0.0337 -0.5666
  906loPI   GL114485   7.670  12.863   5.326 -0.1207  0.4292 -0.0524
  906loPI   GL214486   7.483  12.581   5.428  0.0116 -0.1167 -0.0938
  906loPI   C1A14487   7.902  12.745   5.652  0.1360  0.2951  0.1001
  906loPI   C2A14488   8.149  12.798   6.018  0.0291 -0.1967  0.0357
  906loPI   C3A14489   8.207  12.641   6.431  0.3001  0.1550  0.2757
  906loPI   C4A14490   8.364  12.431   6.911 -0.0042  0.1185 -0.3023
  906loPI   C5A14491   8.520  12.173   7.237  0.0703 -0.0469  0.0182
  906loPI   C6A14492   8.729  12.324   7.677  0.0312 -0.1624  0.0824
  906loPI   C1B14493   7.378  12.480   5.832 -0.1705 -0.0440 -0.0660
  906loPI   C2B14494   7.352  12.219   6.183 -0.2342  0.1600 -0.0166
  906loPI   C3B14495   7.319  12.179   6.562  0.2684  0.0776  0.0486
  906loPI   C4B14496   7.558  11.999   6.851  0.0139 -0.3239  0.1362
  907loPI    C114497   5.693  16.270   4.904  0.1471  0.0709  0.0027
  907loPI    C214498   5.748  16.503   4.583  0.1514  0.1335  0.0489
  907loPI    C314499   5.747  16.105   4.543  0.0084  0.1433 -0.0521
  907loPI   PO414500   5.660  16.483   5.127  0.1447  0.1911  0.3167
  907loPI   GL114501   5.868  16.838   5.313 -0.3198 -0.1048 -0.4475
  907loPI   GL214502   6.042  16.590   5.484  0.1664 -0.2891  0.1694
  907loPI   C1A14503   5.876  17.178   5.706  0.1910  0.1378  0.0601
  907loPI   C2A14504   5.733  17.132   6.119 -0.2692 -0.0126  0.3732
  907loPI   C3A14505   5.321  17.166   6.301  0.0011  0.0163  0.2596
  907loPI   C4A14506   4.943  17.170   6.554  0.1240  0.0528 -0.2988
  907loPI   C5A14507   4.864  17.198   6.954 -0.0392  0.1894 -0.0221
  907loPI   C6A14508   4.866  16.782   7.262 -0.0135  0.0917  0.0481
  907loPI   C1B14509   5.759  16.728   5.777  0.0006  0.1064 -0.0756
  907loPI   C2B14510   5.543  16.708   6.205 -0.1981 -0.1398 -0.1825
  907loPI   C3B14511   5.544  16.603   6.631  0.1125  0.1682 -0.0122
  907loPI   C4B14512   5.841  16.638   6.978  0.1269  0.3148 -0.0495
  908loPI    C114513   8.628  17.470   4.013 -0.2661  0.0824  0.1408
  908loPI    C214514   8.613  17.097   4.154 -0.0496  0.1042  0.2252
  908loPI    C314515   8.794  17.171   3.805 -0.2087  0.1124  0.1434
  908loPI   PO414516   8.645  17.580   4.320  0.2259 -0.1712  0.1258
  908loPI   GL114517   8.524  17.545   4.828  0.0707  0.2467 -0.2592
  908loPI   GL214518   8.722  17.713   5.081  0.0312  0.1193 -0.1349
  908loPI   C1A14519   8.423  17.225   5.048 -0.0556  0.0285 -0.1254
  908loPI   C2A14520   8.286  17.144   5.428  0.1448 -0.1725 -0.0918
  908loPI   C3A14521   8.327  17.249   5.852 -0.1574  0.2817 -0.0116
  908loPI   C4A14522   8.360  17.252   6.327  0.1435 -0.0292  0.1980
  908loPI   C5A14523   8.498  17.155   6.705  0.0621 -0.4135 -0.2299
  908loPI   C6A14524   8.873  17.316   6.887 -0.0402 -0.0156 -0.0511
  908loPI   C1B14525   9.148  17.692   5.344 -0.3880 -0.3180 -0.0083
  908loPI   C2B14526   9.470  17.964   5.539 -0.1649  0.2170  0.1136
  908loPI   C3B14527   9.701  18.262   5.919  0.1947 -0.0184  0.2135
  908loPI   C4B14528   9.832  18.236   6.250 -0.0662  0.1507  0.1785
  909loPI    C114529   0.941   1.115   4.066  0.0017 -0.1874  0.0122
  909loPI    C214530   0.880   1.440   3.842  0.2119  0.0489  0.2895
  909loPI    C314531   1.151   1.168   3.730 -0.1290 -0.1555 -0.0648
  909loPI   PO414532   0.993   1.250   4.333 -0.1625  0.0816  0.0021
  909loPI   GL114533   0.878   1.140   4.782 -0.1206 -0.1985 -0.0901
  909loPI   GL214534   1.018   1.467   4.817  0.0003 -0.3122  0.0176
  909loPI   C1A14535   0.863   1.300   5.299  0.1521 -0.3058 -0.0029
  909loPI   C2A14536   0.839   1.343   5.731  0.0191 -0.2397 -0.0612
  909loPI   C3A14537   0.659   1.241   6.147 -0.2728 -0.1364  0.1841
  909loPI   C4A14538   0.685   1.448   6.558  0.0959 -0.0376  0.0592
  909loPI   C5A14539   1.035   1.457   6.813  0.1200  0.1205  0.0646
  909loPI   C6A14540   1.117   1.272   7.187 -0.1938  0.4452  0.0878
  909loPI   C1B14541   1.348   1.349   5.140 -0.3916 -0.0155 -0.0405
  909loPI   C2B14542   1.298   1.205   5.569  0.0315  0.0175 -0.0561
  909loPI   C3B14543   1.409   1.341   6.000  0.0665  0.0310  0.0052
  909loPI   C4B14544   1.180   1.474   6.331 -0.0460  0.0978 -0.1067
  910loPI    C114545  16.777  14.195   4.260  0.1248 -0.2365  0.0362
  910loPI    C214546  16.941  13.998   3.952  0.0590 -0.2506  0.0100
  910loPI    C314547  16.681  13.813   4.193 -0.0025 -0.1960 -0.0141
  910loPI   PO414548  16.944  14.384   4.313  0.1677 -0.0084  0.0843
  910loPI   GL114549  16.985  14.376   4.720 -0.1618  0.1954 -0.0663
  910loPI   GL214550  17.234  14.476   5.040  0.0934  0.3459 -0.1423
  910loPI   C1A14551  16.771  14.617   4.977  0.0716 -0.1041 -0.1464
  910loPI   C2A14552  16.646  14.707   5.424  0.0473  0.0348  0.1612
  910loPI   C3A14553  16.232  14.724   5.645  0.1864 -0.1083 -0.2691
  910loPI   C4A14554  16.124  14.717   6.037 -0.2550  0.2295 -0.0867
  910loPI   C5A14555  15.995  14.759   6.475 -0.2168  0.0331 -0.0284
  910loPI   C6A14556  15.932  14.684   6.926  0.1037  0.0906 -0.1343
  910loPI   C1B14557  17.085  14.361   5.455  0.2103  0.0909  0.1538
  910loPI   C2B14558  17.048  14.444   5.888  0.1248 -0.1647 -0.0939
  910loPI   C3B14559  16.636  14.561   5.911 -0.0518  0.1992 -0.2005
  910loPI   C4B14560  16.633  14.707   6.301 -0.0135  0.1363 -0.1770
  911loPI    C114561   2.175  19.389   4.253 -0.1393 -0.0434  0.1644
  911loPI    C214562   2.310  19.017   4.193  0.0055  0.0206  0.0901
  911loPI    C314563   2.260  19.265   3.882 -0.0195  0.0876  0.1474
  911loPI   PO414564   2.094  19.354   4.609  0.0700 -0.1595 -0.2231
  911loPI   GL114565   2.355  19.172   4.877 -0.0349 -0.0920  0.0495
  911loPI   GL214566   2.588  18.914   4.958  0.2227  0.1278 -0.3841
  911loPI   C1A14567   2.536  19.266   5.347 -0.0660  0.2360 -0.1635
  911loPI   C2A14568   2.735  19.389   5.709  0.3985  0.1294  0.1275
  911loPI   C3A14569   2.729  19.500   6.110  0.0964 -0.2881  0.0906
  911loPI   C4A14570   2.718  19.340   6.519 -0.2643  0.1353 -0.1851
  911loPI   C5A14571   3.047  19.258   6.820 -0.2296  0.0126 -0.0270
  911loPI   C6A14572   3.476  19.300   6.550  0.3846 -0.0066 -0.2164
  911loPI   C1B14573   2.605  18.779   5.434 -0.0540 -0.0909 -0.0673
  911loPI   C2B14574   2.568  18.452   5.784 -0.0986  0.3174  0.0745
  911loPI   C3B14575   2.414  18.525   6.207 -0.0230  0.2215 -0.1247
  911loPI   C4B14576   2.571  18.430   6.643 -0.0808  0.0655 -0.3488
  912loPI    C114577   1.050  14.190   4.497  0.0641  0.0025  0.3049
  912loPI    C214578   1.063  14.534   4.292  0.1380 -0.0698  0.1871
  912loPI    C314579   1.401  14.367   4.426  0.1036 -0.1040  0.2321
  912loPI   PO414580   0.968  14.203   4.658 -0.1381  0.1172  0.0346
  912loPI   GL114581   0.983  14.272   5.055  0.4859 -0.0626 -0.0728
  912loPI   GL214582   1.218  14.078   5.245 -0.1811  0.2238 -0.1179
  912loPI   C1A14583   0.894  14.323   5.582 -0.3415 -0.1086  0.1105
  912loPI   C2A14584   1.074  14.235   5.969 -0.1613  0.0530  0.1719
  912loPI   C3A14585   1.136  14.429   6.367 -0.2061 -0.1360 -0.3827
  912loPI   C4A14586   0.938  14.634   6.722  0.1124  0.1036  0.3164
  912loPI   C5A14587   0.937  14.849   7.030 -0.2516 -0.0956 -0.0782
  912loPI   C6A14588   0.916  15.081   7.424  0.0754  0.1656  0.1637
  912loPI   C1B14589   1.453  14.083   5.697  0.1123 -0.1064 -0.1676
  912loPI   C2B14590   1.726  14.039   6.105  0.2379  0.0133 -0.2128
  912loPI   C3B14591   1.932  14.052   6.525  0.0622  0.1725 -0.1278
  912loPI   C4B14592   2.083  13.857   6.853 -0.2304  0.0564 -0.1632
  913loPI    C114593   9.196   2.492   4.141 -0.0047 -0.2672  0.1077
  913loPI    C214594   9.593   2.468   4.104  0.0378  0.1645  0.2251
  913loPI    C314595   9.387   2.730   3.883 -0.1915 -0.0943  0.1259
  913loPI   PO414596   9.102   2.578   4.340  0.2010  0.0403 -0.0940
  913loPI   GL114597   8.957   2.689   4.669 -0.2042  0.1271 -0.4303
  913loPI   GL214598   8.653   2.817   4.860  0.1022  0.2677  0.0028
  913loPI   C1A14599   9.194   2.479   4.967 -0.1144 -0.0613 -0.1392
  913loPI   C2A14600   9.277   2.452   5.378 -0.1319 -0.1559  0.1389
  913loPI   C3A14601   9.392   2.523   5.813 -0.0290  0.1812  0.4338
  913loPI   C4A14602   9.502   2.348   6.236  0.3527  0.1768 -0.0188
  913loPI   C5A14603   9.679   2.222   6.671  0.0429 -0.0542  0.0704
  913loPI   C6A14604  10.152   2.331   6.945 -0.0220  0.0446 -0.1907
  913loPI   C1B14605   8.864   3.016   5.129 -0.0249  0.1261  0.2796
  913loPI   C2B14606   8.872   3.176   5.436  0.3006  0.0840  0.0405
  913loPI   C3B14607   8.762   3.296   5.835 -0.0452 -0.2826 -0.3246
  913loPI   C4B14608   8.745   3.136   6.257 -0.1010 -0.2204 -0.0336
  914loPI    C114609  18.514   5.509   4.550 -0.2722 -0.0980  0.1026
  914loPI    C214610  18.775   5.258   4.381 -0.0947 -0.0114  0.2442
  914loPI    C314611  18.490   5.429   4.159  0.1358  0.1031  0.0309
  914loPI   PO414612  18.541   5.367   4.842  0.0883 -0.0802  0.2177
  914loPI   GL114613  18.450   5.240   5.216  0.2165  0.3173 -0.1076
  914loPI   GL214614  18.207   5.200   5.240  0.1403  0.2791 -0.1061
  914loPI   C1A14615  18.673   5.595   5.452 -0.1863  0.0077 -0.2846
  914loPI   C2A14616  18.595   5.869   5.863  0.1298  0.0774  0.4814
  914loPI   C3A14617  18.470   5.923   6.331  0.1607  0.1040 -0.1798
  914loPI   C4A14618  18.280   6.019   6.704 -0.1315  0.0470  0.0637
  914loPI   C5A14619  18.355   6.164   7.118  0.1852  0.2054 -0.0689
  914loPI   C6A14620  18.265   6.468   7.417 -0.0553 -0.1277  0.1091
  914loPI   C1B14621  18.168   5.148   5.755 -0.0848  0.0421 -0.2833
  914loPI   C2B14622  18.188   4.984   6.166  0.1200  0.4370  0.0797
  914loPI   C3B14623  18.089   5.097   6.565 -0.2132  0.1743  0.0541
  914loPI   C4B14624  17.827   5.251   6.757  0.1630 -0.3391  0.0654
  915loPI    C114625   5.171  17.164   4.610  0.0089 -0.1091  0.0546
  915loPI    C214626   4.953  17.402   4.373  0.0271 -0.1048  0.0421
  915loPI    C314627   5.301  17.532   4.521 -0.1666  0.0360  0.3832
  915loPI   PO414628   5.042  17.045   4.754 -0.1403 -0.0044  0.1562
  915loPI   GL114629   4.660  16.929   4.994 -0.1740 -0.0654  0.0713
  915loPI   GL214630   4.738  16.727   5.145 -0.2029 -0.2194 -0.4402
  915loPI   C1A14631   4.437  17.181   5.379  0.1012 -0.0836  0.0398
  915loPI   C2A14632   4.453  17.580   5.644 -0.0008  0.0657 -0.1370
  915loPI   C3A14633   4.386  17.837   5.987 -0.0197 -0.2025  0.1154
  915loPI   C4A14634   4.290  18.119   6.345 -0.1784 -0.0359  0.1429
  915loPI   C5A14635   4.410  18.487   6.400 -0.2666  0.2411  0.2543
  915loPI   C6A14636   4.749  18.745   6.292 -0.0782  0.2288  0.0368
  915loPI   C1B14637   4.759  16.824   5.593  0.1528 -0.0182 -0.3418
  915loPI   C2B14638   4.784  17.017   6.016  0.1484  0.1668 -0.0284
  915loPI   C3B14639   4.624  16.792   6.435  0.0432  0.2284  0.0933
  915loPI   C4B14640   4.468  16.794   6.918 -0.1664  0.1618  0.0128
  916loPI    C114641   5.302  11.876   4.466 -0.3378  0.2021 -0.1250
  916loPI    C214642   5.349  11.679   4.121 -0.2883 -0.0102  0.0015
  916loPI    C314643   5.647  11.904   4.264 -0.1978 -0.1628  0.0555
  916loPI   PO414644   5.326  11.748   4.647  0.3017 -0.2383  0.0474
  916loPI   GL114645   5.512  11.532   5.050  0.4491 -0.0397 -0.2255
  916loPI   GL214646   5.677  11.781   5.224 -0.1067  0.0828 -0.0147
  916loPI   C1A14647   5.308  11.616   5.496 -0.0151  0.1876  0.0769
  916loPI   C2A14648   5.321  11.805   5.829 -0.1428 -0.3323 -0.2177
  916loPI   C3A14649   5.310  11.865   6.296 -0.0512  0.1497 -0.2968
  916loPI   C4A14650   5.375  11.930   6.758  0.1257  0.1390  0.1420
  916loPI   C5A14651   5.312  11.741   7.018 -0.0243 -0.0116  0.1919
  916loPI   C6A14652   5.615  11.347   7.125  0.1130 -0.1078  0.1940
  916loPI   C1B14653   5.606  12.117   5.588  0.0034 -0.3926  0.3216
  916loPI   C2B14654   5.751  12.322   5.936 -0.1231  0.0327 -0.2366
  916loPI   C3B14655   6.076  12.447   6.292  0.0116 -0.1335  0.3009
  916loPI   C4B14656   6.397  12.352   6.562 -0.5274  0.4119  0.0093
  917loPI    C114657   5.689  19.293   4.299  0.0003 -0.1390 -0.0669
  917loPI    C214658   5.747  19.576   4.022  0.1049 -0.1478 -0.0545
  917loPI    C314659   5.403  19.372   4.030 -0.0168  0.0562  0.0068
  917loPI   PO414660   5.857  19.408   4.492  0.1402 -0.3405  0.0290
  917loPI   GL114661   5.795  19.481   4.909  0.1847 -0.0175  0.0023
  917loPI   GL214662   5.843  19.825   4.839 -0.1251  0.1271  0.1183
  917loPI   C1A14663   5.929  19.394   5.316  0.1584  0.0938  0.1016
  917loPI   C2A14664   6.066  19.219   5.667  0.1350 -0.1191  0.0247
  917loPI   C3A14665   6.157  19.359   6.013 -0.1596  0.1663 -0.1812
  917loPI   C4A14666   6.364  19.458   6.451 -0.0527 -0.2366  0.0302
  917loPI   C5A14667   6.734  19.214   6.753  0.1823  0.1225 -0.1812
  917loPI   C6A14668   7.209  19.379   6.845 -0.0656 -0.0180  0.2495
  917loPI   C1B14669   6.002  19.865   5.275  0.0329 -0.1781 -0.1192
  917loPI   C2B14670   6.078  19.799   5.660 -0.2527 -0.0355 -0.0404
  917loPI   C3B14671   6.128  19.995   6.083  0.0396  0.1208  0.0721
  917loPI   C4B14672   6.365  20.029   6.422 -0.2924 -0.2481  0.0187
  918loPI    C114673  15.646   2.975   4.775  0.2266 -0.2062  0.1110
  918loPI    C214674  15.805   2.709   4.521 -0.0086 -0.2793  0.0379
  918loPI    C314675  15.419   2.683   4.623 -0.0145 -0.0125  0.0926
  918loPI   PO414676  15.752   3.216   4.655  0.1131 -0.1804  0.3744
  918loPI   GL114677  15.995   3.479   4.975 -0.2763 -0.0857 -0.0681
  918loPI   GL214678  15.821   3.236   5.189  0.0931 -0.1694  0.0277
  918loPI   C1A14679  15.798   3.787   5.213 -0.1036  0.0364 -0.1636
  918loPI   C2A14680  15.655   3.936   5.647  0.4440  0.1162 -0.1394
  918loPI   C3A14681  15.621   4.001   6.148 -0.1136  0.0446  0.0573
  918loPI   C4A14682  15.266   4.313   6.351  0.2891  0.1041  0.1613
  918loPI   C5A14683  15.015   4.582   6.464  0.1064  0.3672 -0.1845
  918loPI   C6A14684  14.776   4.723   6.947  0.0033 -0.0480 -0.1274
  918loPI   C1B14685  15.796   3.224   5.579 -0.2297 -0.2158  0.1098
  918loPI   C2B14686  15.531   3.364   5.937 -0.1123  0.2732 -0.3429
  918loPI   C3B14687  15.364   3.288   6.320  0.2958 -0.2957  0.1574
  918loPI   C4B14688  15.559   3.297   6.754 -0.0806 -0.0430 -0.0722
  919loPI    C114689  12.931  14.178   4.566 -0.0657 -0.2640 -0.1194
  919loPI    C214690  12.546  14.068   4.569 -0.0880 -0.1871 -0.1192
  919loPI    C314691  12.689  14.287   4.267 -0.1255  0.0672  0.0440
  919loPI   PO414692  13.000  14.220   4.860 -0.2015 -0.4963 -0.0234
  919loPI   GL114693  13.117  14.142   5.348  0.0719  0.1611  0.1070
  919loPI   GL214694  13.333  14.345   5.179 -0.0408  0.1662  0.0251
  919loPI   C1A14695  12.857  14.283   5.741 -0.1213 -0.1124  0.2972
  919loPI   C2A14696  12.896  14.448   6.090  0.1056 -0.2042 -0.0478
  919loPI   C3A14697  12.912  14.176   6.465 -0.0452 -0.3491  0.1917
  919loPI   C4A14698  13.033  14.410   6.758  0.0547  0.1970 -0.2708
  919loPI   C5A14699  12.936  14.793   6.948 -0.4040 -0.1908 -0.2011
  919loPI   C6A14700  12.943  15.190   7.119 -0.0706 -0.4018  0.1665
  919loPI   C1B14701  13.570  14.531   5.487 -0.1465 -0.0150  0.0290
  919loPI   C2B14702  13.935  14.557   5.860  0.3228 -0.0967  0.0894
  919loPI   C3B14703  13.828  14.597   6.293 -0.4005  0.0955 -0.1100
  919loPI   C4B14704  13.344  14.489   6.317  0.0307  0.3848  0.1668
  920loPI    C114705  14.474   2.580   4.276 -0.0127  0.0478  0.1263
  920loPI    C214706  14.158   2.590   4.031  0.0183 -0.1511  0.0766
  920loPI    C314707  14.525   2.658   3.887 -0.0079  0.1603  0.1489
  920loPI   PO414708  14.420   2.463   4.416 -0.0425 -0.1265 -0.0305
  920loPI   GL114709  14.096   2.474   4.795  0.2350 -0.2247  0.2615
  920loPI   GL214710  14.226   2.777   4.747 -0.0794 -0.3167 -0.1265
  920loPI   C1A14711  14.071   2.310   5.253  0.1407  0.3157  0.0956
  920loPI   C2A14712  13.863   2.457   5.691  0.1584 -0.2021  0.2846
  920loPI   C3A14713  13.672   2.849   5.975  0.3767  0.2655 -0.1395
  920loPI   C4A14714  13.283   2.872   6.234  0.4202  0.1208 -0.0001
  920loPI   C5A14715  13.189   3.209   6.596 -0.1976  0.3897  0.0224
  920loPI   C6A14716  13.139   3.191   7.016  0.0748  0.1454  0.1665
  920loPI   C1B14717  14.041   2.824   5.178  0.2909  0.2779  0.1016
  920loPI   C2B14718  14.027   3.071   5.592  0.0326  0.0257  0.2628
  920loPI   C3B14719  13.862   3.312   5.943 -0.0436 -0.5141 -0.0137
  920loPI   C4B14720  13.605   3.262   6.235  0.1343 -0.1091 -0.0754
  921loPI    C114721   8.203   9.934   4.503 -0.0984  0.0917 -0.0286
  921loPI    C214722   8.310  10.305   4.396 -0.1240  0.0492 -0.2045
  921loPI    C314723   8.445   9.990   4.190 -0.0212 -0.0467  0.0059
  921loPI   PO414724   8.210   9.965   4.719 -0.0409  0.2146 -0.0112
  921loPI   GL114725   8.362   9.872   5.108  0.1610  0.1576  0.0238
  921loPI   GL214726   8.102  10.093   5.259  0.1226 -0.3771 -0.0229
  921loPI   C1A14727   8.552   9.736   5.496 -0.1837 -0.2111  0.0355
  921loPI   C2A14728   8.676   9.878   5.957  0.1015 -0.4703  0.0763
  921loPI   C3A14729   8.525   9.929   6.373 -0.0554 -0.0477 -0.3906
  921loPI   C4A14730   8.518   9.817   6.752  0.2908  0.2447 -0.0427
  921loPI   C5A14731   8.655  10.068   7.217 -0.3147 -0.3040  0.1795
  921loPI   C6A14732   8.633  10.573   7.357  0.0296 -0.1523  0.0307
  921loPI   C1B14733   7.875  10.158   5.707  0.0330  0.0608  0.1747
  921loPI   C2B14734   7.793  10.152   6.094 -0.1483 -0.0052  0.1597
  921loPI   C3B14735   7.974  10.358   6.503  0.0384  0.1653  0.0134
  921loPI   C4B14736   7.901  10.623   6.808 -0.2463  0.1030  0.0129
  922loPI    C114737   9.520   9.289   4.737 -0.1327  0.0220 -0.2437
  922loPI    C214738   9.311   9.556   4.949  0.0798  0.0653 -0.0854
  922loPI    C314739   9.244   9.516   4.557 -0.3279 -0.0267 -0.0111
  922loPI   PO414740   9.598   9.170   4.892 -0.0470 -0.2568  0.1493
  922loPI   GL114741   9.374   9.148   5.333  0.0916  0.4223  0.0559
  922loPI   GL214742   9.135   8.990   5.370  0.0531  0.0233 -0.2356
  922loPI   C1A14743   9.382   9.210   5.730  0.0049 -0.1002 -0.0833
  922loPI   C2A14744   9.204   9.088   6.069  0.0211  0.1428  0.3844
  922loPI   C3A14745   8.968   9.031   6.413 -0.1091 -0.1391  0.0255
  922loPI   C4A14746   8.737   8.755   6.690 -0.1190 -0.2420  0.0767
  922loPI   C5A14747   8.589   8.601   7.090  0.1193  0.0816  0.1579
  922loPI   C6A14748   8.874   8.416   7.402 -0.0021 -0.2305  0.2523
  922loPI   C1B14749   9.053   8.711   5.662  0.3736 -0.0507 -0.0187
  922loPI   C2B14750   9.245   8.588   6.030 -0.0640  0.2896  0.3711
  922loPI   C3B14751   9.290   8.583   6.522  0.1039 -0.0346 -0.0110
  922loPI   C4B14752   9.246   8.751   6.961 -0.0363 -0.0436  0.0247
  923loPI    C114753  18.758   3.096   4.468 -0.1241 -0.0876 -0.0337
  923loPI    C214754  19.085   3.311   4.547 -0.1277 -0.1417  0.1321
  923loPI    C314755  19.028   3.161   4.181  0.0575 -0.1739  0.1151
  923loPI   PO414756  18.724   2.938   4.645  0.0101 -0.1164  0.1376
  923loPI   GL114757  18.791   2.760   5.098  0.1122 -0.3013 -0.2016
  923loPI   GL214758  19.058   2.798   4.973  0.1939 -0.1935 -0.1258
  923loPI   C1A14759  18.797   2.851   5.507  0.0216 -0.0182 -0.1967
  923loPI   C2A14760  18.913   2.934   5.855 -0.2800 -0.2539 -0.1060
  923loPI   C3A14761  18.953   3.016   6.353 -0.1051 -0.2325 -0.0931
  923loPI   C4A14762  18.581   3.211   6.601 -0.0031  0.2292 -0.0163
  923loPI   C5A14763  18.534   3.577   6.817  0.0681  0.0727 -0.1190
  923loPI   C6A14764  18.693   3.884   7.035 -0.3768  0.2123  0.0803
  923loPI   C1B14765  19.052   2.462   5.360  0.3494  0.3872 -0.1048
  923loPI   C2B14766  18.866   2.327   5.744 -0.1910 -0.0314 -0.1536
  923loPI   C3B14767  18.545   2.237   6.101  0.0245  0.2005 -0.2059
  923loPI   C4B14768  18.340   2.446   6.530  0.1595  0.4544  0.1063
  924loPI    C114769   8.098   9.395   4.530 -0.0427  0.1723 -0.0154
  924loPI    C214770   8.432   9.419   4.312 -0.0990  0.0846 -0.1121
  924loPI    C314771   8.096   9.595   4.183 -0.1203  0.0722 -0.0735
  924loPI   PO414772   8.175   9.404   4.764 -0.0197  0.0848 -0.3110
  924loPI   GL114773   8.146   9.302   5.100  0.3027 -0.0028  0.0973
  924loPI   GL214774   7.860   9.323   5.283  0.1981 -0.0672 -0.3914
  924loPI   C1A14775   8.230   9.203   5.547  0.1018  0.0903 -0.0959
  924loPI   C2A14776   8.425   9.380   5.904  0.3749 -0.1149 -0.0424
  924loPI   C3A14777   8.569   9.278   6.305 -0.0213 -0.2456  0.1736
  924loPI   C4A14778   8.663   9.256   6.779 -0.2595 -0.0887 -0.0575
  924loPI   C5A14779   8.872   8.971   7.143  0.1160  0.0372  0.1618
  924loPI   C6A14780   9.130   8.810   7.416 -0.2463  0.0083 -0.1866
  924loPI   C1B14781   8.020   9.715   5.556  0.0169  0.0668 -0.3640
  924loPI   C2B14782   8.181   9.846   5.919  0.4965  0.0861  0.0067
  924loPI   C3B14783   8.046   9.834   6.427  0.2792  0.0297 -0.0901
  924loPI   C4B14784   7.654   9.832   6.752  0.0129 -0.1424  0.0222
  925loPI    C114785  17.487  16.063   4.331 -0.2942 -0.1646 -0.1132
  925loPI    C214786  17.511  15.715   4.135  0.2142 -0.1199 -0.1450
  925loPI    C314787  17.632  16.052   3.958 -0.2588  0.0775 -0.1076
  925loPI   PO414788  17.469  16.018   4.562  0.0177 -0.0788 -0.1324
  925loPI   GL114789  17.561  15.867   4.988 -0.0709  0.3858  0.0190
  925loPI   GL214790  17.286  15.669   5.033 -0.1283  0.3512  0.0445
  925loPI   C1A14791  17.610  15.812   5.395  0.0024 -0.3201  0.1155
  925loPI   C2A14792  17.625  15.864   5.820 -0.1918  0.0322  0.0334
  925loPI   C3A14793  17.682  15.935   6.214  0.0342  0.0306 -0.1586
  925loPI   C4A14794  17.469  15.678   6.470 -0.2097  0.0357 -0.2305
  925loPI   C5A14795  17.468  15.422   6.796 -0.2639 -0.1972 -0.1825
  925loPI   C6A14796  17.064  15.306   7.041  0.1457  0.1471 -0.3423
  925loPI   C1B14797  16.896  15.520   5.307  0.0023  0.0022  0.1023
  925loPI   C2B14798  16.647  15.660   5.654 -0.1033 -0.1056 -0.0531
  925loPI   C3B14799  16.604  16.021   5.827  0.2238 -0.1706 -0.1767
  925loPI   C4B14800  16.579  16.439   6.107 -0.0327 -0.1782 -0.0547
  926loPI    C114801  19.536   7.314   4.753  0.0179  0.1893  0.0079
  926loPI    C214802  19.427   7.410   4.380  0.0560 -0.0450 -0.0655
  926loPI    C314803  19.447   7.026   4.490  0.1996  0.0171  0.1317
  926loPI   PO414804  19.417   7.495   4.863  0.0042 -0.0231  0.1587
  926loPI   GL114805  19.070   7.622   4.991  0.0282 -0.2024  0.0251
  926loPI   GL214806  19.069   7.925   5.042 -0.1308 -0.2812  0.2431
  926loPI   C1A14807  19.272   7.583   5.490  0.2066 -0.0122  0.0798
  926loPI   C2A14808  19.233   7.603   5.938  0.0073 -0.0049  0.3024
  926loPI   C3A14809  19.082   7.547   6.345  0.1818  0.1007  0.1066
  926loPI   C4A14810  18.940   7.740   6.743  0.0835 -0.4564 -0.0756
  926loPI   C5A14811  18.845   7.535   7.137 -0.0042 -0.1211 -0.0976
  926loPI   C6A14812  18.693   7.543   7.448  0.1893  0.1094 -0.3661
  926loPI   C1B14813  19.092   8.195   5.413 -0.0271 -0.2559 -0.0877
  926loPI   C2B14814  18.999   8.450   5.769 -0.4475 -0.0470  0.4099
  926loPI   C3B14815  18.707   8.420   6.067  0.1444  0.0079  0.2818
  926loPI   C4B14816  18.592   8.665   6.423  0.2378  0.2605 -0.0420
  927loPI    C114817   6.038   4.084   4.255  0.0242 -0.0828  0.1997
  927loPI    C214818   5.791   3.866   4.028 -0.0143  0.0090  0.1530
  927loPI    C314819   5.898   4.234   3.912  0.2234 -0.0672  0.1239
  927loPI   PO414820   5.919   3.978   4.524 -0.1941  0.1632  0.3068
  927loPI   GL114821   6.100   4.006   4.847 -0.0434 -0.0644  0.0461
  927loPI   GL214822   6.037   3.665   5.166 -0.0373 -0.4380  0.0148
  927loPI   C1A14823   6.217   4.214   5.253 -0.0459  0.2721 -0.0371
  927loPI   C2A14824   6.274   4.264   5.720  0.0392  0.0227 -0.0251
  927loPI   C3A14825   6.256   4.125   6.179  0.0554  0.0364  0.0518
  927loPI   C4A14826   6.291   4.091   6.705 -0.0934 -0.4630  0.3048
  927loPI   C5A14827   6.131   3.985   7.135 -0.1266  0.1920  0.1834
  927loPI   C6A14828   6.193   3.978   7.597  0.2362 -0.0600 -0.0299
  927loPI   C1B14829   6.026   3.595   5.651 -0.3363  0.0888  0.0451
  927loPI   C2B14830   5.955   3.710   5.927  0.3027  0.1024 -0.0643
  927loPI   C3B14831   5.759   3.735   6.334 -0.0273  0.0223 -0.0594
  927loPI   C4B14832   5.996   3.670   6.755 -0.0465  0.1125  0.0104
  928loPI    C114833  18.069   9.461   4.388  0.2467 -0.0385  0.1635
  928loPI    C214834  18.102   9.789   4.163  0.0613 -0.0438  0.1275
  928loPI    C314835  18.085   9.429   3.990 -0.0909 -0.0471  0.1473
  928loPI   PO414836  17.957   9.466   4.677  0.1380 -0.2632 -0.0393
  928loPI   GL114837  17.740   9.513   5.050  0.0063 -0.1154  0.0503
  928loPI   GL214838  17.953   9.107   5.037  0.3000 -0.1824 -0.0387
  928loPI   C1A14839  17.958   9.397   5.445 -0.1033 -0.0744  0.2687
  928loPI   C2A14840  17.911   9.261   5.918 -0.1827  0.4132  0.0189
  928loPI   C3A14841  18.104   9.370   6.387 -0.3005 -0.1250  0.0828
  928loPI   C4A14842  18.293   9.572   6.738 -0.2154 -0.2231  0.1123
  928loPI   C5A14843  18.451   9.921   6.978 -0.2254  0.2938  0.3303
  928loPI   C6A14844  18.648  10.280   7.241 -0.1500 -0.3601  0.3394
  928loPI   C1B14845  17.793   8.940   5.461  0.1344  0.1430 -0.0041
  928loPI   C2B14846  17.803   8.736   5.824 -0.1008 -0.0008  0.0864
  928loPI   C3B14847  17.655   8.510   6.179  0.2259  0.4071  0.0301
  928loPI   C4B14848  17.620   8.459   6.530 -0.1676  0.0526 -0.0016
  929loPI    C114849  15.790  15.725   4.025 -0.0084  0.1103  0.0915
  929loPI    C214850  16.032  15.453   3.859 -0.1304  0.0182  0.0625
  929loPI    C314851  15.706  15.576   3.663 -0.2437 -0.0472  0.2079
  929loPI   PO414852  15.914  15.843   4.246  0.2020 -0.2592 -0.0545
  929loPI   GL114853  16.155  15.813   4.672  0.1368  0.2184  0.0963
  929loPI   GL214854  16.050  16.115   4.894  0.1702  0.0122 -0.3555
  929loPI   C1A14855  15.799  15.631   4.958 -0.1111  0.0897 -0.0759
  929loPI   C2A14856  15.704  15.575   5.307  0.1546  0.0108 -0.0864
  929loPI   C3A14857  15.694  15.585   5.794 -0.2092  0.0921  0.0565
  929loPI   C4A14858  15.642  15.672   6.277  0.2312 -0.0559  0.3223
  929loPI   C5A14859  15.874  15.958   6.484  0.2485 -0.0679  0.1120
  929loPI   C6A14860  16.215  16.012   6.868  0.0024  0.0622 -0.0147
  929loPI   C1B14861  15.815  16.120   5.198 -0.0726  0.0480 -0.3434
  929loPI   C2B14862  15.811  16.125   5.610  0.0596 -0.1451 -0.2286
  929loPI   C3B14863  15.649  16.102   6.018 -0.3839  0.2146  0.3712
  929loPI   C4B14864  15.407  16.117   6.351  0.0795 -0.1589 -0.0745
  930loPI    C114865   9.633  10.070   4.460  0.0059 -0.1991 -0.0598
  930loPI    C214866   9.297   9.918   4.305 -0.1442  0.2651 -0.2083
  930loPI    C314867   9.572  10.082   4.065  0.1004  0.0677 -0.0687
  930loPI   PO414868   9.546  10.034   4.779  0.4837  0.1870  0.0186
  930loPI   GL114869   9.330  10.041   5.128 -0.2660  0.1925 -0.0937
  930loPI   GL214870   9.704  10.034   5.282  0.0858 -0.0616 -0.0196
  930loPI   C1A14871   9.278   9.916   5.477 -0.2233  0.2091 -0.2952
  930loPI   C2A14872   9.247   9.955   5.906 -0.1348  0.0612 -0.1579
  930loPI   C3A14873   9.336   9.993   6.389  0.1714 -0.0561  0.1066
  930loPI   C4A14874   9.476  10.159   6.850  0.2061 -0.0236  0.0393
  930loPI   C5A14875   9.642  10.342   7.306  0.0746  0.0530  0.1894
  930loPI   C6A14876   9.596  10.335   7.752 -0.0959  0.0857 -0.4908
  930loPI   C1B14877   9.784  10.064   5.704 -0.0899 -0.0427 -0.0704
  930loPI   C2B14878   9.808   9.988   6.141 -0.2176 -0.0174 -0.1966
  930loPI   C3B14879   9.894   9.834   6.418 -0.1757  0.0840 -0.3569
  930loPI   C4B14880  10.291   9.708   6.775 -0.1300  0.2453  0.1371
  931loPI    C114881  12.059   8.615   4.653 -0.1493  0.1397 -0.1052
  931loPI    C214882  12.301   8.836   4.423 -0.0387  0.1622  0.0317
  931loPI    C314883  12.187   8.971   4.782 -0.2712  0.1600 -0.0396
  931loPI   PO414884  12.181   8.431   4.675  0.2214 -0.2183 -0.2529
  931loPI   GL114885  12.183   8.212   5.071 -0.2059  0.0396  0.0403
  931loPI   GL214886  12.212   8.487   5.191 -0.0733  0.1946  0.3912
  931loPI   C1A14887  12.326   7.933   5.402 -0.2868  0.2211  0.1898
  931loPI   C2A14888  12.510   8.062   5.737  0.0780 -0.5811  0.0548
  931loPI   C3A14889  12.819   8.281   5.787  0.2033  0.1986  0.0284
  931loPI   C4A14890  13.216   8.296   6.062 -0.0426  0.0925  0.1895
  931loPI   C5A14891  13.518   8.224   6.423 -0.0436 -0.2113  0.2774
  931loPI   C6A14892  13.455   8.323   6.892  0.0165 -0.0453  0.0757
  931loPI   C1B14893  12.370   8.551   5.601  0.0322 -0.0878 -0.0523
  931loPI   C2B14894  12.509   8.561   6.021  0.2495  0.1809  0.0633
  931loPI   C3B14895  12.747   8.352   6.283 -0.2919 -0.0051  0.0705
  931loPI   C4B14896  12.531   8.444   6.614 -0.2248  0.0401 -0.2693
  932loPI    C114897   3.516  11.031   4.411  0.0508 -0.0115 -0.1957
  932loPI    C214898   3.881  11.151   4.521  0.0243  0.0358 -0.1597
  932loPI    C314899   3.838  10.817   4.306  0.0773 -0.0506 -0.0377
  932loPI   PO414900   3.354  11.046   4.657  0.0826  0.0089  0.1768
  932loPI   GL114901   3.361  11.274   4.986  0.1992 -0.2235 -0.3060
  932loPI   GL214902   3.097  11.488   5.038  0.4216  0.1711 -0.2072
  932loPI   C1A14903   3.474  11.108   5.463 -0.1186  0.1792 -0.3499
  932loPI   C2A14904   3.468  11.004   5.808 -0.0000 -0.1537  0.0149
  932loPI   C3A14905   3.634  10.980   6.208  0.1818  0.0851 -0.1164
  932loPI   C4A14906   3.436  10.907   6.572  0.0045  0.0795  0.0958
  932loPI   C5A14907   3.310  10.848   6.987  0.2948  0.0502  0.1753
  932loPI   C6A14908   2.987  10.884   7.264  0.2735 -0.0680  0.1521
  932loPI   C1B14909   3.110  11.390   5.478  0.0877 -0.1617  0.0419
  932loPI   C2B14910   3.345  11.500   5.836  0.3856 -0.0156 -0.4882
  932loPI   C3B14911   3.649  11.496   6.210 -0.2351 -0.1163  0.2085
  932loPI   C4B14912   3.831  11.398   6.629 -0.1343 -0.1649  0.0413
  933loPI    C114913   1.099   0.698   4.169  0.0233  0.0431 -0.2164
  933loPI    C214914   1.383   0.980   4.179  0.0920 -0.0316  0.0037
  933loPI    C314915   1.432   0.654   3.952  0.2013 -0.0636  0.0725
  933loPI   PO414916   1.075   0.667   4.436 -0.3057 -0.0720  0.2246
  933loPI   GL114917   1.233   0.683   4.798 -0.2937  0.0868 -0.0075
  933loPI   GL214918   0.965   0.653   4.885  0.2371  0.2000  0.0746
  933loPI   C1A14919   1.379   0.818   5.207 -0.0925 -0.0964  0.0948
  933loPI   C2A14920   1.631   0.782   5.430 -0.2063  0.0248 -0.0856
  933loPI   C3A14921   1.630   0.856   5.823 -0.1169  0.0192 -0.0899
  933loPI   C4A14922   1.527   0.806   6.236  0.1567 -0.1816  0.0987
  933loPI   C5A14923   1.550   0.602   6.619  0.0017 -0.0630 -0.3841
  933loPI   C6A14924   1.664   0.414   6.992 -0.1568 -0.0121  0.0791
  933loPI   C1B14925   0.925   0.779   5.290  0.1480 -0.0722 -0.0495
  933loPI   C2B14926   1.192   0.698   5.645  0.0883 -0.2352 -0.1144
  933loPI   C3B14927   1.090   0.495   6.062  0.3205 -0.0227  0.3079
  933loPI   C4B14928   0.722   0.627   6.389  0.1280 -0.1381 -0.1119
  934loPI    C114929  12.129  12.999   4.561 -0.0756 -0.0281 -0.0065
  934loPI    C214930  12.398  12.806   4.337  0.2036  0.3359  0.0053
  934loPI    C314931  12.220  13.135   4.196 -0.3022  0.0557 -0.0337
  934loPI   PO414932  12.216  13.052   4.836  0.4678 -0.3758  0.0278
  934loPI   GL114933  12.476  13.194   5.125  0.2171  0.1335 -0.0365
  934loPI   GL214934  12.698  13.367   5.299 -0.3493 -0.1117  0.3341
  934loPI   C1A14935  12.249  13.046   5.463 -0.1531  0.1461  0.2549
  934loPI   C2A14936  11.965  12.926   5.824  0.2083 -0.2340 -0.0234
  934loPI   C3A14937  11.926  12.987   6.167 -0.0220 -0.1051  0.2001
  934loPI   C4A14938  11.870  13.258   6.437  0.1284  0.0530  0.1972
  934loPI   C5A14939  12.129  13.400   6.753  0.0527  0.1033 -0.1114
  934loPI   C6A14940  12.208  13.592   7.138 -0.1463 -0.2783  0.0918
  934loPI   C1B14941  12.735  13.465   5.712  0.2608 -0.2254 -0.4244
  934loPI   C2B14942  12.720  13.546   6.126 -0.0825  0.1774  0.1042
  934loPI   C3B14943  12.643  13.607   6.679  0.0110  0.1692 -0.2011
  934loPI   C4B14944  12.692  13.496   7.098  0.0953  0.0224  0.2299
  935loPI    C114945   2.293  13.384   4.611  0.0718  0.1400  0.0234
  935loPI    C214946   2.251  13.046   4.400 -0.0962  0.1929 -0.0291
  935loPI    C314947   2.478  13.344   4.258  0.1720  0.0467  0.0857
  935loPI   PO414948   2.189  13.266   4.870  0.2681  0.3906 -0.1612
  935loPI   GL114949   2.440  13.204   5.220  0.1783 -0.1748 -0.0205
  935loPI   GL214950   2.642  12.988   5.247 -0.4637  0.0271  0.1634
  935loPI   C1A14951   2.256  13.414   5.626 -0.1411  0.1758  0.2539
  935loPI   C2A14952   2.397  13.329   6.022 -0.2350 -0.3632 -0.1045
  935loPI   C3A14953   2.616  13.507   6.345 -0.1056 -0.2049  0.1826
  935loPI   C4A14954   2.558  13.689   6.705 -0.3470  0.2357  0.0065
  935loPI   C5A14955   2.634  13.778   7.195  0.3225  0.2333  0.3016
  935loPI   C6A14956   2.463  13.945   7.554  0.1360 -0.1002  0.0887
  935loPI   C1B14957   2.585  12.912   5.728 -0.0457  0.0441  0.0220
  935loPI   C2B14958   2.426  12.847   6.153  0.1971 -0.0641 -0.1932
  935loPI   C3B14959   2.310  12.724   6.543  0.0449 -0.0168 -0.0073
  935loPI   C4B14960   2.104  12.570   6.852 -0.0147  0.1541 -0.0214
  936loPI    C114961  16.332   0.440   4.500  0.1383  0.0405 -0.2036
  936loPI    C214962  16.573   0.308   4.209  0.0692 -0.1980 -0.1546
  936loPI    C314963  16.660   0.230   4.591 -0.1108 -0.3303 -0.1391
  936loPI   PO414964  16.101   0.359   4.499 -0.1079  0.1060 -0.1970
  936loPI   GL114965  15.916   0.026   4.765 -0.0949  0.1707 -0.2579
  936loPI   GL214966  16.151  -0.013   4.867  0.0349 -0.0888 -0.4343
  936loPI   C1A14967  15.807   0.155   5.180 -0.2413  0.2540  0.0338
  936loPI   C2A14968  16.082   0.311   5.467 -0.1451 -0.2099 -0.2016
  936loPI   C3A14969  16.355   0.450   5.588 -0.2493  0.0335 -0.1145
  936loPI   C4A14970  16.364   0.588   5.993 -0.0887  0.0816 -0.1373
  936loPI   C5A14971  16.521   0.599   6.457 -0.1004 -0.2100  0.2760
  936loPI   C6A14972  16.900   0.523   6.648  0.3669  0.0653  0.1575
  936loPI   C1B14973  16.328  -0.117   5.230  0.0857  0.2877  0.0521
  936loPI   C2B14974  16.245  -0.122   5.746 -0.0409 -0.0138 -0.2499
  936loPI   C3B14975  16.237  -0.251   6.209 -0.1286 -0.0555 -0.1608
  936loPI   C4B14976  16.055  -0.317   6.606  0.0101 -0.1950  0.2124
  937loPI    C114977  15.745  17.832   4.137 -0.1735 -0.0975 -0.1071
  937loPI    C214978  15.689  18.180   3.947  0.1490 -0.0213 -0.0688
  937loPI    C314979  15.991  17.940   3.841  0.0159 -0.2235  0.0021
  937loPI   PO414980  15.704  17.962   4.436 -0.2712 -0.0234 -0.2527
  937loPI   GL114981  15.537  17.796   4.848 -0.0133  0.0767 -0.0437
  937loPI   GL214982  15.367  17.412   4.997 -0.0533  0.1974  0.1786
  937loPI   C1A14983  15.488  17.864   5.309  0.0869 -0.1929  0.2137
  937loPI   C2A14984  15.460  17.922   5.628 -0.0436  0.0061  0.1097
  937loPI   C3A14985  15.215  17.938   5.994 -0.1748 -0.0233 -0.1535
  937loPI   C4A14986  15.072  17.897   6.422  0.0587  0.0939  0.1552
  937loPI   C5A14987  14.790  17.971   6.736 -0.0577  0.4148 -0.0190
  937loPI   C6A14988  14.490  18.103   6.982  0.0154  0.0347 -0.2033
  937loPI   C1B14989  15.448  17.420   5.430  0.1785 -0.0206 -0.0317
  937loPI   C2B14990  15.442  17.439   5.928  0.3343  0.0680  0.0562
  937loPI   C3B14991  15.430  17.523   6.331  0.1000  0.0165  0.2478
  937loPI   C4B14992  15.474  17.464   6.760 -0.1521 -0.0754 -0.0553
  938loPI    C114993  19.308   9.770   4.703  0.0728 -0.1366 -0.1700
  938loPI    C214994  19.383  10.144   4.823  0.1709 -0.1945 -0.0493
  938loPI    C314995  19.316  10.068   4.437 -0.2119  0.0038 -0.0263
  938loPI   PO414996  19.301   9.654   4.935 -0.1816  0.0726  0.1317
  938loPI   GL114997  19.116   9.685   5.326 -0.1203 -0.4454  0.0807
  938loPI   GL214998  18.733   9.697   5.311  0.0808 -0.1352 -0.2629
  938loPI   C1A14999  19.000  10.036   5.604 -0.4718 -0.1340 -0.1394
  938loPI   C2A15000  18.613   9.949   5.862  0.3108 -0.1778 -0.2777
  938loPI   C3A15001  18.346   9.861   6.177  0.0390  0.0488 -0.0176
  938loPI   C4A15002  17.932   9.887   6.394 -0.1352  0.3710  0.0495
  938loPI   C5A15003  17.807  10.070   6.867  0.2728 -0.0463  0.1694
  938loPI   C6A15004  17.628  10.544   6.993  0.1495 -0.2640  0.0316
  938loPI   C1B15005  18.421   9.534   5.615  0.1424 -0.0433 -0.1568
  938loPI   C2B15006  18.480   9.314   6.012 -0.2767  0.4361 -0.2376
  938loPI   C3B15007  18.662   9.435   6.296  0.4235  0.0855  0.1277
  938loPI   C4B15008  18.739   9.766   6.568 -0.1819  0.0147 -0.0659
  939loPI    C115009  10.742  11.067   4.662  0.1275 -0.1427 -0.2446
  939loPI    C215010  10.453  10.865   4.473  0.0265 -0.2016 -0.0302
  939loPI    C315011  10.487  11.260   4.421 -0.0421 -0.2071 -0.1190
  939loPI   PO415012  10.700  10.896   4.947 -0.0520 -0.2638 -0.1118
  939loPI   GL115013  10.923  10.939   5.329 -0.0190 -0.2644  0.1079
  939loPI   GL215014  11.048  10.889   5.638  0.1512  0.2186  0.0458
  939loPI   C1A15015  10.552  11.060   5.554 -0.2091 -0.5554 -0.0431
  939loPI   C2A15016  10.293  11.305   5.841  0.0596  0.3061  0.1401
  939loPI   C3A15017  10.067  11.512   6.274  0.0910  0.0066 -0.3371
  939loPI   C4A15018   9.671  11.434   6.430 -0.0713  0.3695 -0.2496
  939loPI   C5A15019   9.714  11.468   6.878 -0.0289 -0.0672  0.1652
  939loPI   C6A15020   9.747  11.389   7.354 -0.1925 -0.2084  0.1770
  939loPI   C1B15021  11.105  10.790   6.069 -0.1464  0.1088 -0.2528
  939loPI   C2B15022  10.787  10.681   6.448  0.1017 -0.2276 -0.3421
  939loPI   C3B15023  10.871  10.606   6.875 -0.0675  0.0315 -0.0424
  939loPI   C4B15024  10.624  10.404   7.225 -0.0979 -0.0355  0.0882
  940loPI    C115025  15.476   5.409   4.256 -0.0918  0.1695  0.0534
  940loPI    C215026  15.448   5.765   4.075 -0.2174  0.0942 -0.0784
  940loPI    C315027  15.505   5.435   3.857  0.3435  0.0797  0.0748
  940loPI   PO415028  15.413   5.546   4.510  0.0453 -0.1041 -0.1465
  940loPI   GL115029  15.156   5.366   5.043  0.0929 -0.2243  0.0469
  940loPI   GL215030  14.790   5.355   5.184  0.2744  0.1830 -0.0744
  940loPI   C1A15031  15.391   5.582   5.489 -0.1355  0.3067  0.0549
  940loPI   C2A15032  15.199   5.638   5.958  0.0334 -0.0520 -0.0625
  940loPI   C3A15033  15.020   5.756   6.353 -0.2032 -0.0680  0.0219
  940loPI   C4A15034  14.899   5.776   6.813  0.1830  0.3263  0.2108
  940loPI   C5A15035  14.588   5.456   7.037 -0.1757 -0.0032  0.1389
  940loPI   C6A15036  14.688   5.049   7.356 -0.0479 -0.1316  0.2050
  940loPI   C1B15037  14.525   5.395   5.485  0.1361 -0.0649 -0.0819
  940loPI   C2B15038  14.136   5.449   5.742  0.1081 -0.0136  0.0832
  940loPI   C3B15039  14.187   5.378   6.242 -0.3627 -0.2440  0.2170
  940loPI   C4B15040  14.336   5.256   6.597  0.4155 -0.3886 -0.0036
  941loPI    C115041   6.618  12.104   4.633  0.1143 -0.0618  0.1493
  941loPI    C215042   6.808  12.086   4.281 -0.0383 -0.0199  0.0636
  941loPI    C315043   6.589  12.408   4.374 -0.0785 -0.0734  0.1557
  941loPI   PO415044   6.422  11.894   4.678 -0.0826  0.1181  0.1214
  941loPI   GL115045   6.131  11.729   5.009 -0.7296 -0.0029  0.1239
  941loPI   GL215046   6.168  11.380   5.054  0.0232 -0.0859  0.0576
  941loPI   C1A15047   6.146  11.854   5.388  0.2974  0.1426  0.1391
  941loPI   C2A15048   6.278  11.798   5.889 -0.0017  0.2535  0.6138
  941loPI   C3A15049   6.624  12.018   6.124 -0.0358 -0.1535  0.1509
  941loPI   C4A15050   6.889  12.278   6.369  0.0273  0.3049 -0.0683
  941loPI   C5A15051   6.888  12.377   6.742  0.1673  0.3044 -0.0034
  941loPI   C6A15052   6.845  12.680   7.037 -0.1296 -0.2232 -0.2635
  941loPI   C1B15053   5.998  11.378   5.392  0.0499  0.0990  0.0261
  941loPI   C2B15054   5.747  11.582   5.683 -0.5394  0.1633  0.2071
  941loPI   C3B15055   5.798  11.811   6.088  0.3651  0.3214 -0.1054
  941loPI   C4B15056   6.109  11.894   6.364 -0.1004  0.0590  0.2485
  942loPI    C115057   7.126  18.628   4.401  0.0591  0.3768  0.2707
  942loPI    C215058   6.925  18.569   4.742 -0.4442 -0.0893 -0.0870
  942loPI    C315059   6.794  18.838   4.476 -0.0806  0.2381  0.0538
  942loPI   PO415060   7.342  18.702   4.514 -0.3065  0.0090  0.1615
  942loPI   GL115061   7.333  18.820   4.922 -0.0216  0.0023  0.1432
  942loPI   GL215062   7.230  18.492   5.133 -0.1809  0.2084 -0.1330
  942loPI   C1A15063   7.352  19.027   5.326  0.0073  0.1834  0.0825
  942loPI   C2A15064   7.395  19.266   5.732 -0.1185  0.1365  0.1909
  942loPI   C3A15065   7.559  19.542   6.094 -0.2365 -0.1985 -0.1001
  942loPI   C4A15066   7.804  19.737   6.358 -0.2376  0.0123  0.0249
  942loPI   C5A15067   8.055  19.834   6.794 -0.1584  0.1171  0.2161
  942loPI   C6A15068   8.260  19.987   7.106  0.2511  0.3897 -0.0544
  942loPI   C1B15069   7.540  18.614   5.519  0.3021 -0.0088  0.0913
  942loPI   C2B15070   7.655  18.792   5.914 -0.1229  0.0955 -0.0111
  942loPI   C3B15071   7.864  18.643   6.203 -0.0414 -0.3090 -0.0519
  942loPI   C4B15072   8.100  18.536   6.655 -0.0177  0.0810  0.1332
  943loPI    C115073  11.847  12.580   4.320  0.2578  0.1709  0.2075
  943loPI    C215074  12.068  12.676   4.000  0.1198  0.0027  0.0598
  943loPI    C315075  11.739  12.886   4.086 -0.1303 -0.2674 -0.2098
  943loPI   PO415076  12.036  12.501   4.588 -0.1408 -0.0411 -0.1590
  943loPI   GL115077  11.912  12.402   4.990  0.1041  0.3425  0.2868
  943loPI   GL215078  11.696  12.288   5.202  0.3048  0.0608  0.1170
  943loPI   C1A15079  12.162  12.308   5.329 -0.1345  0.1218  0.0959
  943loPI   C2A15080  12.288  12.600   5.721  0.0579 -0.1246 -0.3191
  943loPI   C3A15081  12.325  12.665   6.243  0.0758  0.0393  0.1973
  943loPI   C4A15082  12.081  12.833   6.622 -0.0956 -0.1141  0.1934
  943loPI   C5A15083  11.749  12.916   6.820  0.0364 -0.0931  0.1683
  943loPI   C6A15084  11.594  13.212   6.978 -0.1229 -0.2681 -0.0895
  943loPI   C1B15085  11.752  12.631   5.495  0.3374 -0.0910 -0.3253
  943loPI   C2B15086  11.498  12.773   5.902  0.0571 -0.3006 -0.0485
  943loPI   C3B15087  11.423  13.022   6.094 -0.1647  0.1170 -0.1900
  943loPI   C4B15088  11.391  13.108   6.464 -0.0953  0.4579  0.1137
  944loPI    C115089   5.470   5.538   4.543  0.1174 -0.1944  0.1311
  944loPI    C215090   5.136   5.446   4.343  0.0330 -0.0532  0.2054
  944loPI    C315091   5.490   5.436   4.157  0.0142 -0.4136  0.1815
  944loPI   PO415092   5.521   5.335   4.777 -0.2712 -0.2100  0.1646
  944loPI   GL115093   5.833   5.355   5.120  0.0465  0.2005 -0.1547
  944loPI   GL215094   5.835   5.053   5.094  0.0885  0.0935  0.1805
  944loPI   C1A15095   5.999   5.539   5.513  0.1505  0.2556 -0.0632
  944loPI   C2A15096   6.004   5.557   6.057  0.0118 -0.1836  0.3515
  944loPI   C3A15097   6.121   5.639   6.458 -0.1940  0.2767  0.1653
  944loPI   C4A15098   6.097   5.611   6.907 -0.1974  0.1272  0.0855
  944loPI   C5A15099   5.884   5.586   7.214 -0.1102 -0.2032 -0.2100
  944loPI   C6A15100   5.864   5.540   7.701  0.2884  0.1282  0.0429
  944loPI   C1B15101   5.820   5.095   5.579  0.1837  0.3204 -0.0683
  944loPI   C2B15102   5.732   5.029   5.968  0.0201  0.0457 -0.0107
  944loPI   C3B15103   5.868   5.145   6.411  0.1304  0.1732 -0.1781
  944loPI   C4B15104   5.695   5.236   6.850  0.0336  0.0958  0.1225
  945loPI    C115105   2.953   5.464   4.495 -0.2338  0.2209 -0.1091
  945loPI    C215106   3.334   5.475   4.375 -0.1404 -0.0216  0.1552
  945loPI    C315107   3.051   5.339   4.127 -0.0025 -0.1777  0.0810
  945loPI   PO415108   3.007   5.347   4.743 -0.2324  0.0944 -0.0711
  945loPI   GL115109   3.229   5.339   5.140 -0.3529 -0.1754  0.0036
  945loPI   GL215110   3.450   5.306   5.375  0.2825  0.1119 -0.2627
  945loPI   C1A15111   3.056   5.094   5.608  0.1594 -0.1207 -0.0472
  945loPI   C2A15112   3.028   4.846   5.870  0.0526  0.3354 -0.0438
  945loPI   C3A15113   3.016   4.661   6.252 -0.2938 -0.1405 -0.0582
  945loPI   C4A15114   3.115   4.612   6.661  0.2330  0.1403  0.2075
  945loPI   C5A15115   3.151   4.910   7.045  0.2890 -0.2869 -0.0907
  945loPI   C6A15116   3.032   5.126   7.369  0.1838 -0.2826 -0.1642
  945loPI   C1B15117   3.464   5.355   5.766  0.3323 -0.0132  0.1003
  945loPI   C2B15118   3.138   5.407   6.035  0.0332  0.0940 -0.1099
  945loPI   C3B15119   2.907   5.228   6.349 -0.1658  0.0585  0.0371
  945loPI   C4B15120   2.843   5.207   6.835  0.0279 -0.0056  0.0926
  946loPI    C115121  13.402  10.890   4.416  0.0956 -0.2044  0.0228
  946loPI    C215122  13.413  10.516   4.276  0.1178 -0.1599 -0.0951
  946loPI    C315123  13.433  10.825   4.023 -0.0688 -0.0782 -0.0122
  946loPI   PO415124  13.218  10.936   4.625  0.2834 -0.0806 -0.0350
  946loPI   GL115125  13.009  10.893   5.000 -0.2026 -0.1857  0.3063
  946loPI   GL215126  13.329  10.892   5.129  0.1464 -0.2058  0.1581
  946loPI   C1A15127  12.873  11.170   5.440  0.0434  0.1208  0.0960
  946loPI   C2A15128  12.802  11.522   5.583 -0.0764 -0.0594 -0.2370
  946loPI   C3A15129  12.492  11.962   5.579 -0.1298 -0.0495  0.0566
  946loPI   C4A15130  12.278  12.088   5.889 -0.1700 -0.4394  0.5430
  946loPI   C5A15131  12.096  12.103   6.296  0.0834 -0.0243  0.0616
  946loPI   C6A15132  12.095  11.997   6.672 -0.3331 -0.3448 -0.0392
  946loPI   C1B15133  13.471  10.844   5.603 -0.4590 -0.4791 -0.2091
  946loPI   C2B15134  13.394  10.670   5.995  0.1236  0.2206  0.1367
  946loPI   C3B15135  13.109  10.510   6.173  0.2107 -0.0327 -0.1497
  946loPI   C4B15136  12.858  10.399   6.378 -0.6687 -0.0018 -0.1243
  947loPI    C115137   5.122   4.970   4.413 -0.3486 -0.2238  0.1017
  947loPI    C215138   5.179   4.576   4.376 -0.1134 -0.1686 -0.1462
  947loPI    C315139   5.181   4.811   4.052 -0.4938  0.0078 -0.0270
  947loPI   PO415140   5.042   4.946   4.743 -0.0379 -0.0631  0.0413
  947loPI   GL115141   5.322   5.030   5.108 -0.4238 -0.1475 -0.2540
  947loPI   GL215142   5.315   4.690   5.090  0.2793 -0.5187 -0.2389
  947loPI   C1A15143   5.361   5.041   5.612  0.1053 -0.0945 -0.0450
  947loPI   C2A15144   5.264   5.088   6.092  0.0012  0.1675 -0.2572
  947loPI   C3A15145   5.345   5.097   6.488 -0.0796  0.1363  0.1340
  947loPI   C4A15146   5.176   5.491   6.769  0.0660  0.0830  0.0543
  947loPI   C5A15147   5.299   5.526   7.193 -0.1760 -0.2483 -0.1929
  947loPI   C6A15148   5.505   5.883   7.561 -0.2763 -0.3619 -0.0659
  947loPI   C1B15149   5.334   4.460   5.467 -0.0487 -0.2843  0.0459
  947loPI   C2B15150   5.502   4.583   5.913  0.2702 -0.1024 -0.0845
  947loPI   C3B15151   5.647   4.685   6.287  0.3415  0.1758 -0.0407
  947loPI   C4B15152   5.757   4.727   6.757 -0.1845  0.1383  0.0746
  948loPI    C115153   3.683   1.869   4.094 -0.1631 -0.0822 -0.3482
  948loPI    C215154   3.572   2.250   4.145 -0.1338 -0.0819 -0.2856
  948loPI    C315155   3.311   1.984   4.001 -0.2439 -0.0999 -0.0568
  948loPI   PO415156   3.840   1.769   4.239 -0.2378  0.0857  0.2444
  948loPI   GL115157   4.012   1.625   4.626 -0.1873 -0.0638  0.0762
  948loPI   GL215158   3.787   1.406   4.620  0.1032 -0.1313  0.2991
  948loPI   C1A15159   4.244   1.954   4.890 -0.1668  0.3113  0.0793
  948loPI   C2A15160   4.300   2.088   5.235  0.0307  0.0721  0.1146
  948loPI   C3A15161   4.214   2.104   5.643  0.1396  0.0260 -0.0214
  948loPI   C4A15162   4.288   2.114   6.148 -0.4561 -0.1968 -0.2616
  948loPI   C5A15163   4.529   2.277   6.440 -0.2132 -0.0052 -0.0474
  948loPI   C6A15164   4.447   2.457   6.835 -0.2502 -0.0477  0.2503
  948loPI   C1B15165   3.714   1.371   5.045  0.1534 -0.0693 -0.4513
  948loPI   C2B15166   3.828   1.299   5.501  0.1553 -0.1265  0.0111
  948loPI   C3B15167   3.939   1.145   5.843 -0.1047 -0.0512  0.0670
  948loPI   C4B15168   4.001   0.903   6.164  0.1554  0.0628 -0.2953
  949loPI    C115169   0.986   4.903   4.986  0.0609 -0.0367  0.2711
  949loPI    C215170   1.201   4.982   4.659 -0.1678  0.1463  0.1619
  949loPI    C315171   0.824   4.854   4.624 -0.1113 -0.0789  0.3526
  949loPI   PO415172   0.949   5.143   5.206 -0.0124  0.0691 -0.4045
  949loPI   GL115173   1.269   5.211   5.553 -0.2867 -0.1818  0.3857
  949loPI   GL215174   1.254   4.906   5.717 -0.1103 -0.1702 -0.2571
  949loPI   C1A15175   1.186   5.351   5.875 -0.0524  0.1424  0.2151
  949loPI   C2A15176   1.134   5.346   6.294  0.0523  0.5791  0.1247
  949loPI   C3A15177   1.048   5.281   6.622  0.1378 -0.2301 -0.0513
  949loPI   C4A15178   0.939   5.466   6.928  0.1110  0.4837 -0.1700
  949loPI   C5A15179   1.016   5.707   7.236  0.3135  0.1036 -0.0827
  949loPI   C6A15180   0.909   5.765   7.755 -0.3070  0.1111  0.0351
  949loPI   C1B15181   1.392   4.925   6.059  0.2633  0.1094  0.2021
  949loPI   C2B15182   1.145   4.842   6.414  0.1085  0.1532 -0.3635
  949loPI   C3B15183   1.250   4.593   6.848 -0.0992  0.1652  0.4055
  949loPI   C4B15184   1.518   4.363   7.064  0.0294  0.0671 -0.4197
  950loPI    C115185  15.866   5.800   4.379 -0.0622 -0.0324 -0.0164
  950loPI    C215186  15.830   6.138   4.169 -0.3251  0.0499  0.1557
  950loPI    C315187  15.966   5.807   3.992  0.2165  0.3136  0.0571
  950loPI   PO415188  16.007   5.836   4.558  0.0106  0.1005 -0.3229
  950loPI   GL115189  15.751   5.768   4.906 -0.3560 -0.0129  0.2835
  950loPI   GL215190  15.595   5.491   4.994  0.1753 -0.3117 -0.1447
  950loPI   C1A15191  15.558   5.981   5.279  0.0367 -0.0091 -0.3754
  950loPI   C2A15192  15.595   5.969   5.791 -0.0998 -0.1317 -0.0161
  950loPI   C3A15193  15.455   6.055   6.207 -0.0378 -0.0019 -0.3934
  950loPI   C4A15194  15.382   5.926   6.662  0.3535 -0.0679  0.0883
  950loPI   C5A15195  15.528   6.012   6.967  0.0238 -0.2255 -0.2826
  950loPI   C6A15196  15.917   6.066   7.061  0.1174  0.1830 -0.0251
  950loPI   C1B15197  16.000   5.431   5.194 -0.0068 -0.0481 -0.1540
  950loPI   C2B15198  16.283   5.242   5.275 -0.1472 -0.1457 -0.3869
  950loPI   C3B15199  16.358   4.864   5.163  0.2935  0.1040  0.0510
  950loPI   C4B15200  16.421   4.512   5.489  0.3366  0.0094  0.1201
  951loPI    C115201  19.287  18.949   4.542  0.1038 -0.0958  0.0628
  951loPI    C215202  19.238  18.853   4.156 -0.0906  0.1331  0.0280
  951loPI    C315203  19.545  19.084   4.268  0.0960 -0.1187  0.0442
  951loPI   PO415204  19.159  18.786   4.658 -0.0855  0.0075  0.1013
  951loPI   GL115205  19.001  18.759   5.040 -0.3446  0.1120 -0.0958
  951loPI   GL215206  18.722  18.952   4.901 -0.1799 -0.0098 -0.0212
  951loPI   C1A15207  18.983  19.016   5.394  0.3104  0.1199 -0.0177
  951loPI   C2A15208  18.871  19.184   5.746 -0.1906  0.2161  0.2857
  951loPI   C3A15209  18.894  19.448   6.160 -0.1081  0.0017 -0.0709
  951loPI   C4A15210  19.181  19.672   6.444 -0.1177  0.3541 -0.3912
  951loPI   C5A15211  19.154  19.813   6.874 -0.3030  0.5939  0.0567
  951loPI   C6A15212  18.901  19.623   7.057 -0.1108  0.1695  0.0462
  951loPI   C1B15213  18.572  18.785   5.274  0.0878  0.1972  0.1055
  951loPI   C2B15214  18.557  18.767   5.682  0.1679  0.1279 -0.0431
  951loPI   C3B15215  18.432  18.562   5.988  0.0203  0.1055  0.0974
  951loPI   C4B15216  18.535  18.435   6.340  0.0293 -0.1855  0.0627
  952loPI    C115217   2.804   8.096   4.912  0.0347 -0.1768 -0.0277
  952loPI    C215218   2.426   8.146   4.791  0.0183 -0.0832  0.0599
  952loPI    C315219   2.695   7.980   4.545 -0.1150 -0.2919  0.0520
  952loPI   PO415220   2.805   7.948   5.130 -0.1626  0.3534 -0.3845
  952loPI   GL115221   2.818   7.868   5.490 -0.2585  0.1677  0.0131
  952loPI   GL215222   3.069   7.562   5.542 -0.1744 -0.3037 -0.0766
  952loPI   C1A15223   2.684   7.873   5.978 -0.1903  0.0426  0.2343
  952loPI   C2A15224   2.886   7.903   6.398 -0.3658 -0.1286 -0.2372
  952loPI   C3A15225   2.843   7.929   6.903 -0.3111 -0.0763  0.1518
  952loPI   C4A15226   2.894   7.906   7.353  0.0916 -0.1958 -0.0845
  952loPI   C5A15227   3.197   8.080   7.515 -0.3333  0.0029  0.0683
  952loPI   C6A15228   3.479   8.444   7.643 -0.0988 -0.0310 -0.0126
  952loPI   C1B15229   3.140   7.660   5.893  0.3688 -0.1137 -0.0407
  952loPI   C2B15230   3.072   7.384   6.220  0.2002 -0.0327 -0.1720
  952loPI   C3B15231   3.361   7.236   6.584  0.0765 -0.1410 -0.0812
  952loPI   C4B15232   3.707   7.050   6.594  0.1067  0.2442  0.3064
  953loPI    C115233   2.925  12.283   4.696 -0.2200  0.0614 -0.0828
  953loPI    C215234   2.946  12.114   5.058 -0.0234  0.0851 -0.0821
  953loPI    C315235   3.021  11.897   4.731 -0.0174  0.1094 -0.0968
  953loPI   PO415236   2.741  12.374   4.709  0.1666 -0.0002 -0.0679
  953loPI   GL115237   2.611  12.468   5.163  0.0977 -0.0721 -0.0632
  953loPI   GL215238   2.317  12.300   5.167 -0.2312 -0.0980 -0.0843
  953loPI   C1A15239   2.918  12.547   5.516 -0.2924  0.1396  0.0897
  953loPI   C2A15240   2.834  12.507   6.004  0.1290  0.0286  0.0720
  953loPI   C3A15241   2.819  12.561   6.444 -0.1614 -0.0509  0.0777
  953loPI   C4A15242   2.659  12.321   6.830  0.0613 -0.0987 -0.1582
  953loPI   C5A15243   3.026  12.199   6.958 -0.0135  0.3786 -0.0461
  953loPI   C6A15244   3.174  11.842   7.205  0.2143 -0.1305 -0.1228
  953loPI   C1B15245   2.489  12.255   5.559  0.1701 -0.3974  0.0665
  953loPI   C2B15246   2.444  12.085   6.005 -0.1432 -0.2131  0.1176
  953loPI   C3B15247   2.355  12.194   6.376 -0.1669 -0.1636  0.0289
  953loPI   C4B15248   2.212  11.997   6.803 -0.1416 -0.3160 -0.0417
  954loPI    C115249   5.206   1.126   3.928 -0.1192 -0.0623  0.0035
  954loPI    C215250   5.144   1.504   3.813  0.0160  0.0080  0.1587
  954loPI    C315251   5.200   1.218   3.539  0.0526  0.1246  0.0438
  954loPI   PO415252   5.359   1.258   4.195 -0.2607  0.0545 -0.0612
  954loPI   GL115253   5.129   1.450   4.523  0.2673  0.1075 -0.0897
  954loPI   GL215254   5.070   1.187   4.599 -0.0312 -0.0693  0.1762
  954loPI   C1A15255   5.263   1.824   4.847 -0.1089  0.3081 -0.1351
  954loPI   C2A15256   5.170   1.882   5.275 -0.1644  0.4809  0.1247
  954loPI   C3A15257   5.249   1.838   5.688  0.0169  0.1353 -0.2231
  954loPI   C4A15258   5.330   1.810   6.201  0.1698 -0.0002 -0.1378
  954loPI   C5A15259   5.547   1.927   6.541 -0.1467 -0.0032 -0.0045
  954loPI   C6A15260   5.600   1.867   7.004  0.0849  0.2426  0.0522
  954loPI   C1B15261   5.243   1.384   5.030  0.1171  0.1036 -0.0492
  954loPI   C2B15262   5.292   1.434   5.432 -0.0632  0.5518 -0.1645
  954loPI   C3B15263   5.451   1.369   5.829 -0.1893  0.2873 -0.2167
  954loPI   C4B15264   5.482   1.220   6.276  0.1196  0.0234 -0.3245
  955loPI    C115265   8.808   7.680   4.761  0.0615 -0.0914 -0.0843
  955loPI    C215266   8.463   7.786   4.588 -0.0088  0.0879  0.1604
  955loPI    C315267   8.748   7.606   4.372 -0.2698 -0.0991 -0.0347
  955loPI   PO415268   8.853   7.839   4.931  0.1711 -0.1774 -0.0247
  955loPI   GL115269   9.050   7.646   5.264 -0.0679  0.4644 -0.1359
  955loPI   GL215270   9.209   7.946   5.336  0.2327  0.0394 -0.0832
  955loPI   C1A15271   8.820   7.636   5.662 -0.0668  0.2128  0.1972
  955loPI   C2A15272   8.456   7.656   5.995  0.2233 -0.0671  0.1308
  955loPI   C3A15273   8.342   7.433   6.429  0.4365 -0.0449 -0.0736
  955loPI   C4A15274   8.467   7.132   6.842  0.4189 -0.0624  0.0743
  955loPI   C5A15275   8.275   6.826   7.025 -0.2818 -0.0830  0.3388
  955loPI   C6A15276   8.158   6.450   7.009  0.2443  0.0475 -0.0919
  955loPI   C1B15277   9.355   7.770   5.644  0.0078 -0.2177 -0.2203
  955loPI   C2B15278   9.345   7.571   6.030 -0.1810 -0.1625 -0.1844
  955loPI   C3B15279   9.560   7.252   6.401 -0.0118 -0.2027  0.3691
  955loPI   C4B15280   9.500   7.028   6.779 -0.4618  0.2853  0.0632
  956loPI    C115281   6.216  10.099   4.781  0.0332 -0.0520  0.2754
  956loPI    C215282   5.817  10.092   4.809  0.0057 -0.0515 -0.0807
  956loPI    C315283   6.021   9.751   4.763  0.0654 -0.0714  0.3011
  956loPI   PO415284   6.292  10.278   4.973 -0.0692 -0.1326 -0.0350
  956loPI   GL115285   6.388  10.671   5.236 -0.2104 -0.0814 -0.4998
  956loPI   GL215286   6.074  10.815   5.225  0.0259 -0.2315 -0.3645
  956loPI   C1A15287   6.487  10.662   5.621 -0.0927 -0.0478  0.2343
  956loPI   C2A15288   6.571  10.827   5.949  0.5401  0.2522 -0.1736
  956loPI   C3A15289   6.476  10.823   6.352  0.2006  0.2117  0.0390
  956loPI   C4A15290   6.352  10.747   6.846 -0.1210 -0.0393  0.2504
  956loPI   C5A15291   6.313  10.742   7.304  0.2174  0.2204 -0.0006
  956loPI   C6A15292   6.447  10.930   7.744 -0.2067 -0.0262  0.1292
  956loPI   C1B15293   6.025  10.870   5.603 -0.0660 -0.0062  0.0330
  956loPI   C2B15294   6.054  10.821   6.081 -0.0807  0.3237  0.1907
  956loPI   C3B15295   5.978  10.846   6.473  0.1216  0.1173 -0.0143
  956loPI   C4B15296   5.993  11.149   6.749  0.0846 -0.4125  0.1461
  957loPI    C115297  19.224  14.611   4.618  0.1942  0.0642  0.2415
  957loPI    C215298  19.107  14.436   4.278  0.0840 -0.1524  0.3884
  957loPI    C315299  19.008  14.817   4.352  0.0308 -0.1326  0.2195
  957loPI   PO415300  19.196  14.508   4.864  0.0464 -0.0530 -0.0675
  957loPI   GL115301  19.043  14.429   5.150  0.3228  0.0569 -0.1348
  957loPI   GL215302  18.957  14.164   5.347 -0.1175  0.3665 -0.2014
  957loPI   C1A15303  19.164  14.564   5.519  0.1886  0.1456  0.2581
  957loPI   C2A15304  19.326  14.609   5.941 -0.2209 -0.0042  0.1348
  957loPI   C3A15305  19.269  14.804   6.306 -0.2473  0.1766  0.1547
  957loPI   C4A15306  19.216  14.955   6.750  0.0226  0.1690  0.0241
  957loPI   C5A15307  19.087  15.325   7.033  0.1521 -0.1333 -0.1052
  957loPI   C6A15308  18.687  15.399   7.369 -0.0014  0.1024 -0.2163
  957loPI   C1B15309  18.977  14.108   5.845  0.2219  0.2794 -0.2023
  957loPI   C2B15310  18.879  13.819   6.190 -0.1100 -0.1067  0.1878
  957loPI   C3B15311  18.914  13.537   6.583  0.0619 -0.0800 -0.2802
  957loPI   C4B15312  18.896  13.138   6.868 -0.0220 -0.1424 -0.0493
  958loPI    C115313  12.461  15.652   4.206 -0.1182 -0.0513  0.1342
  958loPI    C215314  12.297  15.312   4.075 -0.0581  0.0612 -0.2427
  958loPI    C315315  12.221  15.656   3.887  0.1017  0.2143 -0.0318
  958loPI   PO415316  12.643  15.572   4.305  0.1510  0.2047  0.0687
  958loPI   GL115317  12.841  15.714   4.697 -0.1365 -0.1710  0.0096
  958loPI   GL215318  12.733  16.098   4.907 -0.1446  0.0041  0.0684
  958loPI   C1A15319  12.986  15.646   5.106 -0.1311 -0.0625  0.0285
  958loPI   C2A15320  12.977  15.859   5.529  0.4513 -0.0706 -0.0007
  958loPI   C3A15321  12.970  15.797   5.959 -0.0118  0.5005 -0.0384
  958loPI   C4A15322  13.011  15.859   6.318  0.0197 -0.1467  0.2164
  958loPI   C5A15323  12.921  15.707   6.764 -0.0044 -0.1793  0.0141
  958loPI   C6A15324  12.533  15.579   6.970  0.4166  0.0043  0.2411
  958loPI   C1B15325  12.596  16.006   5.268 -0.2313  0.0981  0.2147
  958loPI   C2B15326  12.524  16.107   5.757 -0.5647  0.1022 -0.0129
  958loPI   C3B15327  12.494  16.052   6.212  0.1621  0.3026 -0.0871
  958loPI   C4B15328  12.509  15.991   6.617 -0.1479  0.0035  0.0172
  959loPI    C115329   9.976  14.707   4.798 -0.0746  0.0984 -0.0105
  959loPI    C215330  10.164  14.527   5.102 -0.3735 -0.3251 -0.0668
  959loPI    C315331  10.333  14.534   4.739 -0.0504  0.1161  0.0834
  959loPI   PO415332   9.838  15.015   4.892 -0.1208  0.0001  0.1400
  959loPI   GL115333   9.734  15.297   5.078 -0.3787 -0.2598  0.1332
  959loPI   GL215334  10.096  15.260   5.277 -0.0708 -0.1796 -0.1337
  959loPI   C1A15335   9.548  15.285   5.514 -0.1362 -0.0935 -0.1580
  959loPI   C2A15336   9.711  15.439   5.875 -0.0328 -0.2150  0.0314
  959loPI   C3A15337   9.933  15.646   6.236  0.4350  0.0175 -0.4171
  959loPI   C4A15338  10.124  15.953   6.500  0.0446 -0.1670 -0.1224
  959loPI   C5A15339  10.141  16.176   6.929 -0.1803 -0.1597  0.3491
  959loPI   C6A15340  10.445  16.315   7.205  0.0420 -0.4941  0.1038
  959loPI   C1B15341  10.160  15.284   5.657 -0.1191  0.1020 -0.4114
  959loPI   C2B15342  10.459  15.471   5.925  0.0927  0.0461 -0.0055
  959loPI   C3B15343  10.766  15.330   6.173 -0.1703  0.1168 -0.0904
  959loPI   C4B15344  11.175  15.447   6.353 -0.2865 -0.0093 -0.2150
  960loPI    C115345   3.143  17.720   4.261 -0.0332 -0.0072  0.0270
  960loPI    C215346   3.332  17.957   4.001  0.0890  0.0395  0.1574
  960loPI    C315347   3.273  17.572   3.913 -0.0053  0.0896 -0.0044
  960loPI   PO415348   3.330  17.756   4.528  0.0846 -0.0315  0.1547
  960loPI   GL115349   3.567  17.512   4.712  0.1435  0.0098  0.1491
  960loPI   GL215350   3.570  17.797   5.004 -0.3682  0.3949 -0.1020
  960loPI   C1A15351   3.862  17.363   5.073 -0.0974  0.1221  0.2290
  960loPI   C2A15352   3.769  17.538   5.485  0.1347 -0.1437  0.0103
  960loPI   C3A15353   3.878  17.550   5.925 -0.3031  0.1016  0.1041
  960loPI   C4A15354   3.614  17.570   6.350  0.2961  0.1079 -0.0847
  960loPI   C5A15355   3.366  17.608   6.692  0.4581 -0.1941  0.0977
  960loPI   C6A15356   2.968  17.713   6.914 -0.0752 -0.0439 -0.0112
  960loPI   C1B15357   3.486  17.980   5.449 -0.0917  0.0255  0.0787
  960loPI   C2B15358   3.409  17.982   5.910  0.0625 -0.0037  0.1491
  960loPI   C3B15359   3.801  17.982   6.176 -0.1667 -0.2452 -0.1441
  960loPI   C4B15360   4.112  17.672   6.452  0.1553  0.0838 -0.3834
  961loPI    C115361   5.879   4.662   4.265 -0.0935 -0.2151  0.0751
  961loPI    C215362   5.671   5.000   4.213  0.0565 -0.1458 -0.0853
  961loPI    C315363   6.003   4.935   3.999  0.1470 -0.2984  0.0992
  961loPI   PO415364   5.657   4.449   4.384  0.0219  0.0258  0.3822
  961loPI   GL115365   5.682   4.273   4.839  0.1760  0.0855  0.1021
  961loPI   GL215366   5.860   4.495   4.876  0.1816  0.0128 -0.1592
  961loPI   C1A15367   5.717   4.113   5.184  0.0397  0.0044  0.2474
  961loPI   C2A15368   5.760   4.137   5.618 -0.0540 -0.3224 -0.0459
  961loPI   C3A15369   5.638   4.134   6.056 -0.2691 -0.0579  0.1203
  961loPI   C4A15370   5.782   4.242   6.439  0.1404  0.1995  0.0035
  961loPI   C5A15371   5.654   4.253   6.826 -0.2880 -0.0641  0.1296
  961loPI   C6A15372   5.396   4.439   7.217  0.4711 -0.4423  0.0923
  961loPI   C1B15373   5.849   4.590   5.276  0.1892 -0.2344 -0.3827
  961loPI   C2B15374   6.063   4.712   5.697  0.0639  0.0258 -0.3721
  961loPI   C3B15375   6.074   4.629   6.142  0.0011  0.2649 -0.1040
  961loPI   C4B15376   6.141   4.542   6.557  0.0917  0.0018 -0.0536
  962loPI    C115377  16.312   5.518   4.276 -0.3206  0.0612 -0.0733
  962loPI    C215378  16.454   5.145   4.257  0.2326  0.2639 -0.0847
  962loPI    C315379  16.469   5.381   3.935 -0.1365  0.2933 -0.0840
  962loPI   PO415380  16.479   5.628   4.480 -0.2722  0.0739 -0.1822
  962loPI   GL115381  16.410   5.760   4.893 -0.1039  0.0582  0.1537
  962loPI   GL215382  16.223   6.024   4.938 -0.0507 -0.1829 -0.0852
  962loPI   C1A15383  16.614   5.575   5.312  0.0072 -0.0038  0.3665
  962loPI   C2A15384  16.594   5.601   5.715  0.2976  0.0512 -0.0934
  962loPI   C3A15385  16.484   5.806   6.081  0.6981  0.1797 -0.1750
  962loPI   C4A15386  16.234   5.848   6.494  0.1895 -0.2090  0.0319
  962loPI   C5A15387  15.884   5.719   6.659  0.0922  0.0457 -0.2755
  962loPI   C6A15388  15.522   5.504   6.904 -0.0772 -0.3113 -0.0833
  962loPI   C1B15389  16.208   5.864   5.328 -0.1753  0.2699  0.0999
  962loPI   C2B15390  16.049   5.858   5.676 -0.2835 -0.3678  0.1605
  962loPI   C3B15391  15.957   5.784   6.051 -0.0202 -0.0938 -0.2812
  962loPI   C4B15392  15.628   5.404   5.943 -0.3465 -0.1124  0.1189
  963loPI    C115393   4.237  10.171   4.695 -0.0557  0.1071 -0.0410
  963loPI    C215394   4.072   9.923   4.963 -0.2035  0.2391 -0.0085
  963loPI    C315395   4.180   9.786   4.603 -0.0189  0.0641  0.1109
  963loPI   PO415396   4.446  10.353   4.881  0.0440 -0.0322  0.2879
  963loPI   GL115397   4.740  10.239   5.118  0.1782 -0.3043  0.0983
  963loPI   GL215398   4.504  10.023   5.257 -0.0463 -0.0215 -0.1229
  963loPI   C1A15399   5.086  10.258   5.475  0.0109  0.0799 -0.1630
  963loPI   C2A15400   5.120  10.276   6.037 -0.1329  0.3377  0.1190
  963loPI   C3A15401   5.233   9.933   6.307 -0.0749  0.1560 -0.0175
  963loPI   C4A15402   5.292   9.661   6.644 -0.2892  0.1861  0.1680
  963loPI   C5A15403   5.345   9.630   7.180 -0.1571  0.0195  0.1610
  963loPI   C6A15404   5.366   9.417   7.491  0.1214 -0.3423 -0.1757
  963loPI   C1B15405   4.677  10.046   5.761 -0.1351  0.0414 -0.0363
  963loPI   C2B15406   4.650   9.972   6.216  0.1569  0.2173 -0.0335
  963loPI   C3B15407   4.738   9.711   6.527  0.1836 -0.2234 -0.1313
  963loPI   C4B15408   4.615   9.685   6.876  0.1209 -0.1015  0.1546
  964loPI    C115409  12.493   0.303   3.956  0.1259  0.1318 -0.0571
  964loPI    C215410  12.369  -0.070   3.884  0.0429  0.1018  0.2311
  964loPI    C315411  12.577   0.128   3.606  0.0569 -0.1451  0.0622
  964loPI   PO415412  12.336   0.384   4.187 -0.0204  0.1601 -0.1181
  964loPI   GL115413  12.475   0.090   4.511  0.2345  0.1055 -0.2396
  964loPI   GL215414  12.253  -0.041   4.399  0.0886 -0.1103  0.2170
  964loPI   C1A15415  12.557   0.232   4.975  0.0726  0.0754 -0.0412
  964loPI   C2A15416  12.610   0.284   5.384  0.1934 -0.0410 -0.0640
  964loPI   C3A15417  12.475   0.310   5.838  0.2601 -0.3367  0.1769
  964loPI   C4A15418  12.285   0.280   6.263  0.1417 -0.1108 -0.0145
  964loPI   C5A15419  11.991   0.250   6.546 -0.0267 -0.1875  0.1239
  964loPI   C6A15420  12.041  -0.142   6.770 -0.1557 -0.0614  0.0692
  964loPI   C1B15421  12.092   0.168   4.809 -0.1584  0.0526 -0.0945
  964loPI   C2B15422  12.188   0.074   5.292 -0.0140 -0.0495  0.3483
  964loPI   C3B15423  12.352  -0.168   5.688 -0.3137  0.1061  0.1974
  964loPI   C4B15424  12.522  -0.310   6.065 -0.0318 -0.0561  0.0171
  965loPI    C115425   9.616  12.464   4.528 -0.0327 -0.1053  0.1645
  965loPI    C215426   9.977  12.304   4.587 -0.0582 -0.1476  0.2078
  965loPI    C315427   9.782  12.236   4.245  0.0159 -0.0455  0.1449
  965loPI   PO415428   9.546  12.520   4.813 -0.0847 -0.1856  0.2140
  965loPI   GL115429   9.492  12.401   5.227 -0.0971  0.0003  0.1619
  965loPI   GL215430   9.679  12.520   5.440 -0.1100  0.2121 -0.1383
  965loPI   C1A15431   9.606  12.071   5.609 -0.2593  0.1091  0.0867
  965loPI   C2A15432   9.679  12.034   6.186 -0.0350 -0.2765  0.1562
  965loPI   C3A15433   9.838  11.869   6.578 -0.3196  0.1213 -0.0144
  965loPI   C4A15434  10.132  11.736   6.836  0.2692 -0.0720 -0.1368
  965loPI   C5A15435  10.028  11.859   7.276  0.0926  0.3324  0.1159
  965loPI   C6A15436  10.176  12.139   7.514  0.2827 -0.1108  0.0450
  965loPI   C1B15437   9.580  12.580   5.800 -0.0140  0.4567 -0.1234
  965loPI   C2B15438   9.531  12.555   6.271 -0.0799  0.0185 -0.2004
  965loPI   C3B15439   9.623  12.393   6.628  0.0144 -0.1052  0.0340
  965loPI   C4B15440  10.005  12.361   7.020 -0.4046 -0.2272  0.0465
  966loPI    C115441   8.239   0.540   4.146  0.3016 -0.4144  0.3601
  966loPI    C215442   8.601   0.648   4.013 -0.1087  0.2476 -0.3032
  966loPI    C315443   8.433   0.309   3.883  0.2293 -0.0272 -0.0459
  966loPI   PO415444   8.241   0.624   4.396 -0.4268  0.1289 -0.2755
  966loPI   GL115445   8.340   0.861   4.781  0.2225 -0.2266  0.1959
  966loPI   GL215446   8.002   0.714   4.958  0.0030 -0.0006  0.0295
  966loPI   C1A15447   8.342   0.941   5.239  0.0575 -0.1637 -0.1395
  966loPI   C2A15448   8.401   1.047   5.649  0.0904  0.2499  0.0747
  966loPI   C3A15449   8.804   1.179   5.954  0.1975 -0.1084  0.1854
  966loPI   C4A15450   8.829   1.502   6.188 -0.3615  0.0388  0.2467
  966loPI   C5A15451   8.774   1.651   6.559 -0.1281 -0.1061  0.1846
  966loPI   C6A15452   8.695   1.869   6.882 -0.3435  0.0567  0.0652
  966loPI   C1B15453   7.932   0.774   5.477  0.1937 -0.1276  0.1095
  966loPI   C2B15454   8.046   0.730   5.838 -0.4229 -0.2592  0.0118
  966loPI   C3B15455   8.063   0.772   6.276 -0.1280 -0.1043  0.0550
  966loPI   C4B15456   7.900   0.877   6.785  0.1464 -0.2457  0.2066
  967loPI    C115457   7.468  13.635   4.743 -0.2412  0.3684 -0.0558
  967loPI    C215458   7.662  13.949   4.590  0.1182  0.1504 -0.0602
  967loPI    C315459   7.378  13.766   4.376  0.1188  0.2854 -0.1780
  967loPI   PO415460   7.541  13.689   5.021 -0.1374 -0.0928 -0.2073
  967loPI   GL115461   7.678  13.852   5.406  0.1135 -0.1380  0.2359
  967loPI   GL215462   7.766  14.099   5.456  0.0603  0.3206  0.0870
  967loPI   C1A15463   7.698  13.865   5.896 -0.1178 -0.1729 -0.1426
  967loPI   C2A15464   7.622  14.212   6.171  0.2114  0.3201  0.0766
  967loPI   C3A15465   7.732  14.263   6.568 -0.2954  0.1610 -0.3202
  967loPI   C4A15466   7.374  14.300   6.878  0.2612 -0.1705  0.1371
  967loPI   C5A15467   6.945  14.531   6.876  0.0580 -0.0083 -0.0993
  967loPI   C6A15468   6.564  14.440   6.897  0.2501  0.2108  0.1035
  967loPI   C1B15469   7.846  14.475   5.782  0.1831 -0.0861  0.1819
  967loPI   C2B15470   7.863  14.724   6.182  0.0308  0.2015  0.0885
  967loPI   C3B15471   8.050  14.873   6.505  0.1589  0.1822 -0.1041
  967loPI   C4B15472   8.225  15.171   6.671  0.1432  0.0180 -0.2192
  968loPI    C115473   6.392   2.213   4.289 -0.3637 -0.1543 -0.0608
  968loPI    C215474   6.295   2.566   4.450 -0.1121 -0.0053 -0.2277
  968loPI    C315475   6.169   2.226   4.620 -0.0683  0.1546  0.1327
  968loPI   PO415476   6.589   2.222   4.285 -0.1365 -0.0873  0.1007
  968loPI   GL115477   6.899   2.342   4.607 -0.1970  0.1109  0.1403
  968loPI   GL215478   7.231   2.298   4.622  0.1490 -0.0601 -0.2624
  968loPI   C1A15479   6.487   2.489   4.866  0.2786  0.1994 -0.1743
  968loPI   C2A15480   6.540   2.339   5.303  0.1322  0.0562 -0.1435
  968loPI   C3A15481   6.586   2.221   5.754 -0.1569  0.2966  0.1310
  968loPI   C4A15482   6.573   1.987   6.161  0.4480 -0.0919 -0.1740
  968loPI   C5A15483   6.528   1.909   6.570  0.2024 -0.3086  0.0561
  968loPI   C6A15484   6.631   1.566   6.874 -0.0653  0.4995 -0.2543
  968loPI   C1B15485   7.339   2.228   4.967 -0.0085  0.2790 -0.1179
  968loPI   C2B15486   7.459   2.172   5.364  0.0951  0.1584 -0.0681
  968loPI   C3B15487   7.597   2.092   5.733 -0.3241 -0.4414 -0.2655
  968loPI   C4B15488   7.662   2.172   6.099 -0.0585  0.0210  0.0182
  969loPI    C115489  19.048   4.486   4.614  0.0168  0.1079 -0.1384
  969loPI    C215490  19.257   4.392   4.286  0.1394  0.4794 -0.1714
  969loPI    C315491  18.885   4.534   4.252 -0.0098  0.1097 -0.1263
  969loPI   PO415492  19.108   4.377   4.764 -0.2176  0.1196 -0.0762
  969loPI   GL115493  19.135   4.139   5.186  0.1604  0.0948 -0.0651
  969loPI   GL215494  18.883   3.752   5.223  0.0400 -0.3329  0.0328
  969loPI   C1A15495  19.355   4.151   5.546 -0.0192 -0.0184  0.3009
  969loPI   C2A15496  19.270   4.024   5.894  0.0109  0.0555 -0.0314
  969loPI   C3A15497  19.249   3.793   6.238 -0.2657 -0.0289 -0.0301
  969loPI   C4A15498  19.083   3.546   6.582  0.0518 -0.1346 -0.2696
  969loPI   C5A15499  19.026   3.427   7.100  0.4336 -0.2950  0.0245
  969loPI   C6A15500  19.404   3.561   7.370  0.2097 -0.2446  0.0332
  969loPI   C1B15501  18.773   4.020   5.599  0.0239 -0.0650 -0.0081
  969loPI   C2B15502  18.734   4.151   6.019 -0.0429 -0.2198 -0.1799
  969loPI   C3B15503  18.415   4.317   6.420 -0.0056 -0.0179 -0.0253
  969loPI   C4B15504  18.229   4.138   6.745 -0.2183 -0.0125 -0.0671
  970loPI    C115505  18.534   1.721   4.046  0.0414  0.3372 -0.0325
  970loPI    C215506  18.217   1.920   3.905 -0.0851  0.2544  0.1317
  970loPI    C315507  18.585   2.018   3.782 -0.1729  0.3539 -0.0569
  970loPI   PO415508  18.406   1.672   4.294 -0.3175 -0.1615  0.2317
  970loPI   GL115509  18.325   1.827   4.724 -0.0631  0.0990 -0.2907
  970loPI   GL215510  18.513   2.087   4.851  0.1098 -0.1229  0.0031
  970loPI   C1A15511  18.459   1.711   5.163 -0.1252 -0.1937 -0.0460
  970loPI   C2A15512  18.475   1.495   5.674  0.1944 -0.3589 -0.0516
  970loPI   C3A15513  18.398   1.491   6.142 -0.1634  0.0551  0.3310
  970loPI   C4A15514  18.057   1.473   6.364  0.1299 -0.2048 -0.0136
  970loPI   C5A15515  17.858   1.680   6.721  0.2162 -0.0124 -0.3230
  970loPI   C6A15516  17.581   1.477   7.031 -0.3373 -0.1058 -0.1128
  970loPI   C1B15517  18.532   2.243   5.283  0.1143  0.3138  0.2051
  970loPI   C2B15518  18.405   1.972   5.645  0.0169 -0.1742  0.0110
  970loPI   C3B15519  18.137   1.837   5.914  0.2870 -0.1916 -0.3041
  970loPI   C4B15520  18.078   2.002   6.388  0.0370 -0.1561 -0.2324
  971loPI    C115521  14.834  12.152   4.415 -0.0555  0.2055  0.2027
  971loPI    C215522  15.149  11.906   4.440 -0.1200  0.1103  0.0850
  971loPI    C315523  15.160  12.222   4.194 -0.1543  0.0498  0.0054
  971loPI   PO415524  14.788  12.181   4.655  0.0016 -0.1365 -0.0845
  971loPI   GL115525  15.002  11.949   4.915  0.2099 -0.0747  0.0329
  971loPI   GL215526  14.820  12.124   5.188  0.2641  0.0345 -0.1329
  971loPI   C1A15527  15.321  12.219   5.166  0.0869 -0.0325  0.1207
  971loPI   C2A15528  15.539  12.197   5.554 -0.2966  0.0806 -0.1447
  971loPI   C3A15529  15.491  12.096   6.011 -0.2380  0.2837  0.1905
  971loPI   C4A15530  15.578  12.296   6.459 -0.3356 -0.0049  0.2786
  971loPI   C5A15531  15.744  12.683   6.637  0.1727 -0.1096  0.0892
  971loPI   C6A15532  15.733  13.104   6.566 -0.3835 -0.1016  0.1013
  971loPI   C1B15533  14.684  12.220   5.639  0.0036  0.1330  0.1772
  971loPI   C2B15534  14.625  12.140   6.148 -0.4632  0.2529  0.1821
  971loPI   C3B15535  14.604  12.041   6.564  0.1164  0.3747 -0.1485
  971loPI   C4B15536  14.434  11.757   6.756 -0.1662 -0.0573  0.1907
  972loPI    C115537  17.430  12.076   4.341  0.3230  0.0684  0.3220
  972loPI    C215538  17.489  12.423   4.152 -0.1616 -0.1787 -0.3220
  972loPI    C315539  17.777  12.145   4.154  0.0735  0.0605 -0.1605
  972loPI   PO415540  17.276  12.234   4.574 -0.0898 -0.0636  0.0062
  972loPI   GL115541  16.921  12.249   4.894  0.1250 -0.0391 -0.2039
  972loPI   GL215542  17.253  12.048   4.998 -0.1529 -0.0726 -0.1105
  972loPI   C1A15543  16.680  12.075   5.079  0.0037  0.2149 -0.2095
  972loPI   C2A15544  16.830  11.660   5.210 -0.3274  0.3277 -0.1708
  972loPI   C3A15545  16.945  11.370   5.509 -0.2099 -0.0868 -0.1181
  972loPI   C4A15546  17.035  11.441   6.013  0.0427 -0.1502 -0.3366
  972loPI   C5A15547  17.193  11.451   6.345  0.0222  0.1173  0.0036
  972loPI   C6A15548  17.332  11.615   6.782  0.3327 -0.0535 -0.1879
  972loPI   C1B15549  17.086  12.091   5.365 -0.2732  0.0253 -0.2287
  972loPI   C2B15550  17.101  11.926   5.739 -0.0428  0.2541  0.1382
  972loPI   C3B15551  17.344  11.859   6.097 -0.0395 -0.1923 -0.2792
  972loPI   C4B15552  17.285  12.000   6.516  0.0467  0.3097 -0.1672
  973loPI    C115553   1.808  -0.082   4.278 -0.2837  0.0993 -0.0173
  973loPI    C215554   1.985   0.254   4.151  0.1529 -0.1193 -0.0081
  973loPI    C315555   1.980  -0.070   3.917 -0.4670 -0.0487 -0.1112
  973loPI   PO415556   1.610  -0.054   4.435  0.2384  0.1653  0.1537
  973loPI   GL115557   1.635  -0.190   4.952 -0.3056  0.1814  0.2590
  973loPI   GL215558   1.637  -0.506   4.877  0.0315 -0.3505 -0.2570
  973loPI   C1A15559   1.310  -0.154   5.308 -0.1015  0.1763 -0.2139
  973loPI   C2A15560   1.220  -0.335   5.733 -0.1082 -0.1793 -0.0145
  973loPI   C3A15561   0.942  -0.340   6.069  0.1510  0.1204  0.0794
  973loPI   C4A15562   1.045  -0.312   6.581  0.2560  0.0001  0.1579
  973loPI   C5A15563   0.804   0.026   6.743  0.2584  0.1807 -0.1391
  973loPI   C6A15564   0.710   0.449   6.839  0.1156 -0.0637 -0.2714
  973loPI   C1B15565   1.583  -0.598   5.321 -0.0685 -0.0127  0.1648
  973loPI   C2B15566   1.699  -0.701   5.688 -0.1342 -0.3921  0.1540
  973loPI   C3B15567   1.783  -0.821   6.073  0.0657  0.0165 -0.1167
  973loPI   C4B15568   1.905  -0.929   6.512  0.1052 -0.0177 -0.0124
  974loPI    C115569  15.744   2.249   4.378 -0.1577  0.1486 -0.0264
  974loPI    C215570  15.472   2.458   4.174 -0.0104  0.2326 -0.1382
  974loPI    C315571  15.672   2.161   3.995 -0.0520  0.1491 -0.0468
  974loPI   PO415572  15.643   2.213   4.615  0.0621 -0.4183 -0.1102
  974loPI   GL115573  15.689   2.398   4.960  0.0241 -0.0827  0.0325
  974loPI   GL215574  15.993   2.267   5.135 -0.1858  0.0580 -0.2378
  974loPI   C1A15575  15.814   2.682   5.364 -0.0156  0.1385 -0.3815
  974loPI   C2A15576  15.904   2.801   5.747  0.0344  0.0070  0.1141
  974loPI   C3A15577  16.057   2.661   6.059 -0.3150  0.1417  0.3799
  974loPI   C4A15578  15.976   2.605   6.574 -0.4679 -0.1036  0.1918
  974loPI   C5A15579  15.878   2.789   6.862  0.0535 -0.1273 -0.1083
  974loPI   C6A15580  15.879   3.026   7.202 -0.2034 -0.0927  0.2623
  974loPI   C1B15581  16.183   2.285   5.461 -0.3530  0.1233  0.1999
  974loPI   C2B15582  16.242   2.213   6.020  0.0075 -0.4167  0.0791
  974loPI   C3B15583  16.007   2.182   6.315  0.2446 -0.0708 -0.0535
  974loPI   C4B15584  15.839   1.881   6.644 -0.0346  0.3018  0.0277
  975loPI    C115585  10.503   1.896   3.984 -0.1588 -0.0232  0.0478
  975loPI    C215586  10.628   1.546   3.836 -0.1703 -0.0887  0.1913
  975loPI    C315587  10.686   1.883   3.628 -0.0427 -0.1589  0.1116
  975loPI   PO415588  10.495   1.943   4.182  0.2996  0.0009  0.1178
  975loPI   GL115589  10.476   2.139   4.509 -0.1235  0.1979 -0.1447
  975loPI   GL215590  10.206   2.321   4.751  0.1230  0.0676 -0.1532
  975loPI   C1A15591  10.341   1.826   4.950  0.2285 -0.0913 -0.4243
  975loPI   C2A15592  10.441   1.807   5.338 -0.1687  0.4672 -0.0071
  975loPI   C3A15593  10.571   1.801   5.761 -0.3464  0.1711  0.0193
  975loPI   C4A15594  10.626   1.880   6.235  0.0437 -0.0443  0.0088
  975loPI   C5A15595  10.431   1.587   6.575 -0.0972  0.0403 -0.1438
  975loPI   C6A15596  10.294   1.121   6.592  0.0897  0.5186 -0.2020
  975loPI   C1B15597  10.164   2.283   5.195  0.0217 -0.1670 -0.1112
  975loPI   C2B15598  10.149   2.093   5.568  0.0264 -0.0276 -0.0082
  975loPI   C3B15599  10.222   2.176   5.963 -0.2224  0.1935  0.0036
  975loPI   C4B15600   9.993   2.239   6.335 -0.2825 -0.1383 -0.0948
  976loPI    C115601   2.714   4.439   4.636  0.2564 -0.2008  0.1586
  976loPI    C215602   2.999   4.184   4.517  0.6477  0.1366  0.3482
  976loPI    C315603   2.956   4.536   4.332  0.0436 -0.0948  0.0208
  976loPI   PO415604   2.797   4.512   4.865  0.2946 -0.0365  0.2271
  976loPI   GL115605   2.657   4.683   5.353 -0.2341 -0.1837 -0.0421
  976loPI   GL215606   2.557   4.357   5.292 -0.2098 -0.2482  0.0657
  976loPI   C1A15607   2.612   4.625   5.703  0.1352  0.0196 -0.1875
  976loPI   C2A15608   2.535   4.406   6.052  0.1215  0.0116  0.1383
  976loPI   C3A15609   2.646   4.382   6.462 -0.3167  0.0564  0.0193
  976loPI   C4A15610   2.727   4.287   6.928 -0.1269  0.3183 -0.0562
  976loPI   C5A15611   3.042   4.459   7.170  0.0520  0.1220  0.2641
  976loPI   C6A15612   3.180   4.664   7.555  0.0038 -0.1646  0.1475
  976loPI   C1B15613   2.643   4.050   5.681 -0.0479 -0.0455 -0.2627
  976loPI   C2B15614   2.665   3.631   5.989 -0.0565  0.0437  0.1877
  976loPI   C3B15615   2.796   3.475   6.378 -0.0748  0.0735  0.1498
  976loPI   C4B15616   2.681   3.417   6.815  0.1894 -0.0422  0.0437
  977loPI    C115617  11.262  15.744   4.202  0.1003 -0.1137 -0.1453
  977loPI    C215618  11.258  15.403   3.993 -0.0706 -0.0856 -0.1891
  977loPI    C315619  10.948  15.655   3.971 -0.0946 -0.0861  0.1048
  977loPI   PO415620  11.247  15.647   4.485  0.0307 -0.0960  0.0514
  977loPI   GL115621  11.099  15.659   4.912  0.1451  0.3628 -0.1638
  977loPI   GL215622  11.324  15.808   5.071  0.2343  0.0016  0.2500
  977loPI   C1A15623  11.140  15.314   5.271  0.0322  0.0099  0.2381
  977loPI   C2A15624  11.123  15.535   5.749  0.2720 -0.0063  0.3427
  977loPI   C3A15625  11.188  15.852   5.954 -0.0497  0.0521  0.2640
  977loPI   C4A15626  11.426  15.877   6.290  0.2212 -0.1444 -0.0303
  977loPI   C5A15627  11.540  15.929   6.704  0.1712 -0.1258 -0.0622
  977loPI   C6A15628  11.763  16.146   6.763  0.1602  0.1243 -0.0306
  977loPI   C1B15629  11.523  15.706   5.472  0.3890 -0.0648 -0.2075
  977loPI   C2B15630  11.654  15.691   5.896  0.0222 -0.0174  0.0680
  977loPI   C3B15631  11.696  15.395   6.393 -0.1861  0.0338 -0.1664
  977loPI   C4B15632  11.591  15.431   6.829  0.0562  0.3812 -0.4152
  978loPI    C115633  10.856  13.802   4.735 -0.0798 -0.0100  0.2165
  978loPI    C215634  10.521  13.614   4.623  0.0681 -0.1840  0.0567
  978loPI    C315635  10.868  13.417   4.627  0.1575 -0.0265  0.2971
  978loPI   PO415636  10.801  13.906   5.028  0.2204  0.0569 -0.0585
  978loPI   GL115637  10.529  14.149   5.333  0.0506 -0.1359 -0.1191
  978loPI   GL215638  10.362  13.855   5.514 -0.1071 -0.1921 -0.0059
  978loPI   C1A15639  10.468  14.391   5.704 -0.1558 -0.2440 -0.1363
  978loPI   C2A15640  10.556  14.349   6.125  0.0974 -0.2558 -0.1276
  978loPI   C3A15641  10.716  14.459   6.532 -0.2904  0.2311 -0.2029
  978loPI   C4A15642  10.995  14.391   6.882  0.1804 -0.2699 -0.1064
  978loPI   C5A15643  11.308  14.441   7.252 -0.0837 -0.1671 -0.0217
  978loPI   C6A15644  11.400  14.817   7.487  0.0663 -0.4971 -0.0449
  978loPI   C1B15645  10.458  13.623   5.946 -0.2466 -0.0429 -0.3739
  978loPI   C2B15646  10.418  13.453   6.344 -0.1852 -0.1099 -0.2461
  978loPI   C3B15647  10.497  13.560   6.740  0.2551 -0.1925 -0.2806
  978loPI   C4B15648  10.399  13.379   7.144 -0.0251 -0.2122 -0.0823
  979loPI    C115649  15.636   0.830   3.995 -0.0613 -0.0359  0.0075
  979loPI    C215650  15.670   1.189   3.822 -0.2003  0.0757  0.2076
  979loPI    C315651  15.858   0.873   3.665  0.0785  0.2726  0.1376
  979loPI   PO415652  15.385   0.970   4.165 -0.0033  0.2736  0.0242
  979loPI   GL115653  15.455   0.987   4.688  0.3377  0.3268 -0.0950
  979loPI   GL215654  15.106   0.758   4.572  0.2820  0.0444  0.1111
  979loPI   C1A15655  15.535   0.855   5.125  0.0036  0.1653  0.1426
  979loPI   C2A15656  15.452   0.496   5.395 -0.1264  0.1476 -0.0056
  979loPI   C3A15657  15.397   0.413   5.769 -0.0319  0.3797 -0.1852
  979loPI   C4A15658  15.440   0.319   6.207  0.2050  0.2625 -0.0378
  979loPI   C5A15659  15.545   0.464   6.560 -0.1520  0.0059  0.0272
  979loPI   C6A15660  15.812   0.673   6.839  0.1658  0.1297  0.1939
  979loPI   C1B15661  15.046   0.834   4.919 -0.1327 -0.2077  0.1328
  979loPI   C2B15662  15.016   0.962   5.276 -0.1388  0.1414 -0.0463
  979loPI   C3B15663  15.276   0.965   5.744 -0.0616 -0.1433  0.0603
  979loPI   C4B15664  15.202   0.751   6.115  0.3092  0.3691  0.0845
  980loPI    C115665   4.414   2.608   4.237 -0.0210 -0.1011  0.2623
  980loPI    C215666   4.364   2.619   3.840  0.3976  0.0578  0.2084
  980loPI    C315667   4.224   2.916   4.068  0.0642 -0.0846  0.1960
  980loPI   PO415668   4.295   2.436   4.378 -0.0628 -0.0775 -0.0188
  980loPI   GL115669   3.992   2.164   4.518  0.1590  0.0432  0.1803
  980loPI   GL215670   3.744   2.112   4.601  0.0029 -0.0370  0.0128
  980loPI   C1A15671   4.022   2.437   4.944  0.0195 -0.0543 -0.1068
  980loPI   C2A15672   3.787   2.775   5.291 -0.3131 -0.2925  0.0604
  980loPI   C3A15673   3.458   3.105   5.497 -0.1724  0.0424  0.3656
  980loPI   C4A15674   3.300   3.156   5.972 -0.1968  0.0581 -0.0759
  980loPI   C5A15675   3.193   3.145   6.323  0.0319 -0.0110 -0.2131
  980loPI   C6A15676   3.106   3.155   6.736  0.1435 -0.1393  0.3304
  980loPI   C1B15677   3.703   1.872   4.922 -0.0985 -0.0361  0.0126
  980loPI   C2B15678   3.964   1.725   5.369  0.2600 -0.1380  0.3448
  980loPI   C3B15679   4.351   1.458   5.483 -0.2676  0.3210 -0.2602
  980loPI   C4B15680   4.526   1.158   5.738 -0.3544 -0.4886 -0.1417
  981loPI    C115681  11.071  19.096   3.919  0.0124  0.0857 -0.1861
  981loPI    C215682  11.102  19.476   3.798  0.1590  0.0856 -0.1507
  981loPI    C315683  11.188  19.178   3.546 -0.1221  0.0703 -0.2321
  981loPI   PO415684  11.161  19.135   4.132  0.0847  0.3141 -0.0080
  981loPI   GL115685  11.480  19.138   4.437 -0.3261 -0.0067  0.0121
  981loPI   GL215686  11.724  19.033   4.563  0.0823 -0.1612  0.1203
  981loPI   C1A15687  11.441  19.385   4.828 -0.1080  0.1649  0.0434
  981loPI   C2A15688  11.366  19.303   5.251  0.3169 -0.2104 -0.2603
  981loPI   C3A15689  11.435  19.235   5.693 -0.3840  0.2356 -0.1212
  981loPI   C4A15690  11.579  19.523   5.995 -0.0735  0.1861  0.0670
  981loPI   C5A15691  11.508  19.862   6.362 -0.2655 -0.4725  0.1529
  981loPI   C6A15692  11.291  20.289   6.492 -0.2377 -0.1145  0.4067
  981loPI   C1B15693  11.714  19.003   5.002  0.0097 -0.0662 -0.0070
  981loPI   C2B15694  11.638  18.878   5.352  0.0055  0.0108  0.1403
  981loPI   C3B15695  11.630  18.845   5.841  0.1841  0.0387  0.0445
  981loPI   C4B15696  11.526  18.891   6.203 -0.1185  0.1946  0.1351
  982loPI    C115697  17.931   8.786   4.540  0.0782  0.0452  0.1442
  982loPI    C215698  18.177   8.964   4.280  0.1126 -0.1264  0.0578
  982loPI    C315699  17.794   9.078   4.304  0.1969  0.1358  0.1870
  982loPI   PO415700  18.024   8.728   4.753  0.4005 -0.0909  0.1660
  982loPI   GL115701  17.914   8.467   5.118  0.0264  0.0281  0.0096
  982loPI   GL215702  18.241   8.581   5.293  0.3660 -0.0215  0.0502
  982loPI   C1A15703  17.646   8.428   5.486 -0.0900 -0.1006 -0.0266
  982loPI   C2A15704  17.292   8.274   5.835 -0.3689  0.2612 -0.0427
  982loPI   C3A15705  17.217   8.676   6.244 -0.0095  0.0832  0.1364
  982loPI   C4A15706  17.250   8.811   6.622 -0.0337  0.2493  0.0702
  982loPI   C5A15707  17.319   8.947   7.054  0.1224 -0.0996 -0.0803
  982loPI   C6A15708  17.203   9.018   7.491  0.0027 -0.5224  0.2262
  982loPI   C1B15709  18.209   8.465   5.810  0.2545 -0.0001 -0.1371
  982loPI   C2B15710  18.220   8.392   6.241  0.1935  0.0306 -0.3967
  982loPI   C3B15711  18.083   8.311   6.643  0.1693  0.0982  0.3554
  982loPI   C4B15712  18.107   8.265   7.013 -0.0633 -0.1961 -0.3524
  983loPI    C115713   1.357  12.841   4.766  0.1431  0.1414  0.0466
  983loPI    C215714   1.157  12.676   4.461  0.0830  0.0884  0.1144
  983loPI    C315715   1.066  13.046   4.582  0.0787  0.0936  0.0952
  983loPI   PO415716   1.363  12.756   4.965 -0.3183  0.0215 -0.2340
  983loPI   GL115717   1.586  12.673   5.411  0.1327  0.1051  0.0036
  983loPI   GL215718   1.780  12.432   5.584 -0.0541 -0.3101  0.1537
  983loPI   C1A15719   1.636  12.711   5.972 -0.0268  0.2189  0.4032
  983loPI   C2A15720   1.711  12.883   6.397  0.1825  0.3265 -0.1670
  983loPI   C3A15721   1.751  12.997   6.885  0.1792 -0.0977 -0.0121
  983loPI   C4A15722   1.849  12.977   7.246  0.0772 -0.1741 -0.2447
  983loPI   C5A15723   1.808  13.264   7.534 -0.2039 -0.3101 -0.0398
  983loPI   C6A15724   2.079  13.639   7.725 -0.2199 -0.0939  0.1871
  983loPI   C1B15725   1.955  12.088   5.868  0.1483 -0.0534 -0.2327
  983loPI   C2B15726   1.898  11.808   6.224 -0.0827  0.1168 -0.3970
  983loPI   C3B15727   1.885  11.650   6.540 -0.0950 -0.2914  0.2979
  983loPI   C4B15728   1.856  11.358   6.681  0.3667 -0.0327  0.1242
  984loPI    C115729  18.855   1.247   4.570  0.1423  0.0871 -0.2787
  984loPI    C215730  18.843   1.373   4.190 -0.1301  0.1447 -0.2529
  984loPI    C315731  18.545   1.149   4.337  0.1339 -0.1581 -0.1677
  984loPI   PO415732  19.108   1.121   4.578  0.1674 -0.1685  0.3113
  984loPI   GL115733  19.095   0.868   4.972 -0.4997  0.2275  0.1437
  984loPI   GL215734  19.185   1.166   5.066  0.1802  0.0254  0.0291
  984loPI   C1A15735  18.810   0.723   5.375 -0.1618 -0.3130 -0.0795
  984loPI   C2A15736  18.951   0.650   5.760 -0.4943 -0.2407 -0.1994
  984loPI   C3A15737  18.838   0.641   6.232  0.0787  0.1586  0.0387
  984loPI   C4A15738  18.818   0.663   6.642  0.2597  0.1678  0.2417
  984loPI   C5A15739  18.726   0.896   7.038  0.1543 -0.1117  0.3246
  984loPI   C6A15740  18.732   1.332   7.089 -0.3193 -0.0814  0.1228
  984loPI   C1B15741  19.331   1.056   5.499  0.2501 -0.3106  0.2101
  984loPI   C2B15742  19.385   1.174   5.882  0.2230  0.0981 -0.0923
  984loPI   C3B15743  19.196   1.431   6.231  0.3201 -0.0044 -0.1806
  984loPI   C4B15744  18.989   1.609   6.611 -0.1162  0.2079 -0.2870
  985loPI    C115745   6.610  18.042   4.578  0.0064  0.1503  0.1549
  985loPI    C215746   6.598  18.382   4.369 -0.2889  0.0561  0.0133
  985loPI    C315747   6.592  18.030   4.179  0.0433 -0.0311  0.1575
  985loPI   PO415748   6.812  18.103   4.730  0.2927  0.0294  0.0865
  985loPI   GL115749   6.712  18.236   5.135 -0.2820  0.2186  0.1083
  985loPI   GL215750   6.508  17.971   5.165 -0.1003 -0.1131 -0.0781
  985loPI   C1A15751   6.808  18.360   5.570 -0.3532 -0.0397  0.3258
  985loPI   C2A15752   6.623  18.468   5.947 -0.1552  0.2177 -0.0772
  985loPI   C3A15753   6.698  18.315   6.339  0.1288 -0.3694 -0.0831
  985loPI   C4A15754   6.641  18.201   6.744  0.0447  0.1274  0.0762
  985loPI   C5A15755   6.368  17.912   7.136 -0.0690 -0.5456 -0.0410
  985loPI   C6A15756   6.079  17.671   7.229 -0.0195  0.2976  0.0589
  985loPI   C1B15757   6.250  18.124   5.449 -0.2038  0.0906 -0.2590
  985loPI   C2B15758   6.074  18.113   5.864  0.4255 -0.2166 -0.0430
  985loPI   C3B15759   5.697  18.100   6.190 -0.4789  0.0878 -0.1797
  985loPI   C4B15760   5.328  18.275   6.270 -0.2820  0.1910  0.0595
  986loPI    C115761  18.483  10.195   4.757 -0.2685  0.1539  0.0463
  986loPI    C215762  18.369   9.872   4.550  0.0143  0.1799 -0.1550
  986loPI    C315763  18.207  10.229   4.469 -0.1495  0.1249 -0.0722
  986loPI   PO415764  18.354  10.158   5.105  0.1343 -0.1474  0.0598
  986loPI   GL115765  18.497  10.298   5.443 -0.0591  0.1942 -0.1614
  986loPI   GL215766  18.843  10.424   5.293  0.2812  0.1783  0.0610
  986loPI   C1A15767  18.587  10.511   5.808 -0.2823 -0.0966 -0.1323
  986loPI   C2A15768  18.693  10.801   5.980  0.0811  0.2477  0.2143
  986loPI   C3A15769  18.881  10.802   6.366  0.0107 -0.0035 -0.3535
  986loPI   C4A15770  18.680  10.812   6.815 -0.0072 -0.1809  0.0475
  986loPI   C5A15771  18.451  10.749   7.179 -0.1984  0.2228  0.0056
  986loPI   C6A15772  18.401  10.536   7.601  0.2263  0.1758  0.0574
  986loPI   C1B15773  18.830  10.824   5.472 -0.1300 -0.2749 -0.0370
  986loPI   C2B15774  18.747  11.239   5.585  0.2632  0.0843  0.2804
  986loPI   C3B15775  18.563  11.294   5.864  0.1621 -0.3546 -0.0687
  986loPI   C4B15776  18.557  11.275   6.337  0.4945  0.0334  0.0786
  987loPI    C115777  11.271   5.892   4.347  0.0240  0.0115 -0.0029
  987loPI    C215778  10.931   5.785   4.164 -0.0933  0.1016  0.1595
  987loPI    C315779  11.281   5.754   3.971 -0.2108  0.1639 -0.0674
  987loPI   PO415780  11.186   6.038   4.510  0.1021 -0.0923 -0.1539
  987loPI   GL115781  11.256   5.842   4.927  0.0944 -0.3731 -0.1188
  987loPI   GL215782  11.489   5.723   5.063  0.1288 -0.1972  0.0622
  987loPI   C1A15783  11.191   6.046   5.361 -0.6105 -0.1549 -0.0069
  987loPI   C2A15784  10.918   6.196   5.656  0.2944  0.3376 -0.0508
  987loPI   C3A15785  10.542   6.475   5.693 -0.0419 -0.3495 -0.2145
  987loPI   C4A15786  10.457   6.794   6.079  0.0241 -0.0142  0.2257
  987loPI   C5A15787  10.914   7.092   6.191 -0.3534 -0.1955 -0.1513
  987loPI   C6A15788  10.937   7.520   6.281 -0.0169 -0.0472 -0.1673
  987loPI   C1B15789  11.556   5.614   5.420  0.0264 -0.0000  0.0798
  987loPI   C2B15790  11.609   5.486   5.933 -0.3414  0.1057 -0.1483
  987loPI   C3B15791  11.538   5.397   6.429 -0.4974  0.2853 -0.0337
  987loPI   C4B15792  11.585   5.291   6.884 -0.2947 -0.0998 -0.3473
  988loPI    C115793  16.242   0.889   4.390 -0.0352  0.2120  0.1631
  988loPI    C215794  16.106   0.649   4.101  0.0386  0.1004  0.2200
  988loPI    C315795  16.207   1.027   4.017  0.0725  0.0645  0.0977
  988loPI   PO415796  16.085   0.886   4.546 -0.1310  0.1946  0.0886
  988loPI   GL115797  16.263   0.890   4.919  0.1175 -0.1199  0.0565
  988loPI   GL215798  16.064   0.561   4.911 -0.2966  0.1658  0.0243
  988loPI   C1A15799  16.011   0.911   5.340 -0.1036  0.1086 -0.1515
  988loPI   C2A15800  15.828   0.772   5.592  0.2438 -0.1186  0.1005
  988loPI   C3A15801  15.821   0.604   6.032  0.1315 -0.0205 -0.1704
  988loPI   C4A15802  16.045   0.692   6.397 -0.0535 -0.2785  0.0973
  988loPI   C5A15803  16.146   1.062   6.628 -0.1586 -0.0408  0.0757
  988loPI   C6A15804  16.035   1.293   7.048  0.2023 -0.2268  0.2509
  988loPI   C1B15805  16.450   0.458   5.068  0.0317  0.0286  0.2039
  988loPI   C2B15806  16.720   0.644   5.345  0.0380 -0.1897 -0.0878
  988loPI   C3B15807  16.907   0.610   5.756 -0.0483  0.1267  0.1601
  988loPI   C4B15808  16.918   0.521   6.117 -0.0405 -0.0771  0.0593
  989loPI    C115809  10.928  16.495   4.679 -0.0336  0.0971  0.2171
  989loPI    C215810  11.231  16.284   4.833 -0.0427 -0.0634  0.0198
  989loPI    C315811  11.081  16.187   4.475 -0.0684  0.2602 -0.0606
  989loPI   PO415812  10.717  16.546   4.860 -0.2220  0.2300  0.0769
  989loPI   GL115813  10.865  16.834   5.233 -0.1027 -0.2389  0.0061
  989loPI   GL215814  11.050  17.122   5.262  0.2698 -0.3763 -0.2521
  989loPI   C1A15815  10.921  16.782   5.688 -0.1075 -0.0073  0.1989
  989loPI   C2A15816  11.016  16.864   6.085 -0.0410 -0.1786  0.0752
  989loPI   C3A15817  11.085  17.028   6.527  0.3106  0.1777 -0.2248
  989loPI   C4A15818  10.879  17.023   6.982 -0.1451  0.1480  0.1852
  989loPI   C5A15819  10.545  16.812   7.147  0.3320  0.2652  0.0208
  989loPI   C6A15820  10.102  16.792   6.879 -0.0840  0.0335  0.0509
  989loPI   C1B15821  11.276  17.067   5.655  0.0519 -0.0224 -0.0608
  989loPI   C2B15822  11.474  17.016   6.065  0.0049 -0.0013  0.0166
  989loPI   C3B15823  11.736  17.211   6.381  0.1836 -0.2147 -0.1911
  989loPI   C4B15824  11.661  17.527   6.719  0.2714 -0.4295 -0.1548
  990loPI    C115825   0.310  13.581   4.697  0.0132 -0.0976 -0.0758
  990loPI    C215826  -0.012  13.464   4.489 -0.2125  0.2373  0.0762
  990loPI    C315827   0.273  13.683   4.312  0.0190 -0.1975 -0.1031
  990loPI   PO415828   0.138  13.656   5.065  0.0103  0.1246 -0.2964
  990loPI   GL115829   0.155  13.658   5.500  0.1381 -0.0748 -0.1263
  990loPI   GL215830  -0.155  13.639   5.531  0.0808  0.1095  0.0228
  990loPI   C1A15831   0.430  13.472   5.750  0.3952  0.0737  0.0812
  990loPI   C2A15832   0.605  13.494   6.082 -0.1291  0.1847  0.0220
  990loPI   C3A15833   0.969  13.406   6.282  0.2377  0.1288  0.0857
  990loPI   C4A15834   1.224  13.417   6.579  0.0737  0.0152 -0.0002
  990loPI   C5A15835   1.347  13.416   6.973  0.2612 -0.1467  0.0473
  990loPI   C6A15836   1.312  13.381   7.424  0.0805 -0.2188  0.0616
  990loPI   C1B15837  -0.001  13.561   6.043 -0.0337 -0.1971  0.0749
  990loPI   C2B15838   0.242  13.536   6.445  0.1516 -0.2750 -0.2544
  990loPI   C3B15839   0.601  13.635   6.681  0.0988  0.0958  0.1203
  990loPI   C4B15840   1.035  13.826   6.891 -0.0617 -0.0525 -0.0954
  991loPI    C115841  13.713  19.460   4.018 -0.1199 -0.0950  0.1344
  991loPI    C215842  13.753  19.776   4.260 -0.0102  0.0477 -0.0662
  991loPI    C315843  13.390  19.666   4.132 -0.0368  0.1704 -0.0972
  991loPI   PO415844  13.946  19.409   3.959 -0.2245  0.1291  0.1436
  991loPI   GL115845  14.228  19.329   4.233  0.1858  0.1341 -0.0441
  991loPI   GL215846  14.217  19.672   4.412 -0.4259  0.2895  0.3312
  991loPI   C1A15847  14.094  19.159   4.655 -0.0612  0.1229  0.2603
  991loPI   C2A15848  13.898  19.187   4.963 -0.2475 -0.0448  0.2769
  991loPI   C3A15849  13.805  19.211   5.393 -0.0571  0.0136  0.1248
  991loPI   C4A15850  13.838  19.383   5.797 -0.0165  0.1313  0.0744
  991loPI   C5A15851  13.658  19.465   6.121  0.1295  0.0540 -0.0200
  991loPI   C6A15852  13.243  19.641   6.328  0.0030 -0.0327 -0.3343
  991loPI   C1B15853  14.018  19.736   4.787  0.0378  0.2420 -0.0414
  991loPI   C2B15854  13.698  19.622   5.075  0.2340  0.2275  0.0944
  991loPI   C3B15855  13.694  19.653   5.396 -0.3051  0.0490  0.0567
  991loPI   C4B15856  13.943  19.854   5.558 -0.3000  0.0826  0.1693
  992loPI    C115857  18.332   6.937   4.573  0.0963 -0.2493 -0.0781
  992loPI    C215858  18.199   6.822   4.932 -0.1063  0.0410 -0.0568
  992loPI    C315859  17.963   6.789   4.611 -0.1309  0.2974 -0.0671
  992loPI   PO415860  18.554   6.982   4.643  0.0132  0.1975 -0.1227
  992loPI   GL115861  18.568   7.173   5.007  0.1873  0.1140 -0.1727
  992loPI   GL215862  18.657   7.474   5.130  0.1380  0.0709 -0.0440
  992loPI   C1A15863  18.254   7.218   5.313 -0.3495 -0.4418  0.1340
  992loPI   C2A15864  18.124   6.952   5.651  0.0861  0.4890  0.1092
  992loPI   C3A15865  18.255   6.572   5.990 -0.0553 -0.2175  0.0705
  992loPI   C4A15866  18.158   6.425   6.428  0.1037 -0.0255 -0.1259
  992loPI   C5A15867  18.022   6.542   6.831 -0.1898 -0.1925 -0.1327
  992loPI   C6A15868  17.848   6.233   7.148 -0.1497 -0.2244  0.0085
  992loPI   C1B15869  18.829   7.741   5.459  0.2287  0.2392 -0.0930
  992loPI   C2B15870  18.912   7.933   5.816  0.0777  0.0407  0.1456
  992loPI   C3B15871  18.784   7.940   6.176 -0.2050  0.0823  0.1154
  992loPI   C4B15872  18.589   8.173   6.568 -0.2376  0.2138 -0.0838
  993loPI    C115873   8.052   5.604   4.707 -0.2388  0.1833 -0.0708
  993loPI    C215874   8.174   5.858   4.423 -0.0158  0.0929 -0.0579
  993loPI    C315875   8.096   5.476   4.330 -0.1756  0.1211 -0.0425
  993loPI   PO415876   7.840   5.891   4.877 -0.1201  0.0660 -0.2574
  993loPI   GL115877   7.578   5.937   5.200  0.2979 -0.3584  0.2446
  993loPI   GL215878   7.476   5.656   5.428 -0.4281  0.3472  0.1168
  993loPI   C1A15879   7.548   6.125   5.606 -0.0366  0.0871  0.1123
  993loPI   C2A15880   7.437   5.974   5.995  0.2872 -0.0351 -0.1144
  993loPI   C3A15881   7.601   5.980   6.470 -0.1658  0.0886  0.1103
  993loPI   C4A15882   7.409   6.085   6.839 -0.1256 -0.1543 -0.0259
  993loPI   C5A15883   7.612   5.813   7.156 -0.1128  0.0162  0.0000
  993loPI   C6A15884   7.796   5.346   7.372  0.0852  0.2223  0.2422
  993loPI   C1B15885   7.638   5.514   5.758  0.1148  0.0198 -0.1707
  993loPI   C2B15886   7.711   5.481   6.164 -0.1623  0.1239 -0.0194
  993loPI   C3B15887   7.919   5.401   6.618 -0.0304 -0.4744  0.0186
  993loPI   C4B15888   8.149   5.499   6.922  0.3219  0.1612  0.2380
  994loPI    C115889   7.660   8.037   5.027  0.1975  0.0749 -0.2141
  994loPI    C215890   7.980   7.983   5.262  0.0647  0.1350 -0.0174
  994loPI    C315891   7.982   7.847   4.886  0.2739  0.0255  0.0225
  994loPI   PO415892   7.503   7.924   5.132 -0.0732  0.2159 -0.2666
  994loPI   GL115893   7.170   8.124   5.324  0.1524  0.2547 -0.2496
  994loPI   GL215894   7.102   7.751   5.511 -0.1197  0.1864  0.2689
  994loPI   C1A15895   7.097   8.080   5.842 -0.2510 -0.5266 -0.1710
  994loPI   C2A15896   7.385   7.863   6.096  0.1386  0.2225  0.0787
  994loPI   C3A15897   7.695   8.138   6.464 -0.3548  0.0542  0.1015
  994loPI   C4A15898   7.883   8.104   6.802 -0.2016 -0.1531 -0.1792
  994loPI   C5A15899   7.605   8.152   7.212 -0.0563  0.5284 -0.2068
  994loPI   C6A15900   7.455   8.083   7.607 -0.2883  0.0726 -0.1718
  994loPI   C1B15901   6.990   7.577   5.923 -0.2163  0.0113  0.2923
  994loPI   C2B15902   6.939   7.807   6.320  0.1493 -0.3143  0.0703
  994loPI   C3B15903   6.693   7.923   6.622 -0.0470  0.0165 -0.0846
  994loPI   C4B15904   6.846   8.176   6.937  0.0642  0.2294  0.1105
  995loPI    C115905   3.136   1.022   3.989  0.3440  0.2785 -0.1936
  995loPI    C215906   3.132   0.658   3.822 -0.0617  0.1479  0.0845
  995loPI    C315907   3.119   0.985   3.591  0.1186 -0.0148 -0.1604
  995loPI   PO415908   3.176   1.095   4.277 -0.0110  0.2042  0.3934
  995loPI   GL115909   3.316   1.249   4.697  0.1939 -0.3489 -0.0889
  995loPI   GL215910   3.198   1.122   5.033 -0.2497  0.1180 -0.0660
  995loPI   C1A15911   3.633   0.901   4.907  0.2163 -0.1684 -0.0138
  995loPI   C2A15912   3.681   0.817   5.404  0.1382 -0.2030 -0.1345
  995loPI   C3A15913   3.790   0.550   5.778  0.0259  0.1638 -0.1557
  995loPI   C4A15914   3.789   0.443   6.140  0.2034  0.2366 -0.1171
  995loPI   C5A15915   3.790   0.616   6.525  0.1886  0.0362  0.1919
  995loPI   C6A15916   3.736   0.413   6.864  0.1637  0.0540  0.1076
  995loPI   C1B15917   3.262   1.068   5.363 -0.0037  0.1842 -0.2975
  995loPI   C2B15918   3.369   1.246   5.742  0.1029 -0.0271  0.0933
  995loPI   C3B15919   3.632   1.384   6.207 -0.0151  0.3391 -0.2381
  995loPI   C4B15920   3.753   1.114   6.534  0.0792 -0.3921  0.1742
  996loPI    C115921  14.357  16.800   4.109  0.0628  0.0040 -0.1516
  996loPI    C215922  14.300  16.765   3.715 -0.0047  0.1059 -0.1513
  996loPI    C315923  14.105  17.047   3.921  0.1245  0.1336 -0.0657
  996loPI   PO415924  14.257  16.611   4.293  0.0459  0.0146 -0.1346
  996loPI   GL115925  13.913  16.544   4.478  0.0591 -0.2590  0.0504
  996loPI   GL215926  13.665  16.503   4.580  0.0451  0.4597 -0.4238
  996loPI   C1A15927  14.061  16.586   4.963 -0.1223  0.3286 -0.0966
  996loPI   C2A15928  13.967  16.694   5.468 -0.0694  0.1862  0.1327
  996loPI   C3A15929  13.932  16.560   5.947  0.1577  0.3031  0.3318
  996loPI   C4A15930  13.870  16.629   6.367  0.2760 -0.0771  0.0203
  996loPI   C5A15931  13.618  16.783   6.648 -0.6198 -0.3938  0.0509
  996loPI   C6A15932  13.499  17.164   6.938  0.3915  0.0710  0.1998
  996loPI   C1B15933  13.547  16.567   4.997  0.0699 -0.1031  0.1690
  996loPI   C2B15934  13.510  16.566   5.429  0.1107  0.1573  0.0583
  996loPI   C3B15935  13.417  16.259   5.655 -0.0052 -0.3692 -0.4192
  996loPI   C4B15936  13.371  16.026   6.037  0.0518 -0.2254  0.1167
  997loPI    C115937   8.256  18.817   4.072  0.0660  0.2806  0.2136
  997loPI    C215938   8.015  19.052   3.857  0.0527  0.0575 -0.0204
  997loPI    C315939   8.058  18.667   3.759  0.1686 -0.0103  0.2846
  997loPI   PO415940   8.227  18.799   4.346  0.0323  0.0323 -0.0486
  997loPI   GL115941   8.051  18.891   4.703 -0.1368  0.0352  0.0830
  997loPI   GL215942   7.769  18.577   4.701 -0.1364 -0.1422 -0.1321
  997loPI   C1A15943   8.383  18.904   5.026  0.3035  0.0068  0.2962
  997loPI   C2A15944   8.342  19.026   5.342 -0.2572  0.2676 -0.2476
  997loPI   C3A15945   8.387  19.204   5.662  0.1670 -0.0017 -0.0911
  997loPI   C4A15946   8.460  19.307   6.094 -0.2562  0.1519  0.0920
  997loPI   C5A15947   8.453  19.603   6.502 -0.1437  0.0842 -0.0827
  997loPI   C6A15948   8.601  19.536   6.924  0.1048  0.1677  0.0298
  997loPI   C1B15949   7.868  18.825   5.137  0.0681  0.3437  0.0492
  997loPI   C2B15950   7.881  19.052   5.533  0.0783 -0.0009  0.2893
  997loPI   C3B15951   7.913  19.264   5.934 -0.0530  0.1434  0.3193
  997loPI   C4B15952   8.130  19.642   6.024  0.1931  0.1795  0.0898
  998loPI    C115953   2.437   4.076   4.773 -0.0231  0.0823  0.0772
  998loPI    C215954   2.191   3.888   4.519  0.0930  0.1127 -0.0595
  998loPI    C315955   2.226   4.286   4.506 -0.0230  0.1300  0.1147
  998loPI   PO415956   2.292   4.060   5.004 -0.1409 -0.1013 -0.3577
  998loPI   GL115957   2.135   3.897   5.350 -0.1288  0.0542  0.3452
  998loPI   GL215958   2.188   4.073   5.565  0.0570  0.2880 -0.0883
  998loPI   C1A15959   1.940   3.632   5.615 -0.0804 -0.1526  0.0327
  998loPI   C2A15960   1.757   3.316   5.901  0.1635 -0.0287 -0.2739
  998loPI   C3A15961   1.749   3.205   6.233 -0.0335  0.1054 -0.0266
  998loPI   C4A15962   1.815   3.108   6.711  0.1177 -0.0113  0.1837
  998loPI   C5A15963   1.615   2.763   6.853 -0.1443  0.0983 -0.0965
  998loPI   C6A15964   1.739   2.415   7.178 -0.0384 -0.1736 -0.1790
  998loPI   C1B15965   2.110   4.382   5.842  0.1590 -0.1281  0.1394
  998loPI   C2B15966   2.043   4.478   6.215 -0.1206 -0.1614  0.1992
  998loPI   C3B15967   2.112   4.522   6.683 -0.1385 -0.2885  0.0180
  998loPI   C4B15968   1.803   4.740   6.998 -0.1808  0.0420 -0.1615
  999loPI    C115969  14.758   4.717   4.132  0.3090 -0.0827 -0.0606
  999loPI    C215970  14.873   4.377   3.957  0.3791  0.0304 -0.2372
  999loPI    C315971  14.995   4.728   3.810  0.0923  0.1410 -0.2166
  999loPI   PO415972  14.779   4.754   4.342 -0.0471  0.0304 -0.1739
  999loPI   GL115973  15.114   4.662   4.685 -0.0263  0.3178 -0.1379
  999loPI   GL215974  15.114   4.871   5.007 -0.4397 -0.3221  0.0882
  999loPI   C1A15975  15.015   4.327   5.038  0.0412 -0.1840 -0.1238
  999loPI   C2A15976  15.084   4.349   5.493  0.1543 -0.1515  0.1310
  999loPI   C3A15977  15.072   4.555   5.918 -0.2214  0.0386  0.3710
  999loPI   C4A15978  15.111   4.911   6.113 -0.0582 -0.1383 -0.0812
  999loPI   C5A15979  15.411   5.161   6.251  0.1272 -0.0922  0.2545
  999loPI   C6A15980  15.504   5.524   6.406 -0.3766  0.0630 -0.0276
  999loPI   C1B15981  14.975   4.793   5.381 -0.1914 -0.0091 -0.1011
  999loPI   C2B15982  14.640   4.837   5.702  0.2786 -0.0168 -0.1290
  999loPI   C3B15983  14.649   4.576   6.079 -0.0911  0.0314 -0.0590
  999loPI   C4B15984  14.479   4.509   6.540 -0.1296  0.0844 -0.2112
 1000loPI    C115985  14.145   2.133   3.755 -0.0862  0.0939 -0.2091
 1000loPI    C215986  14.305   1.831   3.548 -0.3980 -0.1448 -0.1104
 1000loPI    C315987  14.313   2.202   3.399  0.3083 -0.1315 -0.0723
 1000loPI   PO415988  14.199   2.100   4.025  0.1032 -0.1745 -0.2929
 1000loPI   GL115989  14.133   1.856   4.450 -0.0537 -0.2532  0.2009
 1000loPI   GL215990  14.363   1.781   4.606 -0.1710 -0.0046 -0.1553
 1000loPI   C1A15991  13.946   1.934   4.864 -0.1060  0.0505 -0.1266
 1000loPI   C2A15992  13.790   1.926   5.155  0.2415  0.1713 -0.0212
 1000loPI   C3A15993  13.750   1.982   5.568  0.0273 -0.1885 -0.0146
 1000loPI   C4A15994  13.583   1.947   6.043  0.0964 -0.0389 -0.1825
 1000loPI   C5A15995  13.269   1.788   6.381  0.3742  0.0823  0.1889
 1000loPI   C6A15996  13.228   1.412   6.617 -0.1401  0.0591  0.0058
 1000loPI   C1B15997  14.423   2.063   4.863  0.2025  0.1383 -0.2109
 1000loPI   C2B15998  14.625   2.180   5.272  0.0920  0.0458  0.1772
 1000loPI   C3B15999  14.903   2.112   5.707  0.0525  0.0115 -0.0042
 1000loPI   C4B16000  15.273   2.377   5.794  0.1113  0.1237 -0.1063
 1001loPI    C116001   3.313  10.013   4.798  0.1069 -0.2300  0.1035
 1001loPI    C216002   3.671   9.951   4.631  0.0524  0.2634 -0.2178
 1001loPI    C316003   3.354  10.029   4.400 -0.1853  0.2103  0.0844
 1001loPI   PO416004   3.330  10.198   4.937  0.1570  0.2588 -0.3997
 1001loPI   GL116005   3.298  10.314   5.311  0.3403 -0.0633  0.1523
 1001loPI   GL216006   3.162   9.976   5.399  0.0996  0.2859  0.0741
 1001loPI   C1A16007   3.202  10.636   5.641  0.3040 -0.1447 -0.0401
 1001loPI   C2A16008   3.149  10.653   6.180 -0.1186  0.1753 -0.0161
 1001loPI   C3A16009   2.937  10.758   6.503 -0.1401 -0.2226  0.3034
 1001loPI   C4A16010   2.732  10.614   6.801 -0.2327 -0.4327 -0.2356
 1001loPI   C5A16011   2.609  10.444   7.234 -0.0479 -0.0279  0.2745
 1001loPI   C6A16012   3.000  10.458   7.513 -0.1412 -0.2478  0.0031
 1001loPI   C1B16013   3.335  10.135   5.770  0.2532  0.0947 -0.1051
 1001loPI   C2B16014   3.372  10.193   6.197  0.3764 -0.0337  0.5552
 1001loPI   C3B16015   3.342  10.232   6.637  0.1231 -0.0741 -0.0339
 1001loPI   C4B16016   3.141  10.374   7.019 -0.1091 -0.1323 -0.0148
 1002loPI    C116017  10.442  13.066   4.773 -0.0288 -0.0131 -0.2899
 1002loPI    C216018  10.163  13.144   5.049  0.3544  0.0640  0.0873
 1002loPI    C316019  10.147  13.324   4.692 -0.0216  0.1374  0.1364
 1002loPI   PO416020  10.636  13.074   4.938  0.0728 -0.1224  0.0526
 1002loPI   GL116021  10.823  13.040   5.382  0.0561 -0.0656  0.0454
 1002loPI   GL216022  10.469  13.045   5.422  0.0823  0.0444  0.1306
 1002loPI   C1A16023  10.884  13.122   5.871  0.0125  0.3268  0.1852
 1002loPI   C2A16024  10.975  13.224   6.227  0.1348  0.2464 -0.1725
 1002loPI   C3A16025  11.043  13.517   6.575  0.1935 -0.0429 -0.1605
 1002loPI   C4A16026  10.916  13.398   6.983  0.0890 -0.4299  0.0919
 1002loPI   C5A16027  11.050  13.234   7.366  0.0711  0.0281 -0.0647
 1002loPI   C6A16028  10.854  12.787   7.484  0.2644  0.1196 -0.0530
 1002loPI   C1B16029  10.491  12.810   5.712  0.3700 -0.1249 -0.0865
 1002loPI   C2B16030  10.559  12.584   5.938  0.0773  0.2675 -0.0739
 1002loPI   C3B16031  10.522  12.520   6.360  0.0030 -0.0569  0.1670
 1002loPI   C4B16032  10.526  12.497   6.801  0.2876  0.1816 -0.0449
 1003loPI    C116033  17.497  16.571   4.345  0.0464 -0.1299  0.0377
 1003loPI    C216034  17.266  16.465   4.036 -0.0605 -0.1331  0.1181
 1003loPI    C316035  17.651  16.556   3.976 -0.1296  0.0595 -0.0455
 1003loPI   PO416036  17.373  16.522   4.577  0.3305  0.1556  0.3219
 1003loPI   GL116037  17.246  16.329   4.915 -0.2297 -0.0004  0.1787
 1003loPI   GL216038  16.929  16.483   4.920  0.0697  0.2196  0.1915
 1003loPI   C1A16039  17.346  16.254   5.338 -0.0375  0.1835  0.0556
 1003loPI   C2A16040  17.494  16.458   5.746  0.0945  0.3983 -0.1843
 1003loPI   C3A16041  17.579  16.813   5.996  0.1445  0.0038  0.0937
 1003loPI   C4A16042  17.943  16.823   6.321 -0.0525  0.1493 -0.2226
 1003loPI   C5A16043  18.089  16.835   6.840  0.0392 -0.4282 -0.0717
 1003loPI   C6A16044  17.779  16.719   7.251  0.0671  0.0820  0.0677
 1003loPI   C1B16045  16.820  16.511   5.322 -0.3105 -0.0875 -0.2118
 1003loPI   C2B16046  16.904  16.420   5.726 -0.1680 -0.3959 -0.0221
 1003loPI   C3B16047  17.072  16.603   6.114 -0.3048  0.4161  0.0482
 1003loPI   C4B16048  17.516  16.429   6.337  0.1401 -0.2665  0.2134
 1004loPI    C116049  13.647   8.357   4.039 -0.0824  0.0232  0.0364
 1004loPI    C216050  13.564   8.742   3.969 -0.0635  0.0207  0.0002
 1004loPI    C316051  13.581   8.483   3.665 -0.2162 -0.0364  0.0393
 1004loPI   PO416052  13.753   8.354   4.338  0.1569  0.1606 -0.0085
 1004loPI   GL116053  13.736   8.358   4.762 -0.0158 -0.0652  0.1655
 1004loPI   GL216054  13.373   8.346   4.840  0.0658 -0.1268 -0.1694
 1004loPI   C1A16055  13.859   8.125   5.061 -0.0456  0.2106 -0.2237
 1004loPI   C2A16056  13.691   7.965   5.412  0.0223  0.2089 -0.0944
 1004loPI   C3A16057  13.764   7.681   5.768  0.3098  0.0772  0.0017
 1004loPI   C4A16058  13.998   7.601   6.124  0.2096 -0.1824 -0.1501
 1004loPI   C5A16059  14.134   7.416   6.566  0.2200 -0.0444 -0.2107
 1004loPI   C6A16060  13.957   7.225   6.969 -0.1079 -0.0034 -0.1595
 1004loPI   C1B16061  13.242   8.223   5.350  0.3653  0.1825  0.4702
 1004loPI   C2B16062  13.286   7.948   5.713  0.0191  0.1871  0.1833
 1004loPI   C3B16063  13.437   7.839   6.144 -0.0936  0.3742 -0.0079
 1004loPI   C4B16064  13.270   7.584   6.302 -0.2167 -0.1352 -0.0943
 1005loPI    C116065   0.205  10.942   4.518 -0.2073 -0.0521 -0.1427
 1005loPI    C216066  -0.138  10.894   4.318 -0.2538  0.0109 -0.0789
 1005loPI    C316067   0.114  11.188   4.216 -0.0529 -0.2501 -0.3538
 1005loPI   PO416068   0.126  10.863   4.762  0.3523  0.2510  0.0303
 1005loPI   GL116069  -0.101  10.777   5.095  0.0605  0.1891 -0.0404
 1005loPI   GL216070   0.251  10.857   5.216  0.1580 -0.2408  0.0838
 1005loPI   C1A16071  -0.065  10.712   5.633 -0.3194  0.3567 -0.2949
 1005loPI   C2A16072   0.061  10.412   5.934  0.1192  0.0704 -0.0495
 1005loPI   C3A16073   0.093   9.956   5.989 -0.1498 -0.0335 -0.2774
 1005loPI   C4A16074   0.091   9.785   6.441 -0.1408  0.1302  0.1390
 1005loPI   C5A16075   0.174   9.611   6.852  0.1081  0.0513 -0.1324
 1005loPI   C6A16076  -0.099   9.378   7.171  0.1645 -0.1809 -0.0390
 1005loPI   C1B16077   0.398  10.588   5.546  0.1926  0.0455  0.0762
 1005loPI   C2B16078   0.415  10.777   5.947  0.1178  0.2257 -0.1334
 1005loPI   C3B16079   0.558  10.766   6.318 -0.4723 -0.0448  0.1731
 1005loPI   C4B16080   0.780  10.939   6.711 -0.3702  0.0813 -0.0575
 1006loPI    C116081  17.242   3.274   4.497  0.0508  0.2168  0.1022
 1006loPI    C216082  17.088   3.594   4.313 -0.0054  0.0755 -0.1004
 1006loPI    C316083  17.201   3.275   4.099  0.0133 -0.0563  0.1028
 1006loPI   PO416084  17.078   3.280   4.690  0.2596  0.0812 -0.1705
 1006loPI   GL116085  16.997   3.031   5.064  0.0445  0.1893 -0.2289
 1006loPI   GL216086  17.264   3.136   5.242 -0.1764  0.0739  0.0229
 1006loPI   C1A16087  16.885   2.908   5.463 -0.1237 -0.1118  0.0385
 1006loPI   C2A16088  16.986   2.752   5.941  0.0060  0.0426 -0.1347
 1006loPI   C3A16089  16.935   2.682   6.370 -0.3579  0.4312  0.0794
 1006loPI   C4A16090  16.854   2.508   6.796 -0.0989 -0.1859  0.2149
 1006loPI   C5A16091  16.745   2.051   6.917  0.1416  0.2686 -0.0252
 1006loPI   C6A16092  16.741   1.680   6.776 -0.0068 -0.2127 -0.1728
 1006loPI   C1B16093  17.390   2.995   5.674  0.0576  0.1058 -0.3307
 1006loPI   C2B16094  17.553   3.026   6.109  0.0798 -0.2068  0.3494
 1006loPI   C3B16095  17.774   3.142   6.456 -0.2043  0.1869  0.1721
 1006loPI   C4B16096  17.995   3.289   6.880 -0.1489 -0.0012 -0.1743
 1007loPI    C116097  16.412   2.816   4.170 -0.1604  0.0399 -0.0854
 1007loPI    C216098  16.766   2.977   4.265 -0.1190 -0.0571 -0.0737
 1007loPI    C316099  16.684   2.884   3.885 -0.1003 -0.1101 -0.0648
 1007loPI   PO416100  16.312   2.585   4.441  0.1740  0.1486 -0.1443
 1007loPI   GL116101  16.120   2.720   4.930 -0.1270  0.0302  0.1580
 1007loPI   GL216102  16.384   2.454   4.986 -0.0910  0.0514  0.3491
 1007loPI   C1A16103  16.327   3.009   5.274 -0.2307 -0.0862  0.3079
 1007loPI   C2A16104  16.339   3.150   5.716  0.0736  0.0234 -0.0161
 1007loPI   C3A16105  16.075   3.165   6.042 -0.1312 -0.3276 -0.1591
 1007loPI   C4A16106  15.764   3.038   6.251  0.1136  0.2302  0.0209
 1007loPI   C5A16107  15.500   2.814   6.484  0.0229 -0.0233  0.0657
 1007loPI   C6A16108  15.209   2.429   6.530 -0.0484  0.1098  0.0462
 1007loPI   C1B16109  16.670   2.569   5.209  0.0641  0.1150  0.2762
 1007loPI   C2B16110  16.458   2.645   5.691 -0.0388  0.2476 -0.1282
 1007loPI   C3B16111  16.484   2.900   6.093  0.1788 -0.2433  0.2339
 1007loPI   C4B16112  16.469   2.956   6.536  0.2495  0.0016  0.1317
 1008loPI    C116113   8.830   1.753   4.302  0.2162 -0.0514 -0.1484
 1008loPI    C216114   9.196   1.595   4.270  0.2683  0.0677 -0.1439
 1008loPI    C316115   8.874   1.367   4.204  0.3444 -0.0194 -0.2187
 1008loPI   PO416116   8.775   1.789   4.465  0.4239  0.1608 -0.3218
 1008loPI   GL116117   9.060   1.640   4.741  0.1969 -0.0117 -0.0463
 1008loPI   GL216118   9.269   1.470   4.957 -0.2491 -0.0774 -0.0078
 1008loPI   C1A16119   8.767   1.700   5.125  0.2766 -0.0704 -0.0793
 1008loPI   C2A16120   8.559   1.983   5.414  0.2278  0.0665  0.1476
 1008loPI   C3A16121   8.567   2.372   5.659 -0.0267 -0.1024 -0.0730
 1008loPI   C4A16122   8.510   2.436   6.091  0.3190 -0.2546  0.1909
 1008loPI   C5A16123   8.072   2.453   6.286 -0.4249  0.1607 -0.0052
 1008loPI   C6A16124   7.840   2.706   6.602 -0.2163 -0.3872 -0.1247
 1008loPI   C1B16125   9.351   1.611   5.319 -0.1208 -0.1528 -0.2733
 1008loPI   C2B16126   9.383   1.747   5.726 -0.0646  0.1840  0.1028
 1008loPI   C3B16127   9.201   1.755   6.047  0.2519 -0.2914 -0.0366
 1008loPI   C4B16128   9.248   1.949   6.445  0.2353 -0.1366 -0.3128
 1009loPI    C116129   3.770   9.428   4.590 -0.0783  0.3131 -0.2147
 1009loPI    C216130   3.388   9.531   4.533 -0.1838 -0.0430 -0.1770
 1009loPI    C316131   3.552   9.240   4.312  0.0362  0.0370 -0.1217
 1009loPI   PO416132   3.732   9.489   4.896 -0.2257  0.1867  0.1348
 1009loPI   GL116133   3.651   9.866   5.170 -0.0865  0.0851 -0.1572
 1009loPI   GL216134   3.610   9.641   5.550  0.3194  0.1907 -0.0597
 1009loPI   C1A16135   3.800  10.112   5.464 -0.1013  0.0356 -0.1305
 1009loPI   C2A16136   3.836   9.926   5.908  0.4646 -0.1907  0.0527
 1009loPI   C3A16137   3.767   9.898   6.357 -0.1775 -0.1450 -0.0055
 1009loPI   C4A16138   3.855  10.002   6.741  0.0359 -0.1061  0.0209
 1009loPI   C5A16139   4.006   9.845   7.250  0.1807  0.0761  0.0746
 1009loPI   C6A16140   4.218   9.498   7.450  0.1843  0.0637 -0.2111
 1009loPI   C1B16141   3.393   9.674   5.922  0.0653  0.1051  0.1638
 1009loPI   C2B16142   3.293   9.722   6.282  0.0826 -0.0369  0.5743
 1009loPI   C3B16143   3.162   9.754   6.722 -0.1914 -0.1608  0.0208
 1009loPI   C4B16144   3.218   9.909   7.121 -0.0031 -0.0119 -0.0191
 1010loPI    C116145  11.194  14.499   4.530 -0.1684 -0.0554  0.2435
 1010loPI    C216146  10.879  14.534   4.286  0.0595 -0.0530 -0.0567
 1010loPI    C316147  11.023  14.172   4.377 -0.1598 -0.0656  0.2558
 1010loPI   PO416148  11.153  14.689   4.714  0.1164 -0.2494 -0.0264
 1010loPI   GL116149  10.924  14.867   5.086 -0.2781 -0.0107  0.0231
 1010loPI   GL216150  10.691  14.696   5.085  0.3110  0.0839 -0.1898
 1010loPI   C1A16151  11.063  14.724   5.468 -0.3527 -0.2571 -0.1212
 1010loPI   C2A16152  10.908  14.635   5.894 -0.1059  0.2485 -0.1087
 1010loPI   C3A16153  11.156  14.573   6.330  0.1886  0.2309 -0.2043
 1010loPI   C4A16154  11.492  14.404   6.570  0.2144 -0.2408  0.0557
 1010loPI   C5A16155  11.779  14.097   6.502  0.0305 -0.1525 -0.0331
 1010loPI   C6A16156  11.908  13.798   6.794  0.1827 -0.2280 -0.2973
 1010loPI   C1B16157  10.525  14.785   5.421 -0.1340 -0.0058  0.1985
 1010loPI   C2B16158  10.403  14.901   5.878 -0.1445  0.2923  0.0211
 1010loPI   C3B16159  10.502  14.881   6.299  0.0271  0.2720 -0.2332
 1010loPI   C4B16160  10.381  15.057   6.776 -0.0056 -0.1287  0.1321
 1011loPI    C116161  15.967   9.234   3.963  0.2562 -0.0225 -0.1789
 1011loPI    C216162  16.142   9.581   3.870 -0.0025  0.1977  0.1302
 1011loPI    C316163  16.362   9.247   3.899  0.2684  0.3561 -0.0483
 1011loPI   PO416164  15.886   9.304   4.208 -0.2677  0.0606  0.1180
 1011loPI   GL116165  15.854   9.263   4.679 -0.1614  0.2065  0.1529
 1011loPI   GL216166  15.540   9.136   4.665 -0.2125 -0.0003  0.1950
 1011loPI   C1A16167  15.652   9.279   5.132  0.0053  0.1047  0.0079
 1011loPI   C2A16168  15.517   9.495   5.580 -0.1852  0.1783 -0.2180
 1011loPI   C3A16169  15.332   9.504   5.930  0.0547 -0.2208 -0.1536
 1011loPI   C4A16170  15.203   9.782   6.260 -0.0407 -0.2244  0.0223
 1011loPI   C5A16171  15.010  10.235   6.388 -0.1381 -0.1406 -0.3077
 1011loPI   C6A16172  15.163  10.544   6.561 -0.1270 -0.0683 -0.1056
 1011loPI   C1B16173  15.415   8.844   5.099  0.6030  0.1853 -0.0462
 1011loPI   C2B16174  15.473   8.935   5.520  0.2346 -0.1942 -0.1855
 1011loPI   C3B16175  15.479   9.012   5.922 -0.1336 -0.0613  0.1742
 1011loPI   C4B16176  15.451   9.106   6.289  0.2960  0.0920  0.1849
 1012loPI    C116177  18.854   9.610   4.676  0.1240  0.0962  0.2294
 1012loPI    C216178  19.128   9.368   4.514 -0.0847 -0.0681  0.1178
 1012loPI    C316179  19.001   9.689   4.312  0.0137  0.0002  0.1636
 1012loPI   PO416180  18.811   9.420   4.891  0.0307 -0.2345 -0.1184
 1012loPI   GL116181  18.680   9.070   5.183 -0.0310  0.0658  0.3035
 1012loPI   GL216182  18.372   9.121   5.332 -0.1069  0.0678  0.0018
 1012loPI   C1A16183  18.862   9.211   5.553  0.0839 -0.1883  0.0596
 1012loPI   C2A16184  18.923   9.538   5.803  0.0748  0.1576 -0.2772
 1012loPI   C3A16185  19.055   9.830   6.091 -0.1471 -0.0162  0.0284
 1012loPI   C4A16186  18.958  10.305   6.212 -0.2014 -0.2910  0.0265
 1012loPI   C5A16187  18.486  10.390   6.398 -0.1529  0.1736 -0.1396
 1012loPI   C6A16188  18.027  10.365   6.571 -0.1816  0.0281 -0.4765
 1012loPI   C1B16189  18.295   8.964   5.689 -0.1885 -0.0889 -0.0418
 1012loPI   C2B16190  18.262   8.877   6.097  0.0594 -0.0321  0.0108
 1012loPI   C3B16191  18.009   8.779   6.502  0.2593  0.4013  0.0997
 1012loPI   C4B16192  17.743   9.015   6.570  0.3562 -0.2938  0.0720
 1013loPI    C116193   1.962   8.075   4.890  0.0834 -0.2098  0.0499
 1013loPI    C216194   2.003   7.683   4.959  0.2463 -0.1742  0.1596
 1013loPI    C316195   2.099   7.834   4.601 -0.2768 -0.3068 -0.0463
 1013loPI   PO416196   1.873   8.131   5.211  0.2973 -0.3608 -0.1997
 1013loPI   GL116197   1.948   8.038   5.611 -0.0388  0.0633  0.1889
 1013loPI   GL216198   2.234   7.987   5.752  0.3221 -0.1486  0.1072
 1013loPI   C1A16199   1.729   8.142   5.976 -0.2359 -0.0412  0.2477
 1013loPI   C2A16200   1.818   8.270   6.377 -0.1312  0.1918 -0.0263
 1013loPI   C3A16201   1.820   8.418   6.678  0.3566  0.1938 -0.0901
 1013loPI   C4A16202   1.673   8.543   7.030  0.0499 -0.1487  0.0672
 1013loPI   C5A16203   1.922   8.425   7.342 -0.2679 -0.1092 -0.2157
 1013loPI   C6A16204   1.869   8.373   7.815 -0.2822  0.1812 -0.2188
 1013loPI   C1B16205   2.101   7.669   6.073  0.0041 -0.3420  0.0084
 1013loPI   C2B16206   2.051   7.399   6.418  0.1926  0.1142 -0.0820
 1013loPI   C3B16207   1.662   7.275   6.661 -0.0821 -0.0852  0.0888
 1013loPI   C4B16208   1.264   7.225   6.590 -0.0202 -0.0640 -0.3031
 1014loPI    C116209   6.187  18.709   4.534  0.2090 -0.1533 -0.0611
 1014loPI    C216210   6.122  18.389   4.304 -0.0132 -0.0684 -0.1189
 1014loPI    C316211   6.302  18.712   4.151 -0.2033  0.0055 -0.1882
 1014loPI   PO416212   6.359  18.645   4.745  0.0517 -0.0933  0.2457
 1014loPI   GL116213   6.508  18.762   4.965 -0.2480 -0.0385 -0.0403
 1014loPI   GL216214   6.285  18.567   5.194 -0.0649 -0.3491 -0.1407
 1014loPI   C1A16215   6.804  18.755   5.214  0.0588 -0.0661  0.0378
 1014loPI   C2A16216   6.967  18.887   5.574  0.0239 -0.2972 -0.3345
 1014loPI   C3A16217   7.019  19.037   5.962 -0.0848 -0.0900 -0.3601
 1014loPI   C4A16218   7.364  19.056   6.206 -0.1128 -0.1212  0.0833
 1014loPI   C5A16219   7.596  19.279   6.473 -0.0827 -0.2879  0.1624
 1014loPI   C6A16220   7.695  19.479   6.786  0.0428  0.0573  0.1599
 1014loPI   C1B16221   6.225  18.665   5.612  0.2016 -0.2574  0.0709
 1014loPI   C2B16222   6.124  18.792   6.047 -0.1976  0.2725  0.2552
 1014loPI   C3B16223   6.232  18.463   6.313  0.3802 -0.3410  0.4800
 1014loPI   C4B16224   6.172  18.415   6.654  0.1273  0.2245 -0.2086
 1015loPI    C116225  17.998   0.585   4.154  0.3376  0.3557  0.0636
 1015loPI    C216226  18.143   0.943   4.051  0.2479  0.3571 -0.0601
 1015loPI    C316227  18.235   0.620   3.834 -0.2995  0.4292 -0.4209
 1015loPI   PO416228  18.051   0.424   4.415  0.6104  0.0565  0.0625
 1015loPI   GL116229  18.310   0.340   4.806 -0.4528 -0.1248 -0.2390
 1015loPI   GL216230  18.129   0.588   4.990 -0.1153  0.0600  0.0257
 1015loPI   C1A16231  18.339   0.092   5.136  0.0757 -0.1771 -0.0457
 1015loPI   C2A16232  18.174   0.075   5.593  0.0746 -0.4351  0.2570
 1015loPI   C3A16233  18.061   0.004   6.001 -0.1833  0.2282  0.1293
 1015loPI   C4A16234  17.892   0.054   6.491  0.0529 -0.3582 -0.3218
 1015loPI   C5A16235  18.125  -0.100   6.840 -0.0232 -0.0279 -0.2980
 1015loPI   C6A16236  18.425  -0.104   7.003  0.2262  0.2372  0.0363
 1015loPI   C1B16237  17.945   0.452   5.357 -0.2715 -0.0308  0.1727
 1015loPI   C2B16238  17.651   0.302   5.716  0.1259  0.1492 -0.0227
 1015loPI   C3B16239  17.521   0.188   6.165  0.1155 -0.0534  0.1366
 1015loPI   C4B16240  17.368   0.376   6.504 -0.1574  0.2505  0.1032
 1016loPI    C116241   3.364   5.785   4.897 -0.2920 -0.2347 -0.0923
 1016loPI    C216242   3.210   6.154   4.880  0.0550 -0.0924 -0.2541
 1016loPI    C316243   3.281   5.950   4.543  0.0237 -0.2406 -0.1722
 1016loPI   PO416244   3.544   5.849   5.106 -0.0563  0.2873  0.2579
 1016loPI   GL116245   3.589   5.888   5.489 -0.0758 -0.1380 -0.1549
 1016loPI   GL216246   3.152   5.766   5.449 -0.0615  0.0401  0.1001
 1016loPI   C1A16247   3.860   6.199   5.772 -0.0813  0.1097  0.1477
 1016loPI   C2A16248   3.687   6.278   6.126 -0.3249 -0.0601  0.1579
 1016loPI   C3A16249   3.637   6.458   6.526  0.3149 -0.1358 -0.2778
 1016loPI   C4A16250   3.834   6.589   6.960  0.0140  0.1053 -0.1318
 1016loPI   C5A16251   3.949   6.931   7.207 -0.3741  0.0188 -0.0011
 1016loPI   C6A16252   4.198   7.085   7.609  0.3289  0.1581 -0.2000
 1016loPI   C1B16253   2.940   5.836   5.898 -0.4057 -0.0200  0.2244
 1016loPI   C2B16254   2.928   5.845   6.350 -0.0698  0.1258  0.3121
 1016loPI   C3B16255   2.913   5.796   6.797  0.2238  0.1323  0.1738
 1016loPI   C4B16256   3.071   5.947   7.245  0.0149 -0.0359 -0.2305
 1017loPI    C116257  17.554  11.566   4.396  0.0941  0.2767  0.1161
 1017loPI    C216258  17.246  11.646   4.154 -0.0129  0.2561  0.2445
 1017loPI    C316259  17.619  11.649   4.010 -0.0947 -0.0192  0.0170
 1017loPI   PO416260  17.430  11.303   4.466 -0.1602 -0.2200  0.0427
 1017loPI   GL116261  17.479  11.222   4.884 -0.1000 -0.0714 -0.1289
 1017loPI   GL216262  17.546  11.479   4.989 -0.1178  0.1106  0.0195
 1017loPI   C1A16263  17.294  11.038   5.271  0.1603  0.0048  0.0397
 1017loPI   C2A16264  17.312  10.859   5.696  0.0952 -0.0231 -0.0877
 1017loPI   C3A16265  17.232  10.785   6.211 -0.1103  0.1024 -0.0439
 1017loPI   C4A16266  17.465  11.043   6.607  0.1671  0.1803 -0.0646
 1017loPI   C5A16267  17.799  11.345   6.533 -0.1494  0.0175 -0.1098
 1017loPI   C6A16268  17.669  11.616   6.343 -0.3098  0.1292 -0.0767
 1017loPI   C1B16269  17.418  11.567   5.366 -0.2039 -0.2629  0.0391
 1017loPI   C2B16270  17.459  11.350   5.704 -0.1978  0.0538 -0.3133
 1017loPI   C3B16271  17.542  11.181   6.128 -0.0123 -0.0737  0.0771
 1017loPI   C4B16272  17.735  10.861   6.208  0.2139 -0.0606  0.1190
 1018loPI    C116273   6.260   5.871   4.329  0.1751  0.1968 -0.0072
 1018loPI    C216274   6.212   6.266   4.285  0.0658  0.1784 -0.0564
 1018loPI    C316275   6.343   6.045   3.979 -0.1229  0.1384 -0.1098
 1018loPI   PO416276   6.416   5.872   4.583  0.4364 -0.1710 -0.4304
 1018loPI   GL116277   6.182   6.137   4.942  0.1429  0.0048 -0.0449
 1018loPI   GL216278   6.079   6.436   4.855  0.0370 -0.0670 -0.2005
 1018loPI   C1A16279   6.138   6.040   5.340  0.0695 -0.3078  0.0210
 1018loPI   C2A16280   6.202   5.992   5.803 -0.0721  0.0705 -0.0213
 1018loPI   C3A16281   6.390   6.091   6.216 -0.4225  0.0184  0.3972
 1018loPI   C4A16282   6.257   6.037   6.639 -0.1511 -0.0110  0.2051
 1018loPI   C5A16283   6.046   6.197   7.003  0.1061  0.0552  0.3104
 1018loPI   C6A16284   5.477   6.170   7.079  0.0200  0.1185 -0.1373
 1018loPI   C1B16285   6.397   6.481   5.289  0.1719  0.0975 -0.0551
 1018loPI   C2B16286   6.187   6.542   5.740 -0.1842 -0.2702  0.0070
 1018loPI   C3B16287   6.008   6.779   6.166 -0.0255  0.0969  0.1938
 1018loPI   C4B16288   5.810   6.965   6.486  0.2688  0.0068  0.2554
 1019loPI    C116289   8.615  11.851   5.085 -0.1355 -0.5326 -0.0857
 1019loPI    C216290   8.317  11.720   4.852 -0.2328 -0.2944 -0.0987
 1019loPI    C316291   8.648  11.873   4.687 -0.3351 -0.0522 -0.0819
 1019loPI   PO416292   8.566  11.756   5.312 -0.0066 -0.0920 -0.2495
 1019loPI   GL116293   8.263  11.681   5.629  0.1694  0.0915  0.0925
 1019loPI   GL216294   8.163  11.909   5.879  0.1485  0.5798 -0.2031
 1019loPI   C1A16295   8.524  11.384   5.881 -0.4592 -0.1080 -0.5033
 1019loPI   C2A16296   8.803  11.442   6.160 -0.0296 -0.1176 -0.1178
 1019loPI   C3A16297   9.111  11.258   6.312 -0.1942 -0.1198 -0.1594
 1019loPI   C4A16298   9.296  11.184   6.669 -0.2553  0.0591 -0.1008
 1019loPI   C5A16299   9.284  11.172   7.020 -0.1523  0.1430 -0.3698
 1019loPI   C6A16300   9.307  11.243   7.553 -0.0892 -0.0199 -0.1479
 1019loPI   C1B16301   8.206  11.681   6.112 -0.1506  0.0900 -0.2524
 1019loPI   C2B16302   8.363  11.471   6.458  0.0413 -0.0043  0.1506
 1019loPI   C3B16303   8.784  11.322   6.688  0.1220 -0.0955  0.0740
 1019loPI   C4B16304   8.872  11.449   7.215 -0.2554 -0.1276  0.0546
 1020loPI    C116305   6.323   1.294   4.196 -0.0067  0.1457 -0.0572
 1020loPI    C216306   6.084   0.993   4.085 -0.0443  0.1296  0.0658
 1020loPI    C316307   6.299   1.190   3.811 -0.1101  0.0684 -0.0302
 1020loPI   PO416308   6.491   1.144   4.451  0.0302 -0.0276  0.2510
 1020loPI   GL116309   6.314   1.267   4.715 -0.1802  0.3957 -0.0406
 1020loPI   GL216310   6.124   0.968   4.845  0.1097  0.0870  0.1577
 1020loPI   C1A16311   6.539   1.351   5.037  0.0805 -0.0194 -0.0243
 1020loPI   C2A16312   6.440   1.358   5.500 -0.0068  0.1827  0.1204
 1020loPI   C3A16313   6.500   1.114   5.831 -0.2063 -0.4111 -0.1665
 1020loPI   C4A16314   6.469   0.980   6.286  0.1392  0.3547 -0.0191
 1020loPI   C5A16315   6.403   1.191   6.651  0.1259  0.2836 -0.0433
 1020loPI   C6A16316   6.289   1.213   7.017  0.0873 -0.1301 -0.3390
 1020loPI   C1B16317   5.853   1.114   5.154  0.1536 -0.0415 -0.1988
 1020loPI   C2B16318   5.792   1.354   5.460  0.1268 -0.1182 -0.0159
 1020loPI   C3B16319   6.003   1.301   5.847  0.0256  0.3101 -0.1180
 1020loPI   C4B16320   6.037   1.182   6.292  0.1542 -0.1757 -0.0319
 1021loPI    C116321   1.872  15.619   4.714  0.1118 -0.1783  0.0381
 1021loPI    C216322   1.955  15.431   4.371 -0.1630  0.1822 -0.2345
 1021loPI    C316323   1.615  15.350   4.566  0.1800 -0.3255  0.1832
 1021loPI   PO416324   2.127  15.627   4.818  0.1954 -0.1762 -0.1418
 1021loPI   GL116325   2.431  15.770   5.050 -0.0756  0.0864 -0.1910
 1021loPI   GL216326   2.776  15.693   5.144 -0.1877 -0.2197  0.3193
 1021loPI   C1A16327   2.303  16.114   5.396 -0.1249  0.1000  0.1117
 1021loPI   C2A16328   2.430  16.143   5.864 -0.0864 -0.0117  0.1132
 1021loPI   C3A16329   2.607  16.205   6.197 -0.0808  0.2687  0.4452
 1021loPI   C4A16330   2.767  16.189   6.661 -0.1169 -0.0332  0.1949
 1021loPI   C5A16331   3.099  15.925   6.789  0.2495 -0.5094  0.0959
 1021loPI   C6A16332   3.355  15.565   6.815  0.2216 -0.1444  0.2337
 1021loPI   C1B16333   2.721  15.821   5.511 -0.1158  0.1777  0.0025
 1021loPI   C2B16334   2.829  15.966   5.829 -0.1918  0.0327  0.0589
 1021loPI   C3B16335   3.080  16.085   6.229  0.0201 -0.1230  0.3772
 1021loPI   C4B16336   3.480  15.995   6.405 -0.2061 -0.1635 -0.3767
 1022loPI    C116337   4.812   2.693   3.908 -0.1649  0.0773  0.0063
 1022loPI    C216338   4.704   3.076   3.945 -0.0226  0.0993  0.2106
 1022loPI    C316339   4.745   2.914   3.582 -0.0017  0.3011  0.1216
 1022loPI   PO416340   4.908   2.632   4.200 -0.3646 -0.0589  0.0640
 1022loPI   GL116341   4.843   2.551   4.614 -0.1713  0.0535  0.1940
 1022loPI   GL216342   4.801   2.249   4.506  0.3746 -0.0313  0.0091
 1022loPI   C1A16343   4.607   2.465   4.968 -0.2048  0.1346 -0.2814
 1022loPI   C2A16344   4.458   2.529   5.435 -0.0896  0.0296 -0.3289
 1022loPI   C3A16345   4.590   2.550   5.897 -0.1709 -0.2207 -0.2914
 1022loPI   C4A16346   4.411   2.800   6.190  0.0488 -0.1423  0.0099
 1022loPI   C5A16347   3.994   3.003   6.347 -0.2458 -0.0659  0.2690
 1022loPI   C6A16348   3.665   2.800   6.415  0.0857 -0.0597 -0.1297
 1022loPI   C1B16349   4.764   1.963   4.904  0.1083  0.1310 -0.2309
 1022loPI   C2B16350   4.721   1.672   5.219 -0.0241  0.1911 -0.4995
 1022loPI   C3B16351   4.852   1.526   5.614  0.3677 -0.1721 -0.2705
 1022loPI   C4B16352   4.976   1.490   6.010  0.1277  0.0282  0.4219
 1023loPI    C116353  13.894   0.606   3.943  0.0762 -0.1907  0.0413
 1023loPI    C216354  14.226   0.810   4.037  0.1784 -0.3358 -0.0018
 1023loPI    C316355  13.958   0.969   3.786  0.0689 -0.0910  0.2649
 1023loPI   PO416356  13.810   0.506   4.069  0.1738 -0.0793 -0.0909
 1023loPI   GL116357  14.104   0.507   4.495 -0.0164  0.1111 -0.1217
 1023loPI   GL216358  14.096   0.820   4.633  0.1171 -0.1015  0.5616
 1023loPI   C1A16359  14.075   0.443   4.945  0.0468  0.1559 -0.2809
 1023loPI   C2A16360  14.085   0.615   5.399  0.0883  0.1553  0.3193
 1023loPI   C3A16361  13.870   0.901   5.704 -0.1582  0.3129  0.2516
 1023loPI   C4A16362  13.698   0.863   6.136 -0.1355 -0.1133  0.2651
 1023loPI   C5A16363  13.776   1.087   6.561 -0.0883  0.0181 -0.0268
 1023loPI   C6A16364  13.629   1.337   6.883  0.2572 -0.6074 -0.2650
 1023loPI   C1B16365  14.101   0.930   4.965 -0.0135  0.1069  0.1780
 1023loPI   C2B16366  14.174   1.101   5.372  0.1211 -0.2471  0.0838
 1023loPI   C3B16367  13.932   1.398   5.490 -0.3201 -0.1798 -0.1835
 1023loPI   C4B16368  13.960   1.605   5.835  0.0940  0.0788 -0.0742
 1024loPI    C116369   3.073   7.710   4.608  0.2250  0.1034 -0.0980
 1024loPI    C216370   2.906   7.346   4.606 -0.2615  0.3185 -0.0454
 1024loPI    C316371   2.872   7.584   4.287  0.2419  0.2437 -0.1643
 1024loPI   PO416372   3.343   7.731   4.790  0.1061  0.3247  0.0666
 1024loPI   GL116373   3.329   7.857   5.204 -0.0767 -0.2421  0.1676
 1024loPI   GL216374   3.330   8.063   5.286  0.2080  0.1100  0.3551
 1024loPI   C1A16375   3.633   7.704   5.569  0.2012  0.0335 -0.0697
 1024loPI   C2A16376   3.670   7.639   5.918  0.0895  0.1379 -0.1291
 1024loPI   C3A16377   3.437   7.752   6.372 -0.0149  0.2255 -0.0314
 1024loPI   C4A16378   3.296   7.811   6.731 -0.1955 -0.0035 -0.0652
 1024loPI   C5A16379   3.340   8.036   7.078  0.0937 -0.2361  0.1311
 1024loPI   C6A16380   3.369   8.453   7.114  0.1182 -0.1388 -0.2454
 1024loPI   C1B16381   3.236   8.081   5.659 -0.1387  0.0981 -0.2521
 1024loPI   C2B16382   3.189   8.171   6.078  0.0774  0.0516  0.2649
 1024loPI   C3B16383   3.368   8.319   6.460 -0.1637  0.4704  0.0270
 1024loPI   C4B16384   3.718   8.395   6.765  0.2884 -0.0078  0.1263
 1025loPI    C116385   1.543   8.825   4.628 -0.4441 -0.0777  0.0940
 1025loPI    C216386   1.820   8.837   4.340 -0.4389  0.1971  0.1080
 1025loPI    C316387   1.462   8.674   4.266 -0.2534 -0.2232  0.1109
 1025loPI   PO416388   1.507   9.031   4.868 -0.0160  0.1884 -0.0488
 1025loPI   GL116389   1.415   8.993   5.424 -0.0384  0.0413 -0.2182
 1025loPI   GL216390   1.663   9.200   5.334  0.0582 -0.0324  0.1863
 1025loPI   C1A16391   1.300   9.402   5.621  0.1689 -0.0261  0.0547
 1025loPI   C2A16392   1.077   9.814   5.714  0.1670 -0.1790  0.0683
 1025loPI   C3A16393   1.011  10.024   6.023 -0.1547  0.3664  0.1160
 1025loPI   C4A16394   0.868   9.948   6.318 -0.2208  0.0171 -0.0435
 1025loPI   C5A16395   0.681   9.878   6.656  0.2185  0.0973 -0.0928
 1025loPI   C6A16396   0.706   9.557   6.940 -0.1167 -0.0063 -0.0756
 1025loPI   C1B16397   1.723   9.165   5.803 -0.0397  0.3343 -0.0360
 1025loPI   C2B16398   1.453   9.168   6.090 -0.1285  0.1981  0.1206
 1025loPI   C3B16399   1.512   9.330   6.501 -0.0316 -0.3995  0.0540
 1025loPI   C4B16400   1.839   9.413   6.826  0.0088  0.2228  0.0512
 1026loPI    C116401  12.823   2.960   3.987  0.1216 -0.1696  0.0197
 1026loPI    C216402  12.761   2.595   4.139  0.2372 -0.1535  0.1071
 1026loPI    C316403  12.869   2.637   3.756  0.0312 -0.1992  0.0429
 1026loPI   PO416404  13.019   3.113   4.137  0.0171 -0.1094 -0.4529
 1026loPI   GL116405  12.801   3.278   4.452  0.1076  0.1308 -0.0969
 1026loPI   GL216406  12.665   3.029   4.528 -0.0302  0.0062  0.2228
 1026loPI   C1A16407  12.950   3.377   4.880  0.0939  0.1680 -0.2380
 1026loPI   C2A16408  12.990   3.408   5.260  0.0209 -0.1905  0.0249
 1026loPI   C3A16409  12.681   3.491   5.600 -0.0258  0.0061  0.3233
 1026loPI   C4A16410  12.624   3.681   5.993  0.1452 -0.4187  0.0066
 1026loPI   C5A16411  12.310   3.730   6.336  0.2716  0.0520 -0.1411
 1026loPI   C6A16412  12.261   3.467   6.555 -0.2587  0.0611 -0.0055
 1026loPI   C1B16413  12.591   2.943   4.946 -0.0537 -0.2140  0.0127
 1026loPI   C2B16414  12.579   2.641   5.286  0.0019 -0.1418 -0.0284
 1026loPI   C3B16415  12.483   2.220   5.448 -0.2311 -0.2159 -0.1592
 1026loPI   C4B16416  12.743   1.875   5.540  0.2935  0.0477 -0.1874
 1027loPI    C116417  14.974   2.321   4.160  0.0836 -0.1921 -0.1077
 1027loPI    C216418  15.041   2.704   4.065  0.1246 -0.2650 -0.3826
 1027loPI    C316419  15.042   2.424   3.779  0.1630 -0.4809 -0.1744
 1027loPI   PO416420  15.020   2.348   4.442  0.0123  0.1995  0.1391
 1027loPI   GL116421  14.856   1.973   4.664 -0.4097 -0.0441 -0.1517
 1027loPI   GL216422  15.021   1.748   4.795  0.0976 -0.0042 -0.3997
 1027loPI   C1A16423  15.057   2.077   5.117  0.0963  0.0473 -0.0827
 1027loPI   C2A16424  15.273   1.905   5.450  0.0628 -0.1105  0.1625
 1027loPI   C3A16425  15.560   1.840   5.800 -0.0163  0.1743  0.0861
 1027loPI   C4A16426  15.531   1.892   6.260 -0.2618  0.2155  0.0868
 1027loPI   C5A16427  15.288   1.942   6.583 -0.1051  0.1176  0.2185
 1027loPI   C6A16428  14.831   1.846   6.613 -0.2023  0.0729  0.0786
 1027loPI   C1B16429  14.689   1.706   5.049 -0.0859  0.1822 -0.0560
 1027loPI   C2B16430  14.754   1.718   5.458 -0.2396 -0.0471 -0.1245
 1027loPI   C3B16431  14.587   1.605   5.933  0.1461 -0.2891  0.3103
 1027loPI   C4B16432  14.441   1.394   6.314 -0.1628  0.1564 -0.1226
 1028loPI    C116433  13.505  12.836   4.918 -0.0658 -0.1636 -0.1031
 1028loPI    C216434  13.528  12.836   5.317 -0.0016 -0.2003 -0.1066
 1028loPI    C316435  13.712  13.122   5.106 -0.2351 -0.0419 -0.0994
 1028loPI   PO416436  13.131  12.779   4.869  0.1142 -0.2197 -0.1911
 1028loPI   GL116437  12.864  12.822   5.182 -0.2214  0.1107  0.1898
 1028loPI   GL216438  12.851  12.512   5.138  0.0174 -0.0318  0.1036
 1028loPI   C1A16439  12.715  12.965   5.545 -0.0230  0.2764  0.1766
 1028loPI   C2A16440  12.736  12.937   6.059  0.0271  0.1574  0.0967
 1028loPI   C3A16441  12.747  12.682   6.493 -0.1588 -0.2018  0.1303
 1028loPI   C4A16442  12.990  12.299   6.638  0.0111  0.2865 -0.1376
 1028loPI   C5A16443  13.436  12.202   6.673 -0.0258  0.0451  0.0792
 1028loPI   C6A16444  13.785  12.528   6.638 -0.2962  0.0193 -0.0086
 1028loPI   C1B16445  12.718  12.395   5.431 -0.1285 -0.0828 -0.0065
 1028loPI   C2B16446  12.733  12.456   5.867 -0.1395 -0.1639 -0.1552
 1028loPI   C3B16447  12.626  12.259   6.276  0.1136  0.3675  0.2488
 1028loPI   C4B16448  12.452  12.348   6.700 -0.0242  0.1843  0.3088
 1029loPI    C116449  11.824   2.121   4.209  0.1192 -0.1642  0.1908
 1029loPI    C216450  11.768   1.788   3.995 -0.1548 -0.0731  0.1159
 1029loPI    C316451  11.738   2.145   3.819 -0.0923 -0.0033  0.2453
 1029loPI   PO416452  11.735   2.088   4.426  0.0063  0.0602 -0.1226
 1029loPI   GL116453  11.578   2.236   4.832  0.1865  0.2500 -0.0916
 1029loPI   GL216454  11.345   2.069   4.863  0.0621 -0.3901  0.1574
 1029loPI   C1A16455  11.549   2.382   5.255  0.1436  0.0143 -0.1165
 1029loPI   C2A16456  11.215   2.366   5.596  0.2048  0.0032  0.0986
 1029loPI   C3A16457  11.160   2.297   6.100  0.2664  0.3165 -0.0200
 1029loPI   C4A16458  11.164   2.248   6.469  0.1417 -0.1522  0.0918
 1029loPI   C5A16459  11.173   2.341   6.965  0.1016  0.1870 -0.3086
 1029loPI   C6A16460  11.340   2.312   7.435  0.1992 -0.1033 -0.1168
 1029loPI   C1B16461  11.006   2.245   5.085  0.0875  0.2689 -0.0675
 1029loPI   C2B16462  10.902   1.973   5.430  0.2522  0.0366 -0.0546
 1029loPI   C3B16463  11.060   1.925   5.773  0.4371  0.1457  0.1229
 1029loPI   C4B16464  11.321   1.800   6.208 -0.0716 -0.1060  0.0199
 1030loPI    C116465   2.380   9.607   4.606 -0.1844  0.2079  0.1116
 1030loPI    C216466   2.296   9.230   4.500  0.2127  0.0988  0.1688
 1030loPI    C316467   2.161   9.535   4.278  0.0169 -0.0807  0.0372
 1030loPI   PO416468   2.412   9.614   4.884  0.1254 -0.0558 -0.2129
 1030loPI   GL116469   2.212   9.575   5.321 -0.0536  0.1467  0.3257
 1030loPI   GL216470   2.007   9.724   5.155  0.2070  0.2656 -0.1242
 1030loPI   C1A16471   2.180   9.516   5.761 -0.3754 -0.2391  0.0804
 1030loPI   C2A16472   2.433   9.459   6.165  0.2415  0.1032 -0.0754
 1030loPI   C3A16473   2.350   9.224   6.552 -0.0175 -0.1165  0.0226
 1030loPI   C4A16474   2.320   9.213   6.981 -0.3854  0.1054 -0.2888
 1030loPI   C5A16475   2.398   9.298   7.531 -0.0016  0.2384 -0.2979
 1030loPI   C6A16476   2.107   9.176   7.866  0.0855 -0.0400  0.1862
 1030loPI   C1B16477   1.763   9.682   5.531  0.0655  0.1191  0.3226
 1030loPI   C2B16478   1.640   9.609   5.879 -0.3842  0.2498 -0.1787
 1030loPI   C3B16479   1.507   9.744   6.270 -0.0800  0.1183  0.1285
 1030loPI   C4B16480   1.750   9.931   6.607  0.1222 -0.0650  0.0547
 1031loPI    C116481  10.146   9.329   4.435 -0.2261 -0.0270 -0.1674
 1031loPI    C216482  10.493   9.258   4.250 -0.1838  0.0455 -0.1166
 1031loPI    C316483  10.224   9.501   4.082 -0.1485  0.1052 -0.0869
 1031loPI   PO416484  10.223   9.280   4.740 -0.0495  0.0553  0.0034
 1031loPI   GL116485  10.159   9.282   5.113  0.0726  0.2551 -0.1284
 1031loPI   GL216486   9.942   9.117   5.353  0.1623  0.1735 -0.0143
 1031loPI   C1A16487  10.358   9.209   5.564  0.0153  0.1455 -0.2573
 1031loPI   C2A16488  10.622   9.052   6.014  0.1305  0.2131 -0.0282
 1031loPI   C3A16489  10.773   8.871   6.328 -0.1236  0.0727  0.2100
 1031loPI   C4A16490  10.619   8.760   6.781 -0.0118  0.1825 -0.0784
 1031loPI   C5A16491  10.388   8.633   7.260  0.0600  0.1702  0.0424
 1031loPI   C6A16492  10.033   8.334   7.377  0.2889  0.5085 -0.1694
 1031loPI   C1B16493   9.879   9.254   5.761  0.0815  0.2234 -0.1561
 1031loPI   C2B16494   9.830   9.297   6.192  0.2069  0.0540 -0.0010
 1031loPI   C3B16495   9.946   9.335   6.625  0.1919  0.0865  0.0119
 1031loPI   C4B16496  10.153   9.094   6.924  0.1704  0.1843 -0.3502
 1032loPI    C116497  14.682   5.534   4.182 -0.1204 -0.2448  0.1104
 1032loPI    C216498  14.546   5.871   4.015  0.2627 -0.2301 -0.1842
 1032loPI    C316499  14.524   5.526   3.815  0.0782 -0.3422  0.0256
 1032loPI   PO416500  14.917   5.599   4.286  0.1422 -0.0247  0.3321
 1032loPI   GL116501  14.962   5.761   4.700 -0.1054 -0.0027  0.0350
 1032loPI   GL216502  15.253   5.903   4.853  0.0043 -0.0231 -0.1987
 1032loPI   C1A16503  14.530   5.704   4.997  0.0270 -0.4771 -0.1252
 1032loPI   C2A16504  14.199   5.521   5.160 -0.0061 -0.2582 -0.2631
 1032loPI   C3A16505  13.805   5.652   5.203  0.3432  0.0977 -0.0090
 1032loPI   C4A16506  13.603   5.400   5.421 -0.1256 -0.0059 -0.2063
 1032loPI   C5A16507  13.539   5.197   5.737 -0.3164 -0.0913  0.1273
 1032loPI   C6A16508  13.817   5.096   6.066 -0.2333  0.0706 -0.0899
 1032loPI   C1B16509  15.036   5.890   5.239 -0.2415 -0.2708 -0.1283
 1032loPI   C2B16510  14.753   5.802   5.656  0.1797  0.0269  0.1432
 1032loPI   C3B16511  14.575   5.883   6.052  0.3373  0.1074  0.1079
 1032loPI   C4B16512  14.467   5.758   6.469  0.0263 -0.2234  0.1110
 1033loPI    C116513   1.239  18.328   4.447  0.0119 -0.2360  0.1794
 1033loPI    C216514   1.352  17.983   4.279 -0.2250 -0.2919  0.1308
 1033loPI    C316515   1.166  18.261   4.059 -0.0633 -0.1449  0.1775
 1033loPI   PO416516   1.211  18.276   4.763  0.2289 -0.1291 -0.0166
 1033loPI   GL116517   1.153  18.520   5.220  0.2477 -0.0695 -0.0220
 1033loPI   GL216518   1.473  18.601   4.999  0.3199 -0.2706 -0.1609
 1033loPI   C1A16519   1.386  18.297   5.525 -0.1134  0.0429  0.3101
 1033loPI   C2A16520   1.395  18.264   5.993 -0.1218 -0.2081  0.0637
 1033loPI   C3A16521   1.305  18.090   6.442  0.0059 -0.1576  0.0903
 1033loPI   C4A16522   1.144  17.920   6.769  0.3204 -0.0928  0.0880
 1033loPI   C5A16523   1.205  17.979   7.301  0.2468  0.0771 -0.1282
 1033loPI   C6A16524   1.119  18.232   7.674 -0.3605 -0.3699 -0.0425
 1033loPI   C1B16525   1.672  18.687   5.352  0.3183 -0.1797 -0.2952
 1033loPI   C2B16526   1.822  18.511   5.757  0.1772  0.0405 -0.3103
 1033loPI   C3B16527   1.826  18.438   6.230 -0.2152  0.1161 -0.3578
 1033loPI   C4B16528   1.676  18.422   6.540 -0.0587  0.4613 -0.1839
 1034loPI    C116529   9.086   5.514   4.518  0.0511  0.1121  0.1065
 1034loPI    C216530   9.205   5.485   4.137 -0.3582 -0.2755 -0.0007
 1034loPI    C316531   9.027   5.819   4.266  0.1508  0.0180 -0.0326
 1034loPI   PO416532   9.289   5.377   4.627  0.2811  0.1682 -0.1550
 1034loPI   GL116533   9.317   5.338   5.078 -0.0557 -0.1975 -0.0336
 1034loPI   GL216534   9.017   5.544   5.007 -0.0396 -0.0733 -0.0475
 1034loPI   C1A16535   9.238   5.467   5.519  0.2643  0.2828 -0.0966
 1034loPI   C2A16536   9.090   5.204   5.867  0.4475 -0.1934 -0.1130
 1034loPI   C3A16537   9.072   5.273   6.304  0.0958 -0.1783  0.0398
 1034loPI   C4A16538   9.165   5.203   6.799  0.2003 -0.0060  0.0451
 1034loPI   C5A16539   9.553   5.129   6.770  0.0308 -0.0563  0.0471
 1034loPI   C6A16540   9.879   5.170   6.645  0.2551  0.0947 -0.0504
 1034loPI   C1B16541   8.851   5.152   5.329 -0.0587  0.0844  0.1875
 1034loPI   C2B16542   8.673   4.863   5.561  0.2359 -0.1390 -0.0942
 1034loPI   C3B16543   8.274   4.987   5.836 -0.2104 -0.0441 -0.1725
 1034loPI   C4B16544   7.924   5.099   5.909 -0.1973 -0.0484 -0.1583
 1035loPI    C116545   5.872  15.572   4.410 -0.1142  0.2347 -0.3320
 1035loPI    C216546   5.502  15.600   4.559  0.0110  0.1454  0.0040
 1035loPI    C316547   5.557  15.481   4.182 -0.2977  0.0679 -0.0187
 1035loPI   PO416548   5.981  15.433   4.659 -0.1783 -0.2177  0.1202
 1035loPI   GL116549   6.169  15.504   5.045  0.2079  0.1447 -0.1215
 1035loPI   GL216550   6.042  15.414   5.224  0.1199  0.0101  0.0416
 1035loPI   C1A16551   6.563  15.423   5.213 -0.2218  0.0324  0.2384
 1035loPI   C2A16552   6.780  15.461   5.665  0.0256 -0.4229 -0.2047
 1035loPI   C3A16553   6.637  15.605   6.041 -0.1633  0.0130 -0.2942
 1035loPI   C4A16554   6.465  15.414   6.484 -0.0457 -0.2967 -0.0873
 1035loPI   C5A16555   6.558  15.544   6.952 -0.3179 -0.1530  0.0071
 1035loPI   C6A16556   6.714  15.569   7.432 -0.0279 -0.2256  0.1037
 1035loPI   C1B16557   5.820  15.709   5.567 -0.0186  0.2172  0.0394
 1035loPI   C2B16558   5.628  15.716   6.045 -0.1257  0.1397  0.0117
 1035loPI   C3B16559   5.802  15.887   6.418 -0.0850 -0.0109 -0.1076
 1035loPI   C4B16560   6.189  15.810   6.750  0.1198 -0.1212 -0.2510
 1036loPI    C116561  17.417   9.612   4.521 -0.0646 -0.2568 -0.1394
 1036loPI    C216562  17.621   9.607   4.177 -0.0748 -0.1530 -0.1472
 1036loPI    C316563  17.363   9.313   4.261 -0.1334 -0.1363 -0.2657
 1036loPI   PO416564  17.492   9.805   4.691 -0.1701  0.2497 -0.3569
 1036loPI   GL116565  17.372  10.056   5.056  0.0661 -0.0442  0.1661
 1036loPI   GL216566  17.586   9.889   5.342  0.0713 -0.2313 -0.0411
 1036loPI   C1A16567  17.082   9.963   5.427  0.0474 -0.1379 -0.1589
 1036loPI   C2A16568  17.184   9.955   5.875  0.1058  0.2326 -0.0737
 1036loPI   C3A16569  17.291   9.790   6.243  0.4649  0.2347 -0.0932
 1036loPI   C4A16570  17.357   9.794   6.705  0.3377  0.0438 -0.2068
 1036loPI   C5A16571  17.522   9.762   7.096  0.0469 -0.1368 -0.1680
 1036loPI   C6A16572  17.850   9.617   7.335  0.0744  0.1931  0.1697
 1036loPI   C1B16573  17.625  10.150   5.686  0.0757  0.0484 -0.1623
 1036loPI   C2B16574  17.513  10.333   6.117  0.0276 -0.1165 -0.4204
 1036loPI   C3B16575  17.356  10.280   6.477  0.3287  0.2456  0.2560
 1036loPI   C4B16576  17.192  10.597   6.687 -0.1595  0.0615  0.1398
 1037loPI    C116577  14.323  10.433   4.406 -0.0451  0.1014  0.0404
 1037loPI    C216578  14.348  10.833   4.409  0.0057  0.0979  0.3372
 1037loPI    C316579  14.681  10.612   4.406 -0.0201  0.0544 -0.1765
 1037loPI   PO416580  14.083  10.451   4.666 -0.0391  0.0464 -0.0298
 1037loPI   GL116581  13.933  10.498   5.101 -0.3095  0.0875 -0.2738
 1037loPI   GL216582  13.665  10.515   5.218 -0.1199  0.0458  0.0573
 1037loPI   C1A16583  13.985  10.102   5.290  0.0376 -0.0346  0.0170
 1037loPI   C2A16584  13.913   9.775   5.599  0.0313  0.2934 -0.0661
 1037loPI   C3A16585  13.798   9.413   5.801 -0.0842 -0.0009 -0.4111
 1037loPI   C4A16586  13.786   9.363   6.193  0.0268  0.0998 -0.3109
 1037loPI   C5A16587  13.669   9.481   6.596  0.2556 -0.1128  0.1471
 1037loPI   C6A16588  13.712   9.834   6.773  0.0549 -0.0994  0.1199
 1037loPI   C1B16589  13.557  10.345   5.622 -0.0371  0.2232  0.2061
 1037loPI   C2B16590  13.570  10.213   6.113 -0.2070 -0.5096 -0.0711
 1037loPI   C3B16591  13.262  10.088   6.416 -0.5353 -0.3135 -0.1092
 1037loPI   C4B16592  13.103  10.228   6.821 -0.3864  0.0535  0.2993
 1038loPI    C116593   3.355  14.578   4.436 -0.1078 -0.0744 -0.0260
 1038loPI    C216594   3.221  14.918   4.273  0.0937 -0.0539 -0.1532
 1038loPI    C316595   3.050  14.569   4.177 -0.1885  0.0203  0.0652
 1038loPI   PO416596   3.376  14.653   4.669  0.0921 -0.0984 -0.0576
 1038loPI   GL116597   3.287  14.464   5.079  0.1449  0.1265  0.0674
 1038loPI   GL216598   3.206  14.710   5.187  0.1387 -0.2469  0.3662
 1038loPI   C1A16599   3.111  14.226   5.445  0.0724  0.0623  0.0675
 1038loPI   C2A16600   3.059  13.850   5.696 -0.2290 -0.3592  0.0260
 1038loPI   C3A16601   3.113  13.672   6.143 -0.0857 -0.2845 -0.0041
 1038loPI   C4A16602   2.976  13.898   6.434  0.2478 -0.0884 -0.1399
 1038loPI   C5A16603   3.103  13.850   6.795 -0.0397  0.0592  0.1822
 1038loPI   C6A16604   3.028  13.440   6.808 -0.2852 -0.2792  0.4062
 1038loPI   C1B16605   3.416  14.610   5.507 -0.1293  0.1407 -0.0984
 1038loPI   C2B16606   3.458  14.760   5.839  0.0189  0.0829  0.1764
 1038loPI   C3B16607   3.722  15.062   6.142  0.1450  0.0214  0.1610
 1038loPI   C4B16608   3.634  15.417   6.380  0.0467  0.1024 -0.0742
 1039loPI    C116609   7.367   5.583   4.768 -0.1075 -0.1818  0.0457
 1039loPI    C216610   7.286   5.448   4.401  0.0015 -0.3621  0.0870
 1039loPI    C316611   7.602   5.685   4.461 -0.1989 -0.0702  0.0117
 1039loPI   PO416612   7.367   5.374   4.922  0.0884  0.0428 -0.0074
 1039loPI   GL116613   7.014   5.313   5.156 -0.1083  0.4133 -0.1951
 1039loPI   GL216614   6.994   4.888   5.120  0.2899 -0.3109 -0.0305
 1039loPI   C1A16615   6.807   5.224   5.487  0.0453 -0.1454  0.0730
 1039loPI   C2A16616   6.740   5.245   5.978 -0.2617 -0.0434 -0.1929
 1039loPI   C3A16617   6.840   5.202   6.403  0.1045  0.0271 -0.1001
 1039loPI   C4A16618   7.071   5.104   6.771  0.0549 -0.0119 -0.2485
 1039loPI   C5A16619   6.845   4.906   7.138  0.0488  0.1313 -0.1000
 1039loPI   C6A16620   6.582   4.883   7.415  0.2856 -0.0530 -0.1329
 1039loPI   C1B16621   6.981   4.786   5.591 -0.4999 -0.2890  0.3638
 1039loPI   C2B16622   7.063   4.722   5.979  0.1830  0.0959 -0.0329
 1039loPI   C3B16623   7.121   4.751   6.379  0.0689 -0.3081 -0.0828
 1039loPI   C4B16624   7.146   4.599   6.784 -0.2600 -0.2495 -0.0237
 1040loPI    C116625  14.448   1.250   4.053 -0.0547  0.0460 -0.0315
 1040loPI    C216626  14.339   1.633   4.017  0.1005  0.1013  0.0738
 1040loPI    C316627  14.234   1.368   3.736 -0.1290  0.1917  0.0718
 1040loPI   PO416628  14.350   1.223   4.338 -0.1360  0.1226  0.0313
 1040loPI   GL116629  14.089   1.374   4.579  0.2034  0.0963 -0.1274
 1040loPI   GL216630  13.767   1.571   4.608 -0.2212 -0.2651 -0.1080
 1040loPI   C1A16631  14.116   1.457   5.004 -0.0933  0.0671  0.0475
 1040loPI   C2A16632  14.271   1.789   5.246  0.0773  0.2568  0.1174
 1040loPI   C3A16633  14.276   1.913   5.675 -0.2985  0.2403 -0.0305
 1040loPI   C4A16634  14.102   2.100   6.007  0.3277  0.3103  0.0139
 1040loPI   C5A16635  13.734   2.447   6.252 -0.3730  0.4241  0.0549
 1040loPI   C6A16636  13.468   2.365   6.703 -0.3612  0.0555  0.4383
 1040loPI   C1B16637  13.640   1.310   4.895 -0.1728 -0.0908  0.0322
 1040loPI   C2B16638  13.673   1.043   5.235  0.1219  0.0844  0.2586
 1040loPI   C3B16639  13.499   0.748   5.251  0.0576 -0.1342 -0.0569
 1040loPI   C4B16640  13.625   0.376   5.327  0.1809  0.2920 -0.1055
 1041loPI    C116641   0.133   5.779   4.881  0.1883  0.1448  0.1822
 1041loPI    C216642   0.467   5.774   4.660  0.1247 -0.0022  0.0874
 1041loPI    C316643   0.142   5.966   4.527  0.1620  0.1176  0.1671
 1041loPI   PO416644   0.232   5.466   4.996 -0.3406 -0.2705  0.1739
 1041loPI   GL116645   0.378   5.225   5.406 -0.1395  0.2924 -0.0134
 1041loPI   GL216646   0.578   5.364   5.567  0.2583 -0.0780 -0.1816
 1041loPI   C1A16647   0.258   5.012   5.793 -0.2429  0.1956 -0.3388
 1041loPI   C2A16648   0.260   4.745   6.117  0.2701  0.0867 -0.0839
 1041loPI   C3A16649   0.090   4.587   6.395  0.2025  0.1138 -0.0196
 1041loPI   C4A16650   0.149   4.270   6.728  0.1178  0.3878  0.3145
 1041loPI   C5A16651  -0.244   4.299   6.985  0.0461 -0.0408  0.0013
 1041loPI   C6A16652  -0.168   4.579   7.356 -0.0905  0.0790 -0.1854
 1041loPI   C1B16653   0.813   5.065   5.985  0.5066 -0.1006  0.0660
 1041loPI   C2B16654   0.674   4.901   6.428 -0.1301  0.0400 -0.0492
 1041loPI   C3B16655   0.428   4.813   6.697  0.1194 -0.0844  0.1107
 1041loPI   C4B16656  -0.027   4.763   6.875 -0.3400 -0.0279  0.0318
 1042loPI    C116657  18.498  12.482   4.731  0.4010  0.1987 -0.1043
 1042loPI    C216658  18.661  12.282   4.425 -0.1055 -0.1366 -0.1659
 1042loPI    C316659  18.474  12.629   4.359 -0.0070 -0.0893 -0.1982
 1042loPI   PO416660  18.289  12.366   4.842 -0.0353 -0.2222 -0.2129
 1042loPI   GL116661  17.949  12.248   5.106  0.2102  0.2443  0.1526
 1042loPI   GL216662  18.158  12.161   5.386 -0.3177  0.0950  0.0702
 1042loPI   C1A16663  17.561  12.215   5.371  0.2066  0.0285  0.0373
 1042loPI   C2A16664  17.463  12.250   5.785  0.3158  0.1116  0.1241
 1042loPI   C3A16665  17.375  12.368   6.218 -0.1812 -0.3940  0.0163
 1042loPI   C4A16666  17.459  12.518   6.721  0.1868  0.0619  0.0121
 1042loPI   C5A16667  17.615  12.518   7.167 -0.0568 -0.0578  0.2712
 1042loPI   C6A16668  17.394  12.755   7.361 -0.0893 -0.2407 -0.2513
 1042loPI   C1B16669  18.000  12.548   5.680  0.2149  0.2408 -0.0635
 1042loPI   C2B16670  17.955  12.651   6.007 -0.2896  0.1233  0.0406
 1042loPI   C3B16671  17.846  12.696   6.423  0.1438 -0.2142 -0.1877
 1042loPI   C4B16672  18.011  12.470   6.875 -0.0825  0.1928 -0.2285
 1043loPI    C116673   7.147  13.262   4.496  0.0370  0.2396 -0.2062
 1043loPI    C216674   7.543  13.251   4.437  0.0404  0.0148 -0.1481
 1043loPI    C316675   7.296  13.078   4.174 -0.0160  0.1002 -0.1517
 1043loPI   PO416676   7.104  13.283   4.807 -0.2845  0.0050 -0.0668
 1043loPI   GL116677   7.201  13.358   5.275  0.1839 -0.2713 -0.0618
 1043loPI   GL216678   6.998  13.618   5.359  0.1785  0.0147  0.1133
 1043loPI   C1A16679   7.323  13.009   5.614 -0.1606 -0.0886 -0.1100
 1043loPI   C2A16680   7.550  12.885   6.061 -0.0630  0.4433  0.1994
 1043loPI   C3A16681   7.691  12.525   6.330 -0.1310 -0.1259  0.2756
 1043loPI   C4A16682   7.782  12.378   6.676  0.3636 -0.0385 -0.0596
 1043loPI   C5A16683   7.945  12.090   7.135 -0.0940  0.0097 -0.0111
 1043loPI   C6A16684   7.978  11.818   7.450 -0.1929  0.0118  0.0038
 1043loPI   C1B16685   7.028  13.454   5.783 -0.0363  0.0755  0.0455
 1043loPI   C2B16686   7.076  13.132   6.012 -0.0018  0.3213  0.2140
 1043loPI   C3B16687   6.888  12.654   6.037 -0.3761 -0.1303  0.2601
 1043loPI   C4B16688   6.464  12.532   5.939  0.0306 -0.1751  0.0127
 1044loPI    C116689  12.752   4.078   4.008  0.0110  0.2559 -0.4043
 1044loPI    C216690  12.375   3.953   4.060  0.0848  0.2052  0.0527
 1044loPI    C316691  12.545   3.933   3.698 -0.2285 -0.1098 -0.0824
 1044loPI   PO416692  12.737   4.305   4.219  0.1938 -0.0352 -0.0640
 1044loPI   GL116693  12.489   4.328   4.606 -0.0550 -0.3064  0.2803
 1044loPI   GL216694  12.647   4.670   4.630  0.0551  0.1911 -0.3787
 1044loPI   C1A16695  12.263   4.183   5.022  0.3251  0.2570 -0.2880
 1044loPI   C2A16696  11.968   3.959   5.285  0.1856  0.0098 -0.0572
 1044loPI   C3A16697  11.598   3.950   5.528 -0.2384 -0.0300 -0.1622
 1044loPI   C4A16698  11.551   3.559   5.717 -0.0418 -0.1639  0.3092
 1044loPI   C5A16699  11.697   3.374   6.094  0.2706  0.5698 -0.2259
 1044loPI   C6A16700  11.868   3.003   6.127 -0.4474 -0.0986 -0.1717
 1044loPI   C1B16701  12.718   4.767   5.030 -0.1590 -0.1632  0.0663
 1044loPI   C2B16702  12.613   4.914   5.401 -0.1674  0.0475  0.2052
 1044loPI   C3B16703  12.739   5.022   5.866 -0.4960 -0.1789  0.0352
 1044loPI   C4B16704  12.845   4.702   6.213 -0.0807  0.2050 -0.0177
 1045loPI    C116705   5.757   1.984   4.181  0.3598 -0.0835  0.0229
 1045loPI    C216706   5.469   1.761   4.346  0.0790  0.2159 -0.0516
 1045loPI    C316707   5.536   1.742   3.952  0.1201  0.1931 -0.0436
 1045loPI   PO416708   5.997   1.886   4.301  0.0459  0.0499 -0.0236
 1045loPI   GL116709   5.973   1.634   4.655 -0.0615  0.1170 -0.1077
 1045loPI   GL216710   5.612   1.443   4.701  0.0405  0.1227 -0.1091
 1045loPI   C1A16711   6.119   1.530   5.110  0.3319 -0.1522 -0.0100
 1045loPI   C2A16712   6.112   1.716   5.486 -0.1747 -0.0498 -0.0332
 1045loPI   C3A16713   6.246   1.729   5.878 -0.1487 -0.0199  0.2429
 1045loPI   C4A16714   6.308   1.597   6.244  0.4429  0.2972 -0.0523
 1045loPI   C5A16715   6.096   1.557   6.691 -0.0682 -0.0467  0.0004
 1045loPI   C6A16716   5.855   1.175   6.730 -0.0592  0.1067  0.0043
 1045loPI   C1B16717   5.654   1.715   5.122 -0.1522 -0.1923  0.1762
 1045loPI   C2B16718   5.666   1.908   5.431 -0.1243  0.2447  0.0479
 1045loPI   C3B16719   5.749   1.767   5.837 -0.0969  0.1172 -0.1856
 1045loPI   C4B16720   5.811   1.586   6.237  0.2034  0.1091  0.1552
 1046loPI    C116721   5.828  12.418   4.461  0.1694 -0.0970 -0.2069
 1046loPI    C216722   5.480  12.529   4.298  0.0966  0.0297  0.0306
 1046loPI    C316723   5.772  12.385   4.066 -0.0529  0.0805 -0.1923
 1046loPI   PO416724   5.786  12.560   4.726 -0.1334 -0.2340  0.1043
 1046loPI   GL116725   5.490  12.611   5.110 -0.0797 -0.2288 -0.0349
 1046loPI   GL216726   5.602  12.946   5.084  0.1898  0.1564 -0.1431
 1046loPI   C1A16727   5.571  12.666   5.549  0.0567  0.4400  0.1150
 1046loPI   C2A16728   5.433  12.692   5.921 -0.1873  0.1605  0.1631
 1046loPI   C3A16729   5.539  12.975   6.241  0.1187  0.0803  0.1567
 1046loPI   C4A16730   5.704  12.820   6.548 -0.0815  0.1332  0.4285
 1046loPI   C5A16731   5.631  12.495   6.890 -0.0608  0.0903 -0.0081
 1046loPI   C6A16732   5.871  12.469   7.203 -0.3401 -0.0597 -0.3555
 1046loPI   C1B16733   5.450  13.303   5.338  0.0986 -0.1132  0.0732
 1046loPI   C2B16734   5.612  13.205   5.724 -0.0991 -0.0115 -0.0502
 1046loPI   C3B16735   5.505  13.395   6.033  0.0206  0.0075 -0.0717
 1046loPI   C4B16736   5.504  13.491   6.489 -0.2750 -0.0176 -0.0053
 1047loPI    C116737   0.352   3.499   4.461 -0.1903 -0.1250  0.4391
 1047loPI    C216738   0.311   3.886   4.370 -0.0043 -0.2105 -0.0344
 1047loPI    C316739   0.028   3.625   4.263 -0.0591 -0.2289  0.1529
 1047loPI   PO416740   0.480   3.531   4.636  0.1439  0.1983  0.2981
 1047loPI   GL116741   0.536   3.599   5.092  0.2910 -0.0342  0.2312
 1047loPI   GL216742   0.668   3.999   5.166 -0.0600  0.0439  0.1352
 1047loPI   C1A16743   0.401   3.761   5.498 -0.1484 -0.3424 -0.2377
 1047loPI   C2A16744   0.434   4.113   5.818 -0.1546  0.1341  0.2143
 1047loPI   C3A16745   0.389   4.203   6.180  0.2568 -0.2263  0.0303
 1047loPI   C4A16746   0.635   4.207   6.425  0.0385  0.1606 -0.3870
 1047loPI   C5A16747   0.754   4.465   6.833  0.0649  0.0914 -0.0294
 1047loPI   C6A16748   0.849   4.952   6.942 -0.3897 -0.1461  0.0942
 1047loPI   C1B16749   0.934   4.028   5.672 -0.1438  0.3018  0.0037
 1047loPI   C2B16750   1.079   3.987   6.097 -0.1907 -0.3273  0.1406
 1047loPI   C3B16751   0.894   3.832   6.547  0.0998  0.0454 -0.0056
 1047loPI   C4B16752   0.638   3.987   6.868 -0.0609  0.4932 -0.1225
 1048loPI    C116753  16.422   1.647   4.321 -0.1574 -0.2121  0.2560
 1048loPI    C216754  16.451   1.716   4.714  0.1868  0.0481  0.1893
 1048loPI    C316755  16.778   1.631   4.501  0.0650  0.3108 -0.1123
 1048loPI   PO416756  16.262   1.491   4.329 -0.0207  0.1996  0.3160
 1048loPI   GL116757  16.045   1.440   4.689  0.0125  0.1695 -0.1596
 1048loPI   GL216758  15.998   1.752   4.874 -0.2816 -0.2561  0.3270
 1048loPI   C1A16759  16.088   1.302   5.074  0.0071  0.0188  0.3307
 1048loPI   C2A16760  16.196   1.407   5.442  0.0442  0.1269  0.0233
 1048loPI   C3A16761  16.173   1.340   5.837  0.2761 -0.0648  0.2602
 1048loPI   C4A16762  15.979   1.101   6.073 -0.0820 -0.2452 -0.0835
 1048loPI   C5A16763  15.664   1.016   6.436 -0.0209 -0.2406 -0.2204
 1048loPI   C6A16764  15.331   0.885   6.695 -0.0801  0.4783  0.2265
 1048loPI   C1B16765  16.336   1.863   5.252  0.0386 -0.2353 -0.2399
 1048loPI   C2B16766  16.597   1.690   5.540 -0.1036  0.0251 -0.1275
 1048loPI   C3B16767  16.680   1.803   6.027 -0.0474  0.0151 -0.0537
 1048loPI   C4B16768  17.018   1.631   6.334 -0.1221 -0.0192 -0.3506
 1049loPI    C116769  13.152  18.991   3.771 -0.0136  0.0171  0.1307
 1049loPI    C216770  13.265  19.084   3.398  0.0665 -0.1292  0.1176
 1049loPI    C316771  13.281  18.704   3.523  0.2517 -0.0497  0.3415
 1049loPI   PO416772  13.264  19.216   3.973 -0.0292  0.3368  0.1168
 1049loPI   GL116773  13.349  19.019   4.332 -0.0176  0.2338 -0.1584
 1049loPI   GL216774  13.722  19.010   4.266 -0.1695 -0.0296 -0.2381
 1049loPI   C1A16775  13.410  19.026   4.815  0.0290  0.2789 -0.4060
 1049loPI   C2A16776  13.407  19.242   5.043  0.3151  0.0967 -0.1114
 1049loPI   C3A16777  13.317  19.344   5.491  0.2851  0.1978 -0.0875
 1049loPI   C4A16778  13.105  19.381   5.908 -0.3642  0.0136 -0.0977
 1049loPI   C5A16779  13.045  19.194   6.305 -0.3150 -0.2706 -0.1185
 1049loPI   C6A16780  13.003  18.849   6.607  0.0636 -0.0352 -0.2503
 1049loPI   C1B16781  13.629  19.394   4.550  0.2433 -0.2110 -0.1959
 1049loPI   C2B16782  13.371  19.660   4.606 -0.1349 -0.1237  0.0305
 1049loPI   C3B16783  13.662  20.055   4.735  0.0355 -0.1010 -0.0375
 1049loPI   C4B16784  13.649  20.514   4.769 -0.0701 -0.2136 -0.1267
 1050loPI    C116785  13.648   9.532   4.294 -0.0418 -0.0004 -0.2546
 1050loPI    C216786  13.792   9.162   4.245  0.1461  0.0018  0.2306
 1050loPI    C316787  13.397   9.226   4.242  0.1139 -0.1962  0.1121
 1050loPI   PO416788  13.708   9.703   4.567 -0.1040 -0.0631  0.0533
 1050loPI   GL116789  13.846   9.644   4.961  0.0141 -0.1464 -0.1500
 1050loPI   GL216790  14.210   9.570   4.895 -0.0202  0.1126  0.2431
 1050loPI   C1A16791  13.904   9.329   5.215 -0.2466  0.0262 -0.0887
 1050loPI   C2A16792  14.104   9.149   5.578 -0.0502  0.1131  0.1691
 1050loPI   C3A16793  14.162   9.004   6.033  0.2170 -0.1899 -0.2878
 1050loPI   C4A16794  14.003   8.946   6.361 -0.1483 -0.3588 -0.0133
 1050loPI   C5A16795  14.099   9.226   6.743  0.3200 -0.1775  0.0726
 1050loPI   C6A16796  13.916   9.473   7.064 -0.1333 -0.3498  0.2281
 1050loPI   C1B16797  14.283   9.632   5.310  0.2362  0.0012 -0.0616
 1050loPI   C2B16798  14.387   9.874   5.704  0.1331  0.0995 -0.1329
 1050loPI   C3B16799  14.593  10.173   5.946 -0.0438  0.1792 -0.0296
 1050loPI   C4B16800  14.831  10.623   6.225  0.4053 -0.0024 -0.0319
 1051loPI    C116801  10.960   3.819   3.872  0.2650  0.0821 -0.1837
 1051loPI    C216802  10.752   3.492   3.774  0.0141  0.2230 -0.1294
 1051loPI    C316803  11.089   3.580   3.579  0.1300 -0.1125 -0.0870
 1051loPI   PO416804  10.845   3.832   4.163  0.1511  0.0964 -0.1362
 1051loPI   GL116805  10.913   3.690   4.594  0.0154  0.1955  0.4902
 1051loPI   GL216806  11.099   3.414   4.714 -0.1628  0.2209 -0.0081
 1051loPI   C1A16807  10.885   3.602   5.082 -0.1118 -0.1779  0.1342
 1051loPI   C2A16808  10.844   3.690   5.578 -0.2328  0.0800  0.3415
 1051loPI   C3A16809  10.629   3.653   5.931 -0.0156 -0.0798  0.1556
 1051loPI   C4A16810  10.502   3.399   6.377 -0.2424  0.0037 -0.0625
 1051loPI   C5A16811  10.289   3.000   6.372 -0.1834  0.1119  0.1137
 1051loPI   C6A16812  10.280   2.581   6.502 -0.0655 -0.1175 -0.0812
 1051loPI   C1B16813  11.279   3.173   4.974 -0.2327 -0.1464  0.0022
 1051loPI   C2B16814  11.313   2.858   5.369  0.0802 -0.2789  0.2326
 1051loPI   C3B16815  11.331   2.867   5.843 -0.2665 -0.0668  0.1626
 1051loPI   C4B16816  11.391   3.001   6.310  0.1658  0.1930 -0.0643
 1052loPI    C116817  17.601   5.377   4.534  0.0595  0.0238 -0.0757
 1052loPI    C216818  17.736   5.017   4.647  0.1633  0.1022  0.0537
 1052loPI    C316819  17.764   5.130   4.264  0.0696 -0.0528 -0.0001
 1052loPI   PO416820  17.343   5.459   4.526 -0.0413 -0.0666 -0.0574
 1052loPI   GL116821  17.148   5.473   4.786  0.0598 -0.2461 -0.0269
 1052loPI   GL216822  16.822   5.361   4.710  0.1276  0.2460 -0.3244
 1052loPI   C1A16823  17.162   5.406   5.238 -0.2747  0.1760  0.1204
 1052loPI   C2A16824  17.149   5.417   5.721 -0.1535  0.1431  0.1233
 1052loPI   C3A16825  16.965   5.362   6.035 -0.3234 -0.1880 -0.1949
 1052loPI   C4A16826  16.822   5.224   6.357  0.2997  0.0277  0.0009
 1052loPI   C5A16827  16.436   5.318   6.503  0.7107 -0.1362  0.0293
 1052loPI   C6A16828  16.206   5.401   6.235 -0.4183  0.0596  0.0512
 1052loPI   C1B16829  16.751   5.125   5.088  0.1649 -0.0972 -0.0535
 1052loPI   C2B16830  16.738   5.088   5.559 -0.0238  0.2031 -0.3801
 1052loPI   C3B16831  16.517   5.143   5.917  0.1975 -0.1494  0.2917
 1052loPI   C4B16832  16.100   5.299   5.759 -0.2373  0.0586 -0.1494
 1053loPI    C116833   8.606  12.450   5.066  0.0390 -0.1139 -0.0051
 1053loPI    C216834   8.342  12.268   4.826 -0.1616  0.2591 -0.0755
 1053loPI    C316835   8.689  12.401   4.677 -0.1683  0.2495 -0.0999
 1053loPI   PO416836   8.612  12.316   5.250 -0.1911  0.2424  0.4900
 1053loPI   GL116837   8.662  12.269   5.658  0.2139 -0.2231  0.2496
 1053loPI   GL216838   8.350  12.344   5.684 -0.0702 -0.0323  0.1726
 1053loPI   C1A16839   8.685  11.886   5.936 -0.0457 -0.2113  0.0169
 1053loPI   C2A16840   8.914  12.004   6.335 -0.3243 -0.1138 -0.3112
 1053loPI   C3A16841   9.157  12.265   6.474  0.1410 -0.2549  0.1942
 1053loPI   C4A16842   9.154  12.645   6.603  0.2412  0.0227 -0.1286
 1053loPI   C5A16843   9.170  12.903   7.002  0.2482 -0.0087 -0.0261
 1053loPI   C6A16844   8.963  13.100   7.409  0.2053 -0.3235  0.5417
 1053loPI   C1B16845   8.451  12.359   6.093  0.0937 -0.1982  0.2789
 1053loPI   C2B16846   8.657  12.428   6.467 -0.1390  0.1342 -0.2842
 1053loPI   C3B16847   8.873  12.269   6.844  0.0411  0.0049 -0.0491
 1053loPI   C4B16848   9.011  12.117   7.244  0.3972  0.0112  0.1755
 1054loPI    C116849   4.462   4.302   4.344  0.0096  0.1508  0.0201
 1054loPI    C216850   4.830   4.251   4.493 -0.0346  0.0540  0.0973
 1054loPI    C316851   4.693   4.004   4.211 -0.0917  0.0046  0.1678
 1054loPI   PO416852   4.300   4.321   4.612 -0.0847  0.0329 -0.3546
 1054loPI   GL116853   4.349   4.294   5.129 -0.0730  0.1745 -0.0039
 1054loPI   GL216854   4.036   4.074   5.246 -0.1179 -0.1737 -0.0143
 1054loPI   C1A16855   4.500   4.158   5.524  0.0908  0.0761 -0.1464
 1054loPI   C2A16856   4.427   4.189   5.912 -0.1017 -0.0999  0.0480
 1054loPI   C3A16857   4.462   4.294   6.395  0.0873 -0.0256 -0.1749
 1054loPI   C4A16858   4.880   4.118   6.627 -0.2759  0.0890 -0.4055
 1054loPI   C5A16859   5.233   3.933   6.919 -0.1317  0.0176  0.0652
 1054loPI   C6A16860   5.656   3.836   7.120  0.0394 -0.1760  0.0525
 1054loPI   C1B16861   3.967   4.001   5.665  0.0333 -0.1781  0.0653
 1054loPI   C2B16862   3.657   4.018   6.000  0.3436 -0.0730  0.0727
 1054loPI   C3B16863   3.598   4.064   6.507  0.0497  0.1950  0.1684
 1054loPI   C4B16864   3.446   4.208   6.866  0.2807 -0.0432 -0.1409
 1055loPI    C116865   3.767  14.911   4.401 -0.2459  0.1097  0.0124
 1055loPI    C216866   3.872  14.530   4.341  0.2047  0.2039  0.1649
 1055loPI    C316867   3.651  14.721   4.068  0.0308 -0.1436  0.0565
 1055loPI   PO416868   3.850  14.856   4.783 -0.0977 -0.2545 -0.0013
 1055loPI   GL116869   3.646  14.857   5.137 -0.1306  0.1922 -0.0660
 1055loPI   GL216870   3.848  14.711   5.261  0.0404 -0.0909  0.1441
 1055loPI   C1A16871   3.494  15.159   5.407  0.0098 -0.0384 -0.0158
 1055loPI   C2A16872   3.329  15.308   5.731 -0.0852 -0.0881  0.0448
 1055loPI   C3A16873   3.138  15.091   6.008  0.1336 -0.2292  0.0870
 1055loPI   C4A16874   3.261  14.718   6.289  0.0303 -0.1180  0.0494
 1055loPI   C5A16875   3.714  14.622   6.462 -0.1056  0.0120 -0.0794
 1055loPI   C6A16876   3.828  14.450   6.922 -0.0159  0.0281  0.3291
 1055loPI   C1B16877   3.910  14.486   5.682  0.1407  0.0332  0.3084
 1055loPI   C2B16878   3.613  14.309   5.954 -0.0687 -0.2690 -0.2208
 1055loPI   C3B16879   3.310  14.204   6.323 -0.0963  0.0332  0.0547
 1055loPI   C4B16880   3.343  14.327   6.721  0.2948 -0.2835  0.0664
 1056loPI    C116881  17.624  13.670   4.379  0.1644 -0.0018 -0.0517
 1056loPI    C216882  17.355  13.789   4.108  0.0060 -0.1333  0.0459
 1056loPI    C316883  17.669  13.570   3.994  0.1401  0.1235 -0.0878
 1056loPI   PO416884  17.477  13.569   4.533 -0.1296  0.0195  0.2778
 1056loPI   GL116885  17.285  13.339   4.919  0.0061 -0.1368  0.1837
 1056loPI   GL216886  17.458  13.514   5.163 -0.2730  0.0155  0.2515
 1056loPI   C1A16887  17.134  13.164   5.279  0.0037  0.5150  0.1076
 1056loPI   C2A16888  17.102  13.105   5.769 -0.0402 -0.2653 -0.1226
 1056loPI   C3A16889  17.021  13.179   6.151  0.3185 -0.1877  0.0161
 1056loPI   C4A16890  17.070  13.333   6.576  0.0207 -0.2902 -0.0860
 1056loPI   C5A16891  16.907  13.512   6.998 -0.0440 -0.1235 -0.1082
 1056loPI   C6A16892  16.474  13.500   7.224 -0.0335 -0.0886  0.0867
 1056loPI   C1B16893  17.466  13.455   5.639  0.3327  0.2046  0.2798
 1056loPI   C2B16894  17.455  13.356   6.111  0.0905 -0.4964 -0.2562
 1056loPI   C3B16895  17.638  13.345   6.511 -0.1087  0.1513  0.0552
 1056loPI   C4B16896  17.938  13.445   6.913 -0.0405 -0.1197  0.0526
 1057loPI    C116897   4.513  11.119   4.520 -0.1495  0.1224  0.0847
 1057loPI    C216898   4.239  11.119   4.229 -0.1940  0.1310  0.1265
 1057loPI    C316899   4.620  11.029   4.145 -0.2377 -0.0262  0.0946
 1057loPI   PO416900   4.372  11.227   4.722  0.1642  0.2199 -0.3112
 1057loPI   GL116901   4.145  11.386   5.010  0.5624  0.1254 -0.0106
 1057loPI   GL216902   3.833  11.456   5.114  0.0521 -0.3347 -0.1235
 1057loPI   C1A16903   4.432  11.324   5.366  0.1685 -0.0024  0.2348
 1057loPI   C2A16904   4.552  11.255   5.767  0.2505  0.1019  0.0227
 1057loPI   C3A16905   4.676  11.034   6.018 -0.0677 -0.0143  0.2274
 1057loPI   C4A16906   4.612  11.100   6.345 -0.0944  0.1125 -0.0794
 1057loPI   C5A16907   4.780  11.174   6.730  0.0785  0.0067 -0.2575
 1057loPI   C6A16908   5.099  11.314   7.005  0.0221 -0.0270 -0.1737
 1057loPI   C1B16909   4.016  10.941   5.387 -0.5425 -0.0052  0.1105
 1057loPI   C2B16910   4.166  10.857   5.776 -0.0993 -0.3048  0.0338
 1057loPI   C3B16911   4.163  10.701   6.223  0.4115  0.2619 -0.0519
 1057loPI   C4B16912   4.434  10.597   6.611 -0.0347 -0.0329 -0.3409
 1058loPI    C116913  12.961   0.498   3.573  0.1147 -0.0082  0.0217
 1058loPI    C216914  13.053   0.861   3.433  0.0561 -0.1474 -0.3918
 1058loPI    C316915  13.305   0.556   3.376  0.1379 -0.1611  0.0158
 1058loPI   PO416916  12.976   0.380   3.864 -0.4236  0.0769 -0.0414
 1058loPI   GL116917  12.884   0.295   4.288  0.0784  0.0833 -0.0323
 1058loPI   GL216918  12.754   0.520   4.383 -0.0414 -0.1988  0.0907
 1058loPI   C1A16919  12.908   0.045   4.723  0.4020  0.3031  0.4072
 1058loPI   C2A16920  12.995  -0.197   5.072  0.1658  0.1218  0.0292
 1058loPI   C3A16921  12.906  -0.208   5.492  0.1639  0.1920  0.2020
 1058loPI   C4A16922  12.944   0.084   5.903  0.2277  0.3955 -0.4235
 1058loPI   C5A16923  12.788   0.049   6.384 -0.1169  0.2242 -0.0158
 1058loPI   C6A16924  12.458  -0.200   6.526 -0.4351 -0.1430 -0.2280
 1058loPI   C1B16925  12.701   0.765   4.756 -0.0768  0.2665  0.1976
 1058loPI   C2B16926  12.794   0.710   5.205  0.3206 -0.2319  0.0608
 1058loPI   C3B16927  12.834   0.674   5.615  0.1688 -0.0571 -0.3165
 1058loPI   C4B16928  12.569   0.786   5.962  0.0632  0.2683 -0.0559
 1059loPI    C116929   5.072   8.000   4.362 -0.1106  0.0176 -0.0375
 1059loPI    C216930   5.281   7.668   4.436 -0.1182  0.0137 -0.0329
 1059loPI    C316931   4.917   7.643   4.272 -0.1229  0.0194 -0.0236
 1059loPI   PO416932   5.065   8.131   4.569 -0.0334  0.1269  0.2347
 1059loPI   GL116933   5.284   7.997   4.946 -0.1877 -0.0875 -0.0623
 1059loPI   GL216934   5.272   8.323   5.110  0.1736  0.0620  0.3253
 1059loPI   C1A16935   5.150   7.852   5.439  0.1369  0.1739  0.2223
 1059loPI   C2A16936   4.947   7.573   5.769 -0.1504 -0.0919  0.1686
 1059loPI   C3A16937   5.087   7.572   6.154  0.2709 -0.0589  0.0754
 1059loPI   C4A16938   4.975   7.446   6.506 -0.0860  0.1530  0.0663
 1059loPI   C5A16939   5.000   7.383   6.948 -0.0125 -0.0417 -0.1344
 1059loPI   C6A16940   4.939   7.118   7.304 -0.2481 -0.0045  0.2153
 1059loPI   C1B16941   4.979   8.323   5.513 -0.1510  0.1156  0.2053
 1059loPI   C2B16942   5.089   8.079   5.893  0.4614 -0.0270  0.1373
 1059loPI   C3B16943   5.224   8.040   6.308  0.3448 -0.0747  0.0642
 1059loPI   C4B16944   5.342   8.157   6.764 -0.0491  0.0445  0.0750
 1060loPI    C116945  15.922   4.807   4.326 -0.2004 -0.0698 -0.0587
 1060loPI    C216946  16.291   4.700   4.215 -0.2800 -0.4697  0.0437
 1060loPI    C316947  15.973   4.538   4.034 -0.4101 -0.0577 -0.1080
 1060loPI   PO416948  15.991   4.810   4.586  0.0467  0.0627 -0.0212
 1060loPI   GL116949  15.890   5.017   4.947  0.0112  0.1252 -0.1984
 1060loPI   GL216950  15.592   5.003   4.889 -0.1586  0.1186 -0.1463
 1060loPI   C1A16951  15.941   4.721   5.376 -0.2917 -0.0016  0.2592
 1060loPI   C2A16952  16.149   4.801   5.800  0.0604  0.0386 -0.0965
 1060loPI   C3A16953  15.973   5.027   6.138  0.0616  0.2578 -0.1034
 1060loPI   C4A16954  15.829   5.149   6.530 -0.0223 -0.0826 -0.0968
 1060loPI   C5A16955  15.805   5.084   6.911  0.2600 -0.2978  0.0966
 1060loPI   C6A16956  15.716   5.252   7.230  0.0687  0.2798  0.0193
 1060loPI   C1B16957  15.496   5.087   5.269  0.3204 -0.1036 -0.0273
 1060loPI   C2B16958  15.374   5.041   5.733 -0.3584  0.1095  0.1119
 1060loPI   C3B16959  14.903   5.251   5.773 -0.1087  0.0251 -0.0804
 1060loPI   C4B16960  14.705   5.378   6.088  0.0829 -0.3346 -0.0760
 1061loPI    C116961   1.564  16.662   4.358 -0.0698  0.2456  0.0437
 1061loPI    C216962   1.733  17.024   4.345 -0.0902  0.2588  0.1359
 1061loPI    C316963   1.459  16.921   4.072  0.1271  0.2061 -0.0664
 1061loPI   PO416964   1.583  16.692   4.667  0.4490 -0.0394  0.2366
 1061loPI   GL116965   1.368  16.619   5.004  0.1280 -0.0631 -0.2179
 1061loPI   GL216966   1.075  16.801   5.105 -0.0352 -0.2400 -0.0644
 1061loPI   C1A16967   1.410  16.766   5.455  0.0486 -0.2346  0.0549
 1061loPI   C2A16968   1.422  16.837   5.865  0.1842 -0.0056 -0.1214
 1061loPI   C3A16969   1.477  17.084   6.263  0.1131 -0.0469  0.0680
 1061loPI   C4A16970   1.638  17.108   6.642 -0.2657  0.1551 -0.0247
 1061loPI   C5A16971   1.825  16.924   6.905 -0.3658  0.1725  0.0275
 1061loPI   C6A16972   1.895  16.583   7.133  0.0274 -0.2519  0.1229
 1061loPI   C1B16973   0.874  16.621   5.512 -0.1958 -0.0778  0.0433
 1061loPI   C2B16974   0.903  16.664   5.991  0.1584 -0.0151 -0.0526
 1061loPI   C3B16975   1.115  16.696   6.330  0.1966  0.1522  0.2144
 1061loPI   C4B16976   1.306  16.782   6.634  0.0961  0.1510  0.3185
 1062loPI    C116977   7.634  10.955   4.854 -0.3340  0.0880  0.1182
 1062loPI    C216978   7.605  11.044   4.465  0.1440  0.1421  0.0884
 1062loPI    C316979   7.488  10.685   4.597  0.0324  0.1025 -0.1140
 1062loPI   PO416980   7.580  11.205   4.972  0.1573  0.0566  0.1730
 1062loPI   GL116981   7.564  11.248   5.400 -0.0279  0.0455 -0.1277
 1062loPI   GL216982   7.671  10.991   5.423 -0.1135 -0.0304 -0.3235
 1062loPI   C1A16983   7.335  11.449   5.709  0.3169  0.0580 -0.1217
 1062loPI   C2A16984   7.081  11.772   6.018 -0.2270 -0.0588  0.2899
 1062loPI   C3A16985   7.104  11.751   6.457  0.1434 -0.0598 -0.0424
 1062loPI   C4A16986   6.960  11.542   6.858 -0.1062 -0.0813  0.2040
 1062loPI   C5A16987   6.674  11.557   7.153  0.2590 -0.2687 -0.0489
 1062loPI   C6A16988   6.576  11.706   7.552  0.2195 -0.3582  0.0624
 1062loPI   C1B16989   7.879  10.774   5.763 -0.2495  0.0762 -0.0203
 1062loPI   C2B16990   7.957  10.719   6.091 -0.0231 -0.2932  0.2004
 1062loPI   C3B16991   7.753  10.844   6.391  0.2524  0.3839  0.0483
 1062loPI   C4B16992   7.288  10.907   6.367  0.1848  0.2240  0.2677
 1063loPI    C116993  12.669   6.081   4.449 -0.0667  0.2314 -0.0079
 1063loPI    C216994  12.810   6.153   4.082 -0.0778  0.0122 -0.0567
 1063loPI    C316995  12.466   6.319   4.201 -0.0816  0.0725 -0.1504
 1063loPI   PO416996  12.865   6.119   4.570  0.1078  0.1282 -0.1532
 1063loPI   GL116997  13.138   5.826   4.800 -0.0527 -0.0668  0.1694
 1063loPI   GL216998  13.321   5.920   5.026 -0.0168  0.0061 -0.1032
 1063loPI   C1A16999  13.045   5.527   5.166 -0.0032 -0.1882 -0.3529
 1063loPI   C2A17000  12.925   5.417   5.561  0.3735  0.0591  0.0957
 1063loPI   C3A17001  13.084   5.370   5.873  0.2456  0.0125  0.0979
 1063loPI   C4A17002  13.262   5.198   6.236 -0.0760 -0.1810 -0.4681
 1063loPI   C5A17003  13.392   5.190   6.555  0.0180  0.2082 -0.6612
 1063loPI   C6A17004  13.104   5.063   6.797  0.0184 -0.0493  0.3737
 1063loPI   C1B17005  13.104   5.928   5.427  0.1701 -0.1057 -0.0416
 1063loPI   C2B17006  13.054   5.868   5.828  0.2061  0.0158 -0.0232
 1063loPI   C3B17007  13.171   5.729   6.209  0.0909  0.1304 -0.0523
 1063loPI   C4B17008  13.183   5.697   6.658  0.2793  0.2326  0.2336
 1064loPI    C117009  17.710   6.374   4.405  0.0762  0.2366  0.1722
 1064loPI    C217010  17.691   6.717   4.201 -0.1051  0.1786  0.0895
 1064loPI    C317011  17.771   6.375   4.010  0.1002  0.1771  0.1756
 1064loPI   PO417012  17.552   6.434   4.570  0.2607  0.2163 -0.2408
 1064loPI   GL117013  17.536   6.548   4.941  0.0919  0.2530 -0.3283
 1064loPI   GL217014  17.311   6.371   5.123 -0.3088 -0.2617  0.1824
 1064loPI   C1A17015  17.889   6.598   5.270 -0.1171 -0.0557 -0.0803
 1064loPI   C2A17016  18.006   6.351   5.519  0.1639  0.0919  0.1694
 1064loPI   C3A17017  18.096   6.042   5.833  0.1867 -0.0048  0.0118
 1064loPI   C4A17018  17.905   6.004   6.209 -0.0111 -0.1289 -0.3089
 1064loPI   C5A17019  17.763   6.117   6.613  0.1401 -0.1056 -0.1584
 1064loPI   C6A17020  17.378   5.964   6.960  0.2114  0.1452 -0.1124
 1064loPI   C1B17021  17.494   6.400   5.559 -0.1170  0.1869 -0.0799
 1064loPI   C2B17022  17.733   6.592   6.013 -0.2425  0.2172 -0.0634
 1064loPI   C3B17023  17.673   6.565   6.418  0.1763  0.1715 -0.2250
 1064loPI   C4B17024  17.928   6.906   6.473  0.1917 -0.1060 -0.2775
 1065loPI    C117025   4.172   4.706   4.264 -0.1807 -0.0449  0.0725
 1065loPI    C217026   4.330   4.946   3.985  0.2812 -0.0500  0.3200
 1065loPI    C317027   4.354   4.548   3.945 -0.0785 -0.0568  0.1361
 1065loPI   PO417028   4.156   4.805   4.522 -0.1156  0.2739 -0.3041
 1065loPI   GL117029   4.418   4.730   4.895  0.0108  0.2967 -0.0609
 1065loPI   GL217030   4.727   4.564   4.915 -0.0134 -0.0438  0.3446
 1065loPI   C1A17031   4.412   4.762   5.313 -0.2318  0.2179 -0.1149
 1065loPI   C2A17032   4.453   4.658   5.713 -0.1597  0.0822  0.0969
 1065loPI   C3A17033   4.434   4.709   6.163  0.2494  0.0495 -0.2638
 1065loPI   C4A17034   4.439   4.886   6.601 -0.4735  0.0081  0.0220
 1065loPI   C5A17035   4.688   4.635   6.834 -0.0047 -0.0191  0.0238
 1065loPI   C6A17036   4.720   4.207   7.090  0.0027 -0.1986  0.0952
 1065loPI   C1B17037   4.843   4.353   5.262 -0.4763 -0.0591  0.2211
 1065loPI   C2B17038   5.044   4.102   5.575 -0.1069  0.1354 -0.0706
 1065loPI   C3B17039   5.138   3.907   5.901  0.0630  0.1656  0.0138
 1065loPI   C4B17040   5.254   3.718   6.330 -0.1614 -0.0118  0.2071
 1066loPI    C117041  17.156   8.106   4.548  0.0506 -0.2111 -0.0002
 1066loPI    C217042  16.877   8.166   4.268  0.1054  0.1593  0.0183
 1066loPI    C317043  17.254   8.086   4.160  0.0736  0.0444 -0.0095
 1066loPI   PO417044  17.083   8.398   4.661  0.3644  0.0180  0.4703
 1066loPI   GL117045  16.898   8.526   4.903  0.2957 -0.3188  0.1368
 1066loPI   GL217046  17.125   8.538   5.248  0.3743 -0.1209  0.2112
 1066loPI   C1A17047  16.604   8.304   5.172 -0.0854 -0.2655  0.2111
 1066loPI   C2A17048  16.499   8.033   5.568  0.0786  0.2880 -0.1634
 1066loPI   C3A17049  16.422   8.022   5.986 -0.2010 -0.0718 -0.1787
 1066loPI   C4A17050  16.448   8.100   6.357 -0.1319 -0.0595 -0.0217
 1066loPI   C5A17051  16.772   8.073   6.719 -0.1387 -0.2935  0.0907
 1066loPI   C6A17052  16.839   8.122   7.140  0.0120 -0.0329  0.2436
 1066loPI   C1B17053  16.889   8.469   5.573 -0.4358 -0.1136 -0.2026
 1066loPI   C2B17054  16.772   8.378   6.038  0.0020 -0.1245 -0.0020
 1066loPI   C3B17055  16.746   8.572   6.509 -0.1879 -0.3008 -0.0834
 1066loPI   C4B17056  16.714   8.643   6.998 -0.2398  0.4891  0.0845
 1067loPI    C117057   8.165  14.989   4.776  0.0172 -0.0823 -0.1144
 1067loPI    C217058   8.516  15.043   4.591  0.0091  0.0754 -0.0850
 1067loPI    C317059   8.177  15.170   4.420 -0.0058  0.1570  0.0050
 1067loPI   PO417060   8.202  14.844   4.955  0.0820  0.0308  0.1404
 1067loPI   GL117061   7.978  14.993   5.337  0.0616  0.2703 -0.4149
 1067loPI   GL217062   7.716  15.129   5.119 -0.3070 -0.0983  0.0109
 1067loPI   C1A17063   8.048  15.387   5.493 -0.0021 -0.0439 -0.2112
 1067loPI   C2A17064   8.326  15.609   5.722 -0.0068  0.0921 -0.1252
 1067loPI   C3A17065   8.349  15.793   6.084  0.2229 -0.0209  0.1446
 1067loPI   C4A17066   8.353  15.652   6.502 -0.0754 -0.1235 -0.0927
 1067loPI   C5A17067   8.524  15.585   6.860 -0.4878 -0.1887 -0.3064
 1067loPI   C6A17068   8.939  15.739   6.858  0.0928 -0.0238 -0.1647
 1067loPI   C1B17069   7.507  15.065   5.476  0.4296  0.0913 -0.0302
 1067loPI   C2B17070   7.641  15.190   5.868 -0.0190  0.0303 -0.0720
 1067loPI   C3B17071   7.606  15.117   6.348 -0.3778 -0.3242  0.1130
 1067loPI   C4B17072   7.669  15.223   6.786 -0.2060 -0.0963  0.0412
 1068loPI    C117073   8.319  14.233   4.700 -0.1641 -0.1800 -0.1862
 1068loPI    C217074   7.944  14.368   4.675 -0.1169 -0.0681 -0.3019
 1068loPI    C317075   8.233  14.543   4.462  0.0232 -0.0762 -0.1210
 1068loPI   PO417076   8.470  14.264   4.995  0.0932 -0.2239  0.0331
 1068loPI   GL117077   8.366  14.061   5.361 -0.1079 -0.0306 -0.0096
 1068loPI   GL217078   8.541  13.878   5.563  0.0432  0.0346  0.1728
 1068loPI   C1A17079   8.201  14.139   5.801 -0.2678  0.1733 -0.1716
 1068loPI   C2A17080   8.100  14.284   6.199  0.1968 -0.1064  0.2293
 1068loPI   C3A17081   8.222  14.406   6.544 -0.2433  0.1506  0.0790
 1068loPI   C4A17082   8.040  14.407   7.000 -0.0110 -0.0305 -0.2862
 1068loPI   C5A17083   7.692  14.555   7.319 -0.0690 -0.2345 -0.1577
 1068loPI   C6A17084   7.373  14.691   7.681 -0.0434 -0.3016  0.1122
 1068loPI   C1B17085   8.605  13.888   5.892 -0.1551  0.1076 -0.0107
 1068loPI   C2B17086   8.814  13.740   6.231 -0.0015 -0.1072  0.0181
 1068loPI   C3B17087   9.119  13.778   6.591  0.1924  0.3422 -0.0854
 1068loPI   C4B17088   9.476  13.800   7.009 -0.1120 -0.1581 -0.1579
 1069loPI    C117089  11.690  13.325   4.437  0.0357  0.1137 -0.0739
 1069loPI    C217090  11.328  13.236   4.583  0.2539 -0.2316  0.2767
 1069loPI    C317091  11.385  13.258   4.187 -0.1735 -0.0511  0.2196
 1069loPI   PO417092  11.809  13.452   4.729  0.1762  0.0600  0.0354
 1069loPI   GL117093  11.859  13.479   5.151 -0.0908 -0.2344  0.1776
 1069loPI   GL217094  11.771  13.716   5.471  0.4804 -0.2482  0.0221
 1069loPI   C1A17095  11.683  13.250   5.553  0.3286 -0.1316 -0.4462
 1069loPI   C2A17096  11.805  13.438   5.957 -0.1415 -0.1768 -0.0896
 1069loPI   C3A17097  11.590  13.629   6.332  0.0894  0.2683  0.0997
 1069loPI   C4A17098  11.452  13.709   6.720  0.0542  0.1360 -0.1706
 1069loPI   C5A17099  11.460  14.032   6.944 -0.2997 -0.0120  0.0370
 1069loPI   C6A17100  11.752  14.348   7.026  0.0277  0.2015  0.0593
 1069loPI   C1B17101  11.935  13.898   5.928 -0.4097  0.0333  0.0780
 1069loPI   C2B17102  12.266  13.787   6.243  0.2197 -0.1412 -0.2042
 1069loPI   C3B17103  12.453  14.042   6.619  0.1474 -0.2578 -0.2627
 1069loPI   C4B17104  12.279  14.075   7.072 -0.1821  0.1286  0.1396
 1070loPI    C117105  15.436  12.618   4.887  0.3038 -0.1555 -0.0704
 1070loPI    C217106  15.303  12.332   4.640 -0.0582 -0.1406  0.1003
 1070loPI    C317107  15.671  12.308   4.796  0.0018 -0.3876 -0.0741
 1070loPI   PO417108  15.519  12.846   4.784  0.0087  0.2785  0.3293
 1070loPI   GL117109  15.850  13.209   4.826  0.0075 -0.2740 -0.0467
 1070loPI   GL217110  16.125  13.364   4.927  0.2886 -0.1763 -0.1895
 1070loPI   C1A17111  15.764  13.001   5.317  0.1674 -0.2152 -0.1122
 1070loPI   C2A17112  15.443  12.809   5.576  0.0749  0.3384 -0.1537
 1070loPI   C3A17113  15.235  12.971   5.801  0.1251 -0.1790  0.1651
 1070loPI   C4A17114  14.962  12.901   5.990 -0.1819 -0.3366 -0.3617
 1070loPI   C5A17115  14.731  12.635   6.314  0.0390 -0.0800 -0.0853
 1070loPI   C6A17116  14.775  12.524   6.757 -0.0011 -0.0583 -0.3557
 1070loPI   C1B17117  16.191  13.294   5.327 -0.0283 -0.2262  0.1809
 1070loPI   C2B17118  16.151  13.349   5.646  0.1573  0.0224  0.1639
 1070loPI   C3B17119  16.032  12.986   5.885 -0.2721  0.0559  0.2350
 1070loPI   C4B17120  16.139  13.005   6.265  0.1700 -0.1447  0.1174
 1071loPI    C117121   6.893  16.248   4.709 -0.0643 -0.1003 -0.0280
 1071loPI    C217122   7.251  16.346   4.857 -0.0835  0.2512 -0.2030
 1071loPI    C317123   7.224  16.088   4.553 -0.0008  0.0158 -0.0137
 1071loPI   PO417124   6.743  16.253   4.932  0.1726 -0.2630  0.2149
 1071loPI   GL117125   6.767  16.181   5.382 -0.1686  0.4877 -0.0845
 1071loPI   GL217126   6.749  15.868   5.385  0.0631 -0.1567 -0.0177
 1071loPI   C1A17127   6.905  16.340   5.818 -0.1179 -0.0841  0.0958
 1071loPI   C2A17128   7.043  16.584   6.163 -0.0455  0.4608  0.0403
 1071loPI   C3A17129   7.013  16.712   6.548 -0.1441 -0.2694 -0.0995
 1071loPI   C4A17130   6.758  16.698   6.936  0.0930 -0.1242 -0.3686
 1071loPI   C5A17131   6.869  16.506   7.306 -0.2776 -0.0233 -0.0311
 1071loPI   C6A17132   6.988  16.303   7.772 -0.0965 -0.1280 -0.2299
 1071loPI   C1B17133   7.113  15.862   5.689  0.0546 -0.1308  0.1247
 1071loPI   C2B17134   7.344  16.134   5.925 -0.2451 -0.1307 -0.2004
 1071loPI   C3B17135   7.448  16.055   6.426  0.0304 -0.0279 -0.0525
 1071loPI   C4B17136   7.606  15.961   6.871  0.1335  0.1981  0.2201
 1072loPI    C117137   2.265   0.854   4.205  0.0184 -0.1627 -0.1083
 1072loPI    C217138   2.019   0.668   4.459 -0.1163  0.3370  0.1382
 1072loPI    C317139   1.900   0.743   4.085 -0.1386  0.1163  0.0999
 1072loPI   PO417140   2.362   1.003   4.317 -0.2949 -0.0323 -0.2148
 1072loPI   GL117141   2.331   1.181   4.684 -0.1914 -0.1012  0.1665
 1072loPI   GL217142   2.289   1.447   4.798 -0.1914  0.0184 -0.1407
 1072loPI   C1A17143   2.304   0.826   4.929  0.2396  0.0028  0.3800
 1072loPI   C2A17144   2.280   0.890   5.414  0.0248  0.4878 -0.0999
 1072loPI   C3A17145   2.317   0.914   5.909  0.1143  0.0398  0.1808
 1072loPI   C4A17146   2.490   0.932   6.347 -0.1365  0.3241  0.1948
 1072loPI   C5A17147   2.335   1.066   6.808  0.2461  0.2514  0.0566
 1072loPI   C6A17148   2.000   0.820   6.876 -0.2377  0.0261  0.2394
 1072loPI   C1B17149   2.411   1.413   5.166 -0.0337  0.1851  0.0140
 1072loPI   C2B17150   2.459   1.340   5.637 -0.1465  0.1164 -0.1610
 1072loPI   C3B17151   2.713   1.327   6.031  0.1607 -0.2202  0.1378
 1072loPI   C4B17152   3.027   1.048   6.185 -0.3369 -0.2470  0.3087
 1073loPI    C117153  19.039  16.676   4.507  0.0714 -0.0316  0.0688
 1073loPI    C217154  19.335  16.913   4.635  0.1060 -0.0338 -0.0059
 1073loPI    C317155  18.961  17.053   4.617  0.0551 -0.1152  0.3502
 1073loPI   PO417156  18.988  16.541   4.640  0.2855  0.1104  0.1750
 1073loPI   GL117157  18.950  16.478   5.096  0.1036  0.0449 -0.0962
 1073loPI   GL217158  19.131  16.779   5.014  0.0059  0.2411 -0.2587
 1073loPI   C1A17159  18.643  16.735   5.292 -0.0363 -0.0149  0.0027
 1073loPI   C2A17160  18.606  17.076   5.605 -0.3641 -0.1026  0.0379
 1073loPI   C3A17161  18.842  17.336   5.818 -0.2053  0.0449 -0.3229
 1073loPI   C4A17162  19.164  17.333   6.146 -0.0802  0.1593  0.0228
 1073loPI   C5A17163  19.244  17.259   6.565  0.2026 -0.1176 -0.0473
 1073loPI   C6A17164  19.159  17.010   6.874 -0.0833  0.1458 -0.3660
 1073loPI   C1B17165  19.077  16.901   5.444 -0.0132  0.1972 -0.2954
 1073loPI   C2B17166  18.993  16.862   5.949 -0.0099  0.0369 -0.3246
 1073loPI   C3B17167  18.880  16.977   6.410  0.1778 -0.2152  0.1537
 1073loPI   C4B17168  18.606  16.720   6.716 -0.0053 -0.1969  0.1660
 1074loPI    C117169   0.931   5.955   4.794 -0.0142 -0.0358 -0.0794
 1074loPI    C217170   0.930   5.958   4.394 -0.1686 -0.0135 -0.0794
 1074loPI    C317171   1.107   6.254   4.595 -0.0498 -0.0489 -0.1309
 1074loPI   PO417172   1.080   5.713   4.882  0.1747  0.0624  0.1058
 1074loPI   GL117173   1.165   5.708   5.287  0.0466  0.2489  0.0920
 1074loPI   GL217174   0.957   5.588   5.453  0.0264  0.0137  0.0588
 1074loPI   C1A17175   1.304   5.890   5.615 -0.0307 -0.0717  0.1294
 1074loPI   C2A17176   1.418   5.773   6.049 -0.3223  0.1140 -0.0438
 1074loPI   C3A17177   1.595   5.829   6.509 -0.0386 -0.0183  0.2506
 1074loPI   C4A17178   1.469   5.537   6.818  0.2976  0.1761  0.0826
 1074loPI   C5A17179   1.304   5.143   7.079 -0.1315 -0.0026 -0.0669
 1074loPI   C6A17180   1.319   4.761   7.443  0.2305 -0.2209  0.1697
 1074loPI   C1B17181   0.847   5.781   5.741  0.0029 -0.1227 -0.1096
 1074loPI   C2B17182   0.725   5.627   6.123 -0.0519  0.0494  0.3758
 1074loPI   C3B17183   0.790   5.758   6.542  0.2313 -0.0375  0.0361
 1074loPI   C4B17184   0.577   5.814   6.923  0.1572 -0.1045 -0.0657
 1075loPI    C117185   8.559   9.071   4.585 -0.1147  0.1582 -0.1582
 1075loPI    C217186   8.759   8.734   4.503  0.0808  0.1928  0.1617
 1075loPI    C317187   8.872   9.079   4.336  0.1726  0.1792  0.1949
 1075loPI   PO417188   8.517   9.088   4.801  0.2079  0.0565  0.1446
 1075loPI   GL117189   8.690   9.352   5.161  0.2699 -0.0251  0.1097
 1075loPI   GL217190   8.688   9.162   5.490 -0.1253 -0.0697 -0.0168
 1075loPI   C1A17191   9.021   9.476   5.556 -0.1542  0.2150  0.1847
 1075loPI   C2A17192   9.015   9.553   5.968 -0.1751 -0.0509 -0.1604
 1075loPI   C3A17193   9.022   9.596   6.452 -0.0765 -0.2947  0.0932
 1075loPI   C4A17194   9.038   9.751   6.912  0.1562  0.1221 -0.0141
 1075loPI   C5A17195   9.173  10.016   7.287  0.0171  0.0865 -0.3200
 1075loPI   C6A17196   9.159  10.494   7.481 -0.0060  0.3019 -0.4290
 1075loPI   C1B17197   8.705   9.023   5.908 -0.2229 -0.3638  0.2532
 1075loPI   C2B17198   8.380   8.881   6.184  0.0383 -0.1896  0.1221
 1075loPI   C3B17199   8.233   8.890   6.613 -0.0525 -0.1249  0.1369
 1075loPI   C4B17200   8.251   8.991   6.993  0.0539 -0.1900  0.0713
 1076loPI    C117201   7.518  16.577   4.378  0.1118  0.0878 -0.0228
 1076loPI    C217202   7.135  16.492   4.296  0.1164  0.1098 -0.0675
 1076loPI    C317203   7.293  16.840   4.176  0.1867  0.0461 -0.1617
 1076loPI   PO417204   7.594  16.596   4.622 -0.0179  0.4288 -0.2608
 1076loPI   GL117205   7.569  16.785   4.987 -0.3543  0.1977  0.1103
 1076loPI   GL217206   7.671  16.531   5.166  0.0543  0.0615 -0.2945
 1076loPI   C1A17207   7.861  17.138   5.213 -0.0796  0.2356  0.1633
 1076loPI   C2A17208   7.831  17.211   5.681 -0.1338 -0.4168 -0.1821
 1076loPI   C3A17209   7.906  16.924   6.005  0.1406 -0.0645  0.3005
 1076loPI   C4A17210   8.047  16.673   6.458  0.2957  0.0383 -0.1086
 1076loPI   C5A17211   7.979  16.891   6.882  0.2363 -0.1552 -0.0196
 1076loPI   C6A17212   8.044  16.617   7.298 -0.1373 -0.0336 -0.2096
 1076loPI   C1B17213   7.882  16.722   5.516  0.0582  0.4025 -0.2804
 1076loPI   C2B17214   8.260  16.718   5.738  0.1229  0.1735 -0.0295
 1076loPI   C3B17215   8.443  16.788   6.127 -0.3196  0.1699  0.0004
 1076loPI   C4B17216   8.743  16.869   6.433 -0.1219 -0.4264 -0.0261
 1077loPI    C117217   4.087  19.482   4.118 -0.0188  0.0619  0.0226
 1077loPI    C217218   4.320  19.597   3.813 -0.0612  0.1057  0.0066
 1077loPI    C317219   4.269  19.208   3.891 -0.1149  0.0929 -0.0922
 1077loPI   PO417220   4.152  19.625   4.323  0.3092  0.2256  0.0124
 1077loPI   GL117221   3.998  19.812   4.720  0.0886  0.0045 -0.0198
 1077loPI   GL217222   4.272  20.015   4.683 -0.0057  0.2994 -0.3285
 1077loPI   C1A17223   4.063  19.615   5.123 -0.0755  0.1505  0.0120
 1077loPI   C2A17224   4.279  19.484   5.446  0.0397  0.1271  0.2018
 1077loPI   C3A17225   4.302  19.621   5.828  0.2344  0.0435 -0.1065
 1077loPI   C4A17226   4.445  19.609   6.207 -0.2149 -0.3950 -0.0811
 1077loPI   C5A17227   4.345  19.726   6.613  0.2195  0.1327  0.2505
 1077loPI   C6A17228   4.430  19.358   6.802 -0.0548 -0.0304 -0.2225
 1077loPI   C1B17229   4.416  19.965   5.010  0.2704  0.1583 -0.0644
 1077loPI   C2B17230   4.488  20.059   5.474  0.1825 -0.2102 -0.1486
 1077loPI   C3B17231   4.728  20.377   5.737 -0.3971 -0.2767  0.0851
 1077loPI   C4B17232   4.567  20.551   6.101  0.0745  0.2666  0.0673
 1078loPI    C117233  18.414   8.501   4.399  0.0833  0.0257 -0.1253
 1078loPI    C217234  18.564   8.621   4.048  0.2413  0.0426 -0.0527
 1078loPI    C317235  18.202   8.451   4.063  0.1600  0.1994 -0.2005
 1078loPI   PO417236  18.539   8.690   4.634  0.1008 -0.0028 -0.3195
 1078loPI   GL117237  18.681   8.609   5.061  0.1048 -0.1068 -0.2556
 1078loPI   GL217238  18.644   8.253   5.176 -0.0739 -0.0889 -0.0189
 1078loPI   C1A17239  18.663   8.719   5.528  0.0557 -0.2850  0.2260
 1078loPI   C2A17240  18.785   8.879   5.941 -0.0948 -0.2159 -0.0716
 1078loPI   C3A17241  19.017   8.956   6.328  0.0343  0.0543  0.0996
 1078loPI   C4A17242  19.043   8.884   6.681  0.3243 -0.1480  0.2847
 1078loPI   C5A17243  19.012   8.854   7.122 -0.3054  0.2186  0.0338
 1078loPI   C6A17244  19.330   9.015   7.370  0.0674  0.0725  0.1676
 1078loPI   C1B17245  18.563   8.214   5.543 -0.2682  0.0883  0.0126
 1078loPI   C2B17246  18.393   7.968   5.898  0.3264  0.2169 -0.5902
 1078loPI   C3B17247  18.315   7.809   6.384  0.1163 -0.1547  0.0593
 1078loPI   C4B17248  18.200   7.754   6.788 -0.0698 -0.0410 -0.0680
 1079loPI    C117249   3.058  15.477   4.602  0.0102 -0.1017  0.0902
 1079loPI    C217250   2.771  15.755   4.612  0.0547 -0.0501 -0.0406
 1079loPI    C317251   3.128  15.843   4.455  0.1801 -0.0794  0.2240
 1079loPI   PO417252   2.981  15.365   4.893  0.4047  0.1893  0.1910
 1079loPI   GL117253   2.759  15.148   5.091  0.1145  0.0168  0.0656
 1079loPI   GL217254   2.511  15.279   5.097 -0.1805  0.0052  0.0912
 1079loPI   C1A17255   2.847  15.267   5.476 -0.0918 -0.1758 -0.0394
 1079loPI   C2A17256   2.879  15.497   5.844  0.1194 -0.0980  0.2423
 1079loPI   C3A17257   2.486  15.614   5.937 -0.3120  0.0122 -0.0067
 1079loPI   C4A17258   2.110  15.814   6.008 -0.1094  0.0267  0.0212
 1079loPI   C5A17259   2.215  15.955   6.362  0.0326 -0.0119 -0.1182
 1079loPI   C6A17260   2.020  15.781   6.779  0.0680 -0.0356 -0.2423
 1079loPI   C1B17261   2.352  15.483   5.441  0.1997 -0.1706  0.3297
 1079loPI   C2B17262   2.030  15.602   5.499  0.0481 -0.5729 -0.2230
 1079loPI   C3B17263   1.828  15.964   5.591 -0.0711 -0.0080 -0.0689
 1079loPI   C4B17264   1.867  16.277   5.975 -0.0365 -0.1385  0.2348
 1080loPI    C117265   0.342   0.444   4.135 -0.1600  0.1104 -0.1469
 1080loPI    C217266   0.733   0.366   4.167 -0.1884 -0.0467 -0.1729
 1080loPI    C317267   0.608   0.678   3.950 -0.0760  0.0294 -0.1293
 1080loPI   PO417268   0.322   0.434   4.408  0.2120  0.2185 -0.1904
 1080loPI   GL117269   0.342   0.624   4.800  0.1300  0.1687  0.0835
 1080loPI   GL217270   0.468   0.813   4.979 -0.2417  0.1101  0.0499
 1080loPI   C1A17271   0.440   0.318   5.235  0.2835  0.0105 -0.1594
 1080loPI   C2A17272   0.676   0.371   5.570 -0.1104  0.0187 -0.2224
 1080loPI   C3A17273   0.556   0.343   5.911  0.0375  0.0665  0.0451
 1080loPI   C4A17274   0.773   0.121   6.250  0.5005  0.0150 -0.1820
 1080loPI   C5A17275   1.263   0.012   6.216 -0.3415  0.2146 -0.2669
 1080loPI   C6A17276   1.555  -0.073   6.502  0.0907 -0.3615  0.0654
 1080loPI   C1B17277   0.496   0.914   5.439 -0.0169 -0.2532  0.1869
 1080loPI   C2B17278   0.721   0.840   5.783 -0.0649 -0.0910 -0.2785
 1080loPI   C3B17279   1.025   0.967   6.136  0.3228 -0.0065 -0.0330
 1080loPI   C4B17280   1.170   0.925   6.590  0.0797 -0.0311 -0.1167
 1081loPI    C117281   1.096   7.196   5.020 -0.0046  0.3150  0.2707
 1081loPI    C217282   1.235   7.514   4.822  0.1728 -0.0394 -0.1933
 1081loPI    C317283   1.021   7.237   4.629  0.1065 -0.2547  0.1803
 1081loPI   PO417284   1.255   7.232   5.271  0.1743  0.1873  0.0503
 1081loPI   GL117285   1.194   7.036   5.533  0.1850 -0.3711 -0.0126
 1081loPI   GL217286   1.359   6.841   5.774  0.0430 -0.0398  0.0965
 1081loPI   C1A17287   1.176   7.293   5.980 -0.0095 -0.1403  0.1308
 1081loPI   C2A17288   1.018   7.549   6.202  0.0982  0.0474 -0.1230
 1081loPI   C3A17289   0.698   7.625   6.612 -0.2428  0.0965  0.0849
 1081loPI   C4A17290   0.602   7.862   6.914  0.1483 -0.2254  0.2701
 1081loPI   C5A17291   0.833   7.997   7.223 -0.0447 -0.0310 -0.1883
 1081loPI   C6A17292   1.216   8.137   7.393  0.0395 -0.1023 -0.0902
 1081loPI   C1B17293   1.232   6.773   6.167 -0.2506  0.0277  0.0602
 1081loPI   C2B17294   1.246   6.746   6.585 -0.1537  0.3453 -0.2234
 1081loPI   C3B17295   1.578   6.788   6.778  0.0232  0.0818  0.2868
 1081loPI   C4B17296   1.702   6.685   7.131  0.0338  0.1499 -0.1740
 1082loPI    C117297   5.218  14.680   4.456 -0.0451 -0.0007 -0.0301
 1082loPI    C217298   5.300  14.503   4.106  0.0768  0.2161 -0.1130
 1082loPI    C317299   4.996  14.762   4.134 -0.2452 -0.1708  0.0625
 1082loPI   PO417300   5.089  14.463   4.674 -0.2979  0.0230 -0.0407
 1082loPI   GL117301   4.990  14.297   5.045  0.0848  0.0594  0.1127
 1082loPI   GL217302   4.670  14.101   5.163  0.2308  0.0174 -0.0433
 1082loPI   C1A17303   4.934  14.278   5.519 -0.0141  0.0060 -0.1200
 1082loPI   C2A17304   5.024  14.164   5.913 -0.0672 -0.2439  0.0544
 1082loPI   C3A17305   5.470  14.258   6.028  0.0130  0.0288  0.1917
 1082loPI   C4A17306   5.733  14.361   6.360 -0.2184 -0.1045  0.0443
 1082loPI   C5A17307   5.760  14.311   6.782  0.1653  0.1190  0.1964
 1082loPI   C6A17308   6.149  14.323   7.034  0.2009  0.0402 -0.0074
 1082loPI   C1B17309   4.652  13.834   5.463 -0.1110  0.1400  0.0607
 1082loPI   C2B17310   4.512  13.559   5.698  0.2552  0.0386  0.1127
 1082loPI   C3B17311   4.539  13.369   6.212  0.0105 -0.1335  0.2254
 1082loPI   C4B17312   4.839  13.586   6.583  0.1605  0.1763 -0.2956
 1083loPI    C117313  16.693  15.840   4.105  0.1060 -0.0601  0.0816
 1083loPI    C217314  17.063  15.984   4.051  0.1220 -0.1067  0.0650
 1083loPI    C317315  16.822  15.927   3.737  0.0534  0.0486  0.0882
 1083loPI   PO417316  16.503  16.037   4.315 -0.1627 -0.0284  0.1857
 1083loPI   GL117317  16.451  16.293   4.630  0.0265 -0.4636  0.3381
 1083loPI   GL217318  16.402  16.639   4.680  0.0222 -0.1847 -0.0362
 1083loPI   C1A17319  16.476  16.278   5.078  0.0362 -0.3143  0.0515
 1083loPI   C2A17320  16.301  16.283   5.485 -0.1162  0.0504  0.1686
 1083loPI   C3A17321  16.136  16.325   5.980 -0.0971 -0.4596  0.1155
 1083loPI   C4A17322  16.263  16.278   6.412  0.1772 -0.1750  0.0227
 1083loPI   C5A17323  16.503  16.393   6.766  0.0016 -0.0552  0.1076
 1083loPI   C6A17324  16.835  16.380   7.038  0.1156  0.0989  0.0058
 1083loPI   C1B17325  16.268  16.796   5.139  0.2662  0.1914  0.2411
 1083loPI   C2B17326  16.258  16.760   5.610 -0.2001 -0.1473 -0.4028
 1083loPI   C3B17327  16.230  16.852   5.981  0.1222 -0.0102 -0.1412
 1083loPI   C4B17328  16.178  16.820   6.422  0.0365 -0.0800 -0.4997
 1084loPI    C117329   2.240   7.459   5.595  0.2413 -0.0556  0.2244
 1084loPI    C217330   2.543   7.457   5.333  0.0979 -0.0291  0.0562
 1084loPI    C317331   2.419   7.114   5.498  0.2114 -0.0414  0.1168
 1084loPI   PO417332   2.056   7.568   5.449  0.0007  0.2516 -0.2263
 1084loPI   GL117333   1.539   7.795   5.681 -0.1985 -0.2157 -0.0513
 1084loPI   GL217334   1.273   7.583   5.653 -0.2747 -0.1191 -0.1576
 1084loPI   C1A17335   1.549   7.634   6.137 -0.0897  0.1366  0.0037
 1084loPI   C2A17336   1.720   7.812   6.514  0.2216 -0.1525  0.0716
 1084loPI   C3A17337   2.031   7.981   6.839 -0.0098  0.3394 -0.1113
 1084loPI   C4A17338   2.247   7.910   7.189  0.0563  0.0640 -0.1092
 1084loPI   C5A17339   2.425   8.187   7.603  0.2189  0.1624  0.2817
 1084loPI   C6A17340   2.614   8.398   7.926  0.1091  0.1742  0.4347
 1084loPI   C1B17341   0.828   7.622   5.764 -0.0525 -0.1348 -0.1237
 1084loPI   C2B17342   0.483   7.480   5.934  0.0597  0.1006  0.1452
 1084loPI   C3B17343   0.378   7.467   6.279  0.0929  0.0962  0.1636
 1084loPI   C4B17344   0.234   7.412   6.685  0.1422  0.2033 -0.1323
 1085loPI    C117345  10.647  11.777   4.327  0.1183 -0.0054 -0.0670
 1085loPI    C217346  10.907  11.708   4.032  0.0721 -0.4044 -0.0193
 1085loPI    C317347  10.514  11.682   3.962  0.0442  0.0321 -0.0500
 1085loPI   PO417348  10.823  11.639   4.540 -0.3009 -0.1240 -0.2156
 1085loPI   GL117349  10.812  11.632   4.950 -0.1104  0.0859  0.1906
 1085loPI   GL217350  10.765  11.363   5.151  0.2508  0.0963 -0.4817
 1085loPI   C1A17351  10.595  11.725   5.399  0.2983  0.3429 -0.0969
 1085loPI   C2A17352  10.551  11.692   5.883 -0.0645 -0.2211 -0.0065
 1085loPI   C3A17353  10.579  11.523   6.237 -0.0024 -0.1463 -0.1243
 1085loPI   C4A17354  10.639  11.520   6.643  0.0420  0.1149 -0.2475
 1085loPI   C5A17355  10.537  11.463   7.023 -0.1654 -0.1616  0.1349
 1085loPI   C6A17356  10.875  11.438   7.232  0.1184  0.3881  0.2961
 1085loPI   C1B17357  10.966  11.432   5.523  0.1259  0.1445 -0.2301
 1085loPI   C2B17358  10.986  11.239   5.963  0.4343 -0.0337  0.0882
 1085loPI   C3B17359  11.031  11.189   6.375  0.2033 -0.0701  0.0828
 1085loPI   C4B17360  10.964  11.163   6.782  0.2466 -0.1826 -0.1612
 1086loPI    C117361   9.874  18.148   4.277 -0.0621 -0.2407 -0.1155
 1086loPI    C217362  10.117  18.204   3.963  0.0694  0.4692  0.0945
 1086loPI    C317363   9.740  18.337   3.951 -0.2217 -0.3161 -0.0943
 1086loPI   PO417364  10.006  18.250   4.502 -0.2700 -0.4003  0.1490
 1086loPI   GL117365  10.219  18.014   4.755  0.0121 -0.2125  0.4918
 1086loPI   GL217366  10.438  18.304   4.789 -0.0230 -0.0966 -0.5461
 1086loPI   C1A17367   9.888  17.967   5.131  0.0238 -0.1158  0.0441
 1086loPI   C2A17368  10.019  18.017   5.510 -0.2683 -0.0627 -0.0109
 1086loPI   C3A17369   9.923  17.851   5.856 -0.0780  0.0054 -0.1033
 1086loPI   C4A17370   9.558  17.726   5.974  0.1282 -0.1072  0.2053
 1086loPI   C5A17371   9.291  17.567   6.269 -0.1319  0.2088 -0.2363
 1086loPI   C6A17372   9.156  17.658   6.690  0.2873  0.0503  0.0790
 1086loPI   C1B17373  10.395  18.432   5.280  0.0285  0.0133  0.0795
 1086loPI   C2B17374  10.223  18.477   5.740  0.0367 -0.1763  0.1142
 1086loPI   C3B17375  10.201  18.685   6.087  0.1745 -0.2092 -0.1284
 1086loPI   C4B17376   9.771  18.761   6.259  0.3085  0.2320  0.3297
 1087loPI    C117377   9.043   3.854   4.353 -0.1618 -0.1844  0.1554
 1087loPI    C217378   9.144   3.525   4.149 -0.0258 -0.1967  0.2421
 1087loPI    C317379   8.964   3.829   3.961  0.0258 -0.2408  0.1206
 1087loPI   PO417380   9.262   3.906   4.502  0.0294  0.0467 -0.0729
 1087loPI   GL117381   9.556   3.807   4.807  0.1855  0.1547 -0.0986
 1087loPI   GL217382   9.428   4.113   4.896 -0.0068 -0.2318 -0.0652
 1087loPI   C1A17383   9.589   3.547   5.143  0.4119  0.0122 -0.0769
 1087loPI   C2A17384   9.625   3.441   5.593  0.0189 -0.2304 -0.0624
 1087loPI   C3A17385   9.664   3.584   6.085  0.0498 -0.1728 -0.0532
 1087loPI   C4A17386   9.807   3.221   6.318 -0.1206  0.1805  0.2817
 1087loPI   C5A17387   9.980   3.164   6.736 -0.0505  0.0209 -0.3192
 1087loPI   C6A17388  10.182   2.827   6.943  0.2695  0.1721 -0.1894
 1087loPI   C1B17389   9.457   3.931   5.370  0.2662  0.1803  0.2573
 1087loPI   C2B17390   9.371   3.898   5.853 -0.0625 -0.0436  0.0373
 1087loPI   C3B17391   9.175   3.779   6.192  0.1909 -0.2198 -0.0375
 1087loPI   C4B17392   9.184   3.973   6.572 -0.1329  0.0439 -0.0108
 1088loPI    C117393  14.617  12.614   4.691 -0.0590 -0.0530  0.0160
 1088loPI    C217394  14.929  12.542   4.931 -0.2188 -0.2515  0.1683
 1088loPI    C317395  14.988  12.693   4.565  0.0387 -0.0921  0.2731
 1088loPI   PO417396  14.496  12.772   4.792  0.3979  0.0650 -0.3000
 1088loPI   GL117397  14.496  12.947   5.260  0.0757 -0.5258 -0.1960
 1088loPI   GL217398  14.554  12.551   5.288 -0.1263 -0.0731  0.2262
 1088loPI   C1A17399  14.519  12.836   5.730 -0.0980 -0.1046 -0.2361
 1088loPI   C2A17400  14.345  12.856   6.096  0.2406 -0.3607 -0.0258
 1088loPI   C3A17401  14.177  12.925   6.394 -0.2929 -0.6142  0.0640
 1088loPI   C4A17402  13.931  13.032   6.744 -0.1285 -0.1592  0.0178
 1088loPI   C5A17403  14.003  12.821   7.037 -0.3815  0.1989 -0.0764
 1088loPI   C6A17404  14.350  12.919   7.309  0.1742 -0.0434 -0.0640
 1088loPI   C1B17405  14.217  12.463   5.628  0.0020 -0.0531 -0.0250
 1088loPI   C2B17406  14.193  12.357   6.106 -0.3429  0.1017 -0.1980
 1088loPI   C3B17407  14.267  12.441   6.428  0.3272  0.4742 -0.1239
 1088loPI   C4B17408  14.311  12.413   6.852  0.0558  0.0835 -0.0429
 1089loPI    C117409  11.369   7.889   4.818 -0.0346 -0.2644 -0.1561
 1089loPI    C217410  11.112   7.748   4.546 -0.2725 -0.1265 -0.0063
 1089loPI    C317411  10.978   7.965   4.855  0.0325  0.0036  0.0385
 1089loPI   PO417412  11.538   7.682   4.820  0.0351  0.1420  0.0284
 1089loPI   GL117413  11.653   7.549   5.112  0.2430 -0.2464 -0.0215
 1089loPI   GL217414  11.987   7.715   5.119  0.1165  0.1734 -0.0903
 1089loPI   C1A17415  11.529   7.316   5.502 -0.1334  0.3006  0.0144
 1089loPI   C2A17416  11.469   6.913   5.704 -0.0061  0.0115 -0.0510
 1089loPI   C3A17417  11.339   6.783   6.124 -0.3851  0.1440 -0.0781
 1089loPI   C4A17418  11.305   6.948   6.468 -0.1201 -0.1375 -0.0642
 1089loPI   C5A17419  11.034   7.195   6.679  0.0942  0.1074  0.1053
 1089loPI   C6A17420  11.020   7.375   7.004 -0.0466 -0.2513  0.1106
 1089loPI   C1B17421  12.110   7.516   5.488 -0.1589  0.1334 -0.1123
 1089loPI   C2B17422  12.347   7.608   5.863  0.5115  0.0827  0.2211
 1089loPI   C3B17423  12.474   7.843   6.217 -0.1035  0.1686 -0.3074
 1089loPI   C4B17424  12.656   7.686   6.642  0.2904  0.4218  0.1657
 1090loPI    C117425   1.416  15.776   4.475 -0.1437 -0.4557  0.0422
 1090loPI    C217426   1.201  15.884   4.155 -0.2286 -0.6222  0.0417
 1090loPI    C317427   1.534  15.667   4.109  0.0772 -0.1628  0.0229
 1090loPI   PO417428   1.353  15.756   4.700  0.0566 -0.2574  0.0485
 1090loPI   GL117429   1.178  15.653   5.145 -0.0342 -0.0908  0.1399
 1090loPI   GL217430   0.939  15.652   5.076  0.0050 -0.1887  0.0015
 1090loPI   C1A17431   1.176  15.869   5.591  0.0565  0.0114 -0.2539
 1090loPI   C2A17432   1.228  15.806   6.007 -0.1538 -0.4256  0.3153
 1090loPI   C3A17433   1.083  15.810   6.344 -0.0735 -0.0534  0.0540
 1090loPI   C4A17434   0.932  15.721   6.781  0.1504  0.2199  0.1156
 1090loPI   C5A17435   0.843  15.624   7.204 -0.0766 -0.1617 -0.0895
 1090loPI   C6A17436   0.567  15.384   7.487 -0.0235 -0.0988 -0.1646
 1090loPI   C1B17437   0.991  15.425   5.580 -0.0555 -0.0718  0.0682
 1090loPI   C2B17438   0.844  15.187   5.981  0.0478 -0.2443  0.0342
 1090loPI   C3B17439   0.708  14.844   6.176 -0.2097  0.1535  0.2889
 1090loPI   C4B17440   0.634  14.419   5.965 -0.1390 -0.2715  0.0881
 1091loPI    C117441   8.307   4.073   4.333  0.0533 -0.0734  0.0707
 1091loPI    C217442   8.538   3.789   4.172 -0.0412 -0.1289  0.0318
 1091loPI    C317443   8.193   3.889   3.996  0.0737  0.1323 -0.0505
 1091loPI   PO417444   8.174   4.024   4.586 -0.1107  0.0044  0.1505
 1091loPI   GL117445   7.943   3.995   4.959 -0.0141 -0.0557 -0.1214
 1091loPI   GL217446   7.734   4.258   4.956  0.1564  0.3997  0.2077
 1091loPI   C1A17447   7.738   3.939   5.339 -0.2495 -0.0270 -0.2023
 1091loPI   C2A17448   7.687   3.630   5.691 -0.1246 -0.1593  0.2302
 1091loPI   C3A17449   7.684   3.452   6.062  0.1399 -0.1217 -0.1928
 1091loPI   C4A17450   7.834   3.427   6.413  0.0185  0.3422  0.0687
 1091loPI   C5A17451   7.819   3.550   6.878  0.0249 -0.2501 -0.0143
 1091loPI   C6A17452   7.651   3.848   7.073  0.2129 -0.0846 -0.1161
 1091loPI   C1B17453   7.798   4.399   5.352  0.2021 -0.3341 -0.1291
 1091loPI   C2B17454   7.861   4.135   5.799 -0.0520  0.0876 -0.0913
 1091loPI   C3B17455   7.801   3.877   6.250 -0.1150  0.0652  0.0798
 1091loPI   C4B17456   7.544   3.821   6.532 -0.0872 -0.2963 -0.0485
 1092loPI    C117457  11.274   9.210   4.430  0.0090 -0.1251 -0.1339
 1092loPI    C217458  11.157   9.589   4.486 -0.0588 -0.1673  0.0132
 1092loPI    C317459  11.055   9.396   4.151  0.0921 -0.0116 -0.1243
 1092loPI   PO417460  11.325   9.167   4.751  0.2899 -0.0858 -0.3131
 1092loPI   GL117461  11.256   9.139   5.133  0.1800 -0.2396  0.0484
 1092loPI   GL217462  11.180   9.377   5.490  0.0401 -0.1789  0.0627
 1092loPI   C1A17463  11.367   8.752   5.254 -0.1550  0.1102 -0.1284
 1092loPI   C2A17464  11.472   8.616   5.629 -0.2821 -0.2931 -0.0266
 1092loPI   C3A17465  11.630   8.445   6.047 -0.0970  0.1264 -0.1797
 1092loPI   C4A17466  11.634   8.117   6.335 -0.1382 -0.3646 -0.0804
 1092loPI   C5A17467  11.753   7.862   6.650  0.2000 -0.5629 -0.1639
 1092loPI   C6A17468  11.875   7.715   6.970 -0.3674  0.0437 -0.1860
 1092loPI   C1B17469  11.127   9.040   5.676  0.1063 -0.2173  0.3377
 1092loPI   C2B17470  11.047   8.659   5.906  0.2572 -0.2598 -0.1140
 1092loPI   C3B17471  11.209   8.659   6.249 -0.1880 -0.0583 -0.2525
 1092loPI   C4B17472  11.185   8.718   6.661  0.0781 -0.0360  0.0740
 1093loPI    C117473  12.783  11.523   5.081 -0.2444  0.0009 -0.1566
 1093loPI    C217474  13.003  11.751   4.837 -0.0733 -0.0624 -0.0635
 1093loPI    C317475  13.133  11.388   4.944 -0.1093 -0.0050  0.1829
 1093loPI   PO417476  12.533  11.647   4.923 -0.1608  0.2181  0.0271
 1093loPI   GL117477  12.166  11.589   5.028  0.1767  0.0382  0.0876
 1093loPI   GL217478  11.964  11.773   5.161 -0.1879 -0.1098 -0.2564
 1093loPI   C1A17479  12.262  11.556   5.507  0.0245 -0.0124  0.0898
 1093loPI   C2A17480  12.082  11.566   5.900 -0.3049 -0.1217  0.3344
 1093loPI   C3A17481  12.138  11.541   6.352 -0.2163  0.0352  0.1494
 1093loPI   C4A17482  11.926  11.409   6.741  0.0934  0.2063 -0.2969
 1093loPI   C5A17483  12.209  11.475   7.090 -0.0488  0.2088 -0.1334
 1093loPI   C6A17484  12.239  11.834   7.400 -0.0175 -0.2488 -0.0418
 1093loPI   C1B17485  11.889  11.923   5.560  0.6063  0.1786  0.0486
 1093loPI   C2B17486  11.770  12.144   5.859  0.0937  0.1015 -0.3214
 1093loPI   C3B17487  11.852  12.518   6.152 -0.2881  0.0564 -0.0664
 1093loPI   C4B17488  11.578  12.611   6.464 -0.1356  0.0637  0.3378
 1094loPI    C117489  19.048  11.328   4.791 -0.0459 -0.0056  0.1778
 1094loPI    C217490  18.789  11.283   4.489  0.0515  0.0234  0.0896
 1094loPI    C317491  18.965  10.963   4.651 -0.2133 -0.0170  0.3034
 1094loPI   PO417492  18.985  11.526   4.946 -0.0342  0.1585  0.2458
 1094loPI   GL117493  19.041  11.900   5.220 -0.0833 -0.0932  0.2149
 1094loPI   GL217494  18.709  11.712   5.284  0.2233 -0.0028 -0.2327
 1094loPI   C1A17495  19.185  12.114   5.598 -0.1878 -0.0423  0.0809
 1094loPI   C2A17496  19.583  12.154   5.750  0.1136  0.1769 -0.1558
 1094loPI   C3A17497  19.649  12.108   6.199  0.0489  0.0151  0.2421
 1094loPI   C4A17498  19.688  11.992   6.600 -0.2904 -0.0034  0.1265
 1094loPI   C5A17499  19.822  12.227   6.992  0.2378  0.1428  0.0377
 1094loPI   C6A17500  20.140  12.360   7.235 -0.2751 -0.3088 -0.0241
 1094loPI   C1B17501  18.930  11.704   5.679 -0.1668  0.0334 -0.0974
 1094loPI   C2B17502  18.890  11.614   6.087  0.1242 -0.1233 -0.0260
 1094loPI   C3B17503  18.900  11.759   6.417  0.3385 -0.3424 -0.2482
 1094loPI   C4B17504  18.836  12.027   6.845 -0.0099 -0.2504 -0.2626
 1095loPI    C117505  11.499  12.367   4.625 -0.0573  0.1615 -0.2614
 1095loPI    C217506  11.644  12.034   4.792  0.0761  0.3365 -0.0221
 1095loPI    C317507  11.652  12.078   4.395 -0.3204 -0.1200 -0.0904
 1095loPI   PO417508  11.365  12.409   4.855  0.3668 -0.1718 -0.0364
 1095loPI   GL117509  11.218  12.446   5.219 -0.1389  0.0187  0.0897
 1095loPI   GL217510  11.293  12.750   5.273 -0.0225  0.2216  0.1833
 1095loPI   C1A17511  11.381  12.337   5.643 -0.1432  0.3145 -0.0810
 1095loPI   C2A17512  11.265  12.211   6.061 -0.1627 -0.0730 -0.2440
 1095loPI   C3A17513  11.049  12.113   6.487 -0.0571 -0.0927  0.0371
 1095loPI   C4A17514  11.054  11.926   6.950 -0.1121 -0.1473 -0.1029
 1095loPI   C5A17515  11.265  11.729   7.299  0.0831  0.1367  0.0451
 1095loPI   C6A17516  11.340  11.476   7.719  0.1675  0.1199  0.1024
 1095loPI   C1B17517  11.262  13.046   5.576 -0.0179  0.2680  0.2154
 1095loPI   C2B17518  11.265  13.444   5.801 -0.2000  0.0319  0.0053
 1095loPI   C3B17519  11.040  13.662   5.971 -0.1449 -0.0246  0.3354
 1095loPI   C4B17520  10.873  14.050   5.914  0.0484  0.2196  0.1813
 1096loPI    C117521   6.016   8.573   4.291 -0.0591  0.1139 -0.2477
 1096loPI    C217522   5.691   8.444   4.096 -0.1035  0.0504 -0.1322
 1096loPI    C317523   6.030   8.511   3.895 -0.2068  0.1826 -0.2643
 1096loPI   PO417524   5.896   8.412   4.561 -0.1612  0.0400  0.1171
 1096loPI   GL117525   5.932   8.361   4.933 -0.1478  0.1512 -0.1421
 1096loPI   GL217526   6.255   8.498   5.002 -0.2520 -0.0995  0.0751
 1096loPI   C1A17527   6.060   7.992   5.140 -0.1690 -0.0912  0.2418
 1096loPI   C2A17528   6.355   7.888   5.475 -0.1245  0.2992 -0.2817
 1096loPI   C3A17529   6.556   8.024   5.850  0.0974 -0.0966 -0.1710
 1096loPI   C4A17530   6.732   8.200   6.173  0.0934  0.4407 -0.0352
 1096loPI   C5A17531   7.099   8.288   6.422  0.1307  0.1634 -0.0890
 1096loPI   C6A17532   7.302   8.408   6.796  0.0127 -0.3139 -0.2449
 1096loPI   C1B17533   6.139   8.569   5.449  0.1682 -0.0967 -0.0294
 1096loPI   C2B17534   6.279   8.463   5.845  0.0822 -0.0015 -0.1975
 1096loPI   C3B17535   6.041   8.497   6.266  0.1473  0.0598  0.0856
 1096loPI   C4B17536   5.728   8.815   6.264  0.1567 -0.1170 -0.1805
 1097loPI    C117537   4.413  16.688   4.515  0.0523 -0.4389 -0.0718
 1097loPI    C217538   4.588  17.045   4.475  0.2484 -0.4611  0.4967
 1097loPI    C317539   4.469  16.843   4.150  0.2528  0.0560  0.1612
 1097loPI   PO417540   4.367  16.589   4.760  0.0393  0.1492  0.1991
 1097loPI   GL117541   4.437  16.347   5.153 -0.0910 -0.2024  0.1604
 1097loPI   GL217542   4.601  16.253   5.383  0.0763  0.1005  0.0143
 1097loPI   C1A17543   4.215  16.537   5.491  0.0298 -0.1749 -0.1231
 1097loPI   C2A17544   4.350  16.732   5.919  0.4250  0.3366  0.1725
 1097loPI   C3A17545   4.123  16.866   6.344  0.0177 -0.4137 -0.0058
 1097loPI   C4A17546   3.715  16.951   6.393 -0.1433 -0.1426  0.1621
 1097loPI   C5A17547   3.210  16.942   6.426 -0.3264  0.4950  0.0590
 1097loPI   C6A17548   2.819  16.657   6.506 -0.0057 -0.0558 -0.0637
 1097loPI   C1B17549   4.629  16.337   5.759 -0.2949 -0.1620 -0.1695
 1097loPI   C2B17550   4.582  16.341   6.187  0.1786 -0.0105 -0.2108
 1097loPI   C3B17551   4.253  16.432   6.406 -0.4989 -0.2061  0.1341
 1097loPI   C4B17552   4.123  16.447   6.882 -0.0238  0.0144 -0.0298
 1098loPI    C117553   8.918  18.494   4.532 -0.0964 -0.1102 -0.1182
 1098loPI    C217554   8.671  18.795   4.623  0.3016  0.1732  0.0510
 1098loPI    C317555   8.733  18.695   4.241 -0.1419  0.0350  0.0096
 1098loPI   PO417556   9.194  18.615   4.705  0.1388  0.1961 -0.2968
 1098loPI   GL117557   9.228  18.502   5.249 -0.0788  0.1943  0.0323
 1098loPI   GL217558   9.374  18.294   5.133 -0.3242 -0.1052  0.1829
 1098loPI   C1A17559   9.203  18.883   5.561 -0.0474  0.1137 -0.2059
 1098loPI   C2A17560   8.886  19.150   5.749 -0.2189 -0.1671  0.1070
 1098loPI   C3A17561   8.976  19.439   5.996 -0.2615  0.0191  0.3516
 1098loPI   C4A17562   8.906  19.909   5.911  0.0695  0.2084 -0.0061
 1098loPI   C5A17563   8.846  20.062   6.267 -0.0947  0.0371  0.2599
 1098loPI   C6A17564   8.766  20.137   6.677 -0.3823  0.1476 -0.0355
 1098loPI   C1B17565   9.723  18.425   5.458  0.0379  0.0043 -0.3879
 1098loPI   C2B17566   9.755  18.687   5.744  0.1078 -0.0008 -0.0458
 1098loPI   C3B17567   9.610  19.010   5.911  0.0389 -0.2998  0.1038
 1098loPI   C4B17568   9.475  19.321   5.572  0.0762  0.2281 -0.2009
 1099loPI    C117569  14.049   4.216   4.228 -0.3087 -0.0131 -0.1571
 1099loPI    C217570  14.046   4.304   3.838  0.0426 -0.0330 -0.1675
 1099loPI    C317571  14.394   4.263   4.031 -0.1279  0.1334  0.1845
 1099loPI   PO417572  13.838   4.089   4.338  0.2307 -0.1539 -0.1504
 1099loPI   GL117573  13.596   3.903   4.720  0.1712 -0.2780  0.0094
 1099loPI   GL217574  13.876   3.786   4.785  0.0673  0.3865  0.1567
 1099loPI   C1A17575  13.465   4.104   5.015  0.0270 -0.2342  0.1118
 1099loPI   C2A17576  13.526   4.260   5.447 -0.4550  0.0707  0.2542
 1099loPI   C3A17577  13.372   4.308   5.836  0.2812 -0.1734  0.3423
 1099loPI   C4A17578  13.191   4.300   6.272  0.4595 -0.1839 -0.0479
 1099loPI   C5A17579  13.183   4.059   6.610  0.3302  0.2054  0.1292
 1099loPI   C6A17580  12.761   3.998   6.847  0.1375  0.0581  0.1827
 1099loPI   C1B17581  13.987   3.990   5.179 -0.2367  0.0907 -0.1755
 1099loPI   C2B17582  13.940   4.036   5.669 -0.0538  0.0954  0.0152
 1099loPI   C3B17583  13.859   3.904   6.143 -0.0024  0.3787 -0.0484
 1099loPI   C4B17584  13.924   3.762   6.568 -0.0118  0.0036 -0.2918
 1100loPI    C117585   3.782   8.757   4.462 -0.2672 -0.1243  0.1394
 1100loPI    C217586   4.112   8.981   4.448 -0.1163 -0.3355  0.2519
 1100loPI    C317587   3.904   8.911   4.114  0.0186 -0.2989  0.1591
 1100loPI   PO417588   3.897   8.554   4.671 -0.2524 -0.0303 -0.3308
 1100loPI   GL117589   3.970   8.539   5.160  0.0839 -0.2936  0.2570
 1100loPI   GL217590   4.248   8.312   5.218  0.1082 -0.3859 -0.0148
 1100loPI   C1A17591   3.795   8.204   5.485  0.0045 -0.0125 -0.2873
 1100loPI   C2A17592   3.760   8.155   5.946  0.0968  0.0585 -0.0595
 1100loPI   C3A17593   3.791   8.027   6.298  0.0435 -0.0168  0.1245
 1100loPI   C4A17594   3.821   7.924   6.747 -0.0951  0.1726 -0.2395
 1100loPI   C5A17595   3.782   7.649   7.053  0.0516  0.1313  0.0309
 1100loPI   C6A17596   3.794   7.401   7.412 -0.1804 -0.2607  0.1995
 1100loPI   C1B17597   4.494   8.366   5.673  0.4608  0.1555 -0.1892
 1100loPI   C2B17598   4.745   8.432   6.092  0.2548  0.1904 -0.0784
 1100loPI   C3B17599   4.813   8.350   6.512 -0.0389 -0.0069 -0.0647
 1100loPI   C4B17600   4.638   8.302   6.980  0.1362  0.0600  0.1632
 1101loPI    C117601  13.456   7.232   4.203 -0.0414  0.0358  0.0897
 1101loPI    C217602  13.447   7.486   3.894 -0.0635 -0.0299  0.0362
 1101loPI    C317603  13.772   7.262   3.959 -0.0123  0.0710  0.1315
 1101loPI   PO417604  13.406   7.420   4.451  0.0682 -0.0224 -0.2852
 1101loPI   GL117605  13.433   7.350   4.884 -0.2229  0.0525  0.0249
 1101loPI   GL217606  13.213   7.336   4.936  0.0985 -0.1022 -0.1300
 1101loPI   C1A17607  13.779   7.419   5.169  0.0136 -0.1373  0.0560
 1101loPI   C2A17608  13.862   7.214   5.418  0.0904  0.2508  0.2372
 1101loPI   C3A17609  13.981   7.099   5.806  0.3576 -0.0096  0.0202
 1101loPI   C4A17610  14.229   6.991   6.247 -0.0621  0.0676 -0.0638
 1101loPI   C5A17611  14.650   6.683   6.334 -0.1144 -0.0366  0.1335
 1101loPI   C6A17612  14.750   6.265   6.338  0.2666  0.1912  0.0945
 1101loPI   C1B17613  13.055   7.228   5.315  0.0096  0.2228 -0.0665
 1101loPI   C2B17614  12.989   7.246   5.719 -0.0995  0.3315 -0.2184
 1101loPI   C3B17615  12.723   7.377   6.121 -0.1285 -0.1172 -0.1482
 1101loPI   C4B17616  12.587   7.139   6.479  0.1730 -0.0343 -0.1550
 1102loPI    C117617  15.362  15.109   3.922  0.0393 -0.0260  0.1893
 1102loPI    C217618  15.742  15.082   3.800  0.0739  0.1050  0.2655
 1102loPI    C317619  15.538  14.751   3.895  0.1348  0.0255  0.1230
 1102loPI   PO417620  15.472  15.325   4.182  0.0972 -0.3734  0.2198
 1102loPI   GL117621  15.455  15.215   4.715 -0.0296  0.1736 -0.1170
 1102loPI   GL217622  15.149  15.334   4.584  0.0952  0.3529 -0.1080
 1102loPI   C1A17623  15.547  15.177   5.105 -0.0317 -0.0442  0.0415
 1102loPI   C2A17624  15.629  15.156   5.566 -0.1389  0.1996  0.0461
 1102loPI   C3A17625  15.611  15.123   6.042 -0.0135 -0.3305  0.1532
 1102loPI   C4A17626  15.542  15.111   6.346 -0.1740  0.1935  0.1228
 1102loPI   C5A17627  15.591  15.099   6.775 -0.3036 -0.0422 -0.2486
 1102loPI   C6A17628  15.637  15.137   7.193  0.2056  0.3389 -0.2540
 1102loPI   C1B17629  15.162  15.563   4.883  0.2302  0.2229  0.2032
 1102loPI   C2B17630  15.273  15.781   5.232  0.3566 -0.0212  0.1745
 1102loPI   C3B17631  15.294  15.904   5.608  0.2233  0.0914 -0.0578
 1102loPI   C4B17632  15.236  15.847   5.887  0.5372 -0.0354  0.0291
 1103loPI    C117633  16.559   3.625   4.261 -0.2342 -0.1729  0.0683
 1103loPI    C217634  16.763   3.455   3.961 -0.0189 -0.2210  0.2388
 1103loPI    C317635  16.770   3.852   4.008  0.0575 -0.2248  0.2601
 1103loPI   PO417636  16.590   3.404   4.486 -0.0244  0.4352 -0.2211
 1103loPI   GL117637  16.553   3.316   4.929 -0.2804 -0.0679 -0.2182
 1103loPI   GL217638  16.457   3.656   5.100 -0.4033 -0.1037 -0.1087
 1103loPI   C1A17639  16.728   3.347   5.364  0.0002  0.0564  0.0361
 1103loPI   C2A17640  16.793   3.283   5.847  0.0312  0.0181  0.4074
 1103loPI   C3A17641  16.837   3.265   6.328 -0.1486 -0.0766  0.0403
 1103loPI   C4A17642  16.851   3.210   6.824 -0.1223  0.2019 -0.0728
 1103loPI   C5A17643  17.088   3.442   7.097 -0.2318  0.2593 -0.0835
 1103loPI   C6A17644  17.515   3.491   7.096 -0.3887  0.0741  0.0252
 1103loPI   C1B17645  16.271   3.693   5.480 -0.1919 -0.1042 -0.2250
 1103loPI   C2B17646  16.064   3.684   5.869 -0.0284 -0.1035  0.0133
 1103loPI   C3B17647  15.899   3.576   6.298 -0.0723 -0.2189  0.0180
 1103loPI   C4B17648  16.049   3.243   6.610 -0.0564 -0.0669 -0.1394
 1104loPI    C117649   3.047  12.948   4.631 -0.2770 -0.1178 -0.1225
 1104loPI    C217650   3.247  13.213   4.409 -0.1303  0.0912  0.2513
 1104loPI    C317651   2.893  13.076   4.285  0.1392 -0.1217 -0.3141
 1104loPI   PO417652   3.078  13.123   4.889  0.0566  0.2938  0.2175
 1104loPI   GL117653   3.269  13.225   5.226 -0.1526 -0.0492  0.1099
 1104loPI   GL217654   3.499  13.383   5.372 -0.1084  0.0416  0.1136
 1104loPI   C1A17655   3.161  12.969   5.596  0.0891  0.1547 -0.2543
 1104loPI   C2A17656   3.238  12.770   5.998  0.0833  0.3122 -0.0102
 1104loPI   C3A17657   3.285  12.436   6.242  0.0897 -0.0184 -0.1695
 1104loPI   C4A17658   3.252  12.050   6.498 -0.0722 -0.0105  0.3791
 1104loPI   C5A17659   3.454  11.815   6.784 -0.1449  0.4172 -0.0383
 1104loPI   C6A17660   3.670  11.831   7.134 -0.0244 -0.1060  0.2842
 1104loPI   C1B17661   3.391  13.308   5.872  0.0671  0.1671  0.0407
 1104loPI   C2B17662   3.351  13.284   6.294 -0.2485  0.1372  0.1133
 1104loPI   C3B17663   3.275  13.055   6.635 -0.1662  0.2284 -0.0955
 1104loPI   C4B17664   3.214  12.649   6.940 -0.0652  0.1996 -0.0060
 1105loPI    C117665   4.241   3.400   4.441 -0.0318  0.0820 -0.0175
 1105loPI    C217666   4.597   3.483   4.279 -0.0382  0.1637  0.0098
 1105loPI    C317667   4.289   3.384   4.044 -0.0256  0.1989 -0.0218
 1105loPI   PO417668   4.285   3.237   4.646 -0.0300 -0.0476 -0.0527
 1105loPI   GL117669   4.507   2.952   4.885  0.5158  0.3649  0.2204
 1105loPI   GL217670   4.211   2.875   5.108 -0.0858  0.0758  0.0515
 1105loPI   C1A17671   4.756   3.098   5.187 -0.0536  0.3355  0.1715
 1105loPI   C2A17672   4.742   3.013   5.707  0.3390  0.0595  0.1031
 1105loPI   C3A17673   4.929   2.915   6.025 -0.1861  0.1633 -0.1560
 1105loPI   C4A17674   4.776   2.912   6.536 -0.0682  0.3281 -0.0587
 1105loPI   C5A17675   4.766   2.810   6.990  0.2036  0.3165 -0.1274
 1105loPI   C6A17676   4.613   2.615   7.331 -0.0440 -0.1229  0.2292
 1105loPI   C1B17677   4.234   3.060   5.565  0.1085  0.0038  0.0613
 1105loPI   C2B17678   4.227   3.323   5.855 -0.3521 -0.0656  0.1780
 1105loPI   C3B17679   4.165   3.703   6.167  0.0225 -0.2247  0.3056
 1105loPI   C4B17680   4.030   3.998   6.406 -0.1418 -0.1739 -0.1794
 1106loPI    C117681   2.809  18.013   4.095 -0.0408 -0.0172 -0.0672
 1106loPI    C217682   2.468  17.804   4.112 -0.0038 -0.0771 -0.0533
 1106loPI    C317683   2.771  17.674   3.886 -0.0185  0.0177 -0.1282
 1106loPI   PO417684   2.873  18.084   4.380  0.1792 -0.0891 -0.2574
 1106loPI   GL117685   2.746  18.414   4.704  0.0195 -0.5377 -0.0368
 1106loPI   GL217686   2.492  18.428   5.021 -0.3000 -0.3117  0.0966
 1106loPI   C1A17687   2.992  18.453   5.085  0.1765  0.0580 -0.2176
 1106loPI   C2A17688   3.107  18.364   5.453 -0.1857  0.0049  0.1207
 1106loPI   C3A17689   3.010  18.220   5.830  0.0733 -0.1676 -0.1994
 1106loPI   C4A17690   2.747  18.100   6.128  0.0961  0.1527  0.2574
 1106loPI   C5A17691   2.689  17.960   6.543  0.0028  0.0372  0.1350
 1106loPI   C6A17692   2.556  17.969   6.920  0.3299  0.2280  0.1243
 1106loPI   C1B17693   2.627  18.194   5.335 -0.0993 -0.0872  0.3459
 1106loPI   C2B17694   2.842  17.830   5.602 -0.2134 -0.2504 -0.3060
 1106loPI   C3B17695   2.874  17.683   5.931  0.2509 -0.1638  0.3453
 1106loPI   C4B17696   3.119  17.833   6.306 -0.0180 -0.0551 -0.1136
 1107loPI    C117697  19.086  13.245   4.635 -0.1831 -0.2611 -0.0798
 1107loPI    C217698  19.392  13.133   4.404  0.0633 -0.0035  0.1145
 1107loPI    C317699  19.306  13.521   4.447 -0.2515 -0.0708  0.1150
 1107loPI   PO417700  19.084  13.147   4.914  0.0380  0.0558 -0.1701
 1107loPI   GL117701  19.156  13.345   5.248 -0.1452 -0.0039  0.1729
 1107loPI   GL217702  18.787  13.189   5.415  0.3152  0.0510 -0.3199
 1107loPI   C1A17703  19.247  13.151   5.617 -0.1413  0.0733 -0.0412
 1107loPI   C2A17704  19.191  13.217   5.981 -0.2149 -0.0105 -0.0470
 1107loPI   C3A17705  19.229  13.039   6.332 -0.0804 -0.1803 -0.2282
 1107loPI   C4A17706  19.360  12.924   6.803  0.1135 -0.1329  0.0752
 1107loPI   C5A17707  19.678  12.743   7.068 -0.0679 -0.0339 -0.0170
 1107loPI   C6A17708  19.798  12.668   7.479  0.3313 -0.0705 -0.0171
 1107loPI   C1B17709  18.637  13.195   5.835 -0.0254 -0.3129 -0.4404
 1107loPI   C2B17710  18.744  13.182   6.242 -0.1869  0.0912  0.0519
 1107loPI   C3B17711  18.749  12.894   6.460  0.0189  0.4009 -0.3328
 1107loPI   C4B17712  19.059  12.595   6.690  0.1533 -0.0649  0.2983
 1108loPI    C117713  13.589   4.804   4.012 -0.0946 -0.0404 -0.0630
 1108loPI    C217714  13.739   5.174   4.046  0.1083 -0.1345  0.0897
 1108loPI    C317715  13.662   5.022   3.684  0.0979  0.0276  0.0231
 1108loPI   PO417716  13.712   4.645   4.132 -0.2559  0.2994  0.0936
 1108loPI   GL117717  13.474   4.469   4.525  0.2136 -0.3265  0.1277
 1108loPI   GL217718  13.193   4.631   4.783 -0.0002 -0.4330 -0.0135
 1108loPI   C1A17719  13.607   4.633   5.036 -0.3634 -0.1383 -0.0001
 1108loPI   C2A17720  13.567   4.753   5.477 -0.1331  0.0032 -0.3036
 1108loPI   C3A17721  13.762   4.649   5.904  0.0424  0.2395 -0.1345
 1108loPI   C4A17722  13.947   4.468   6.229 -0.2159  0.2917 -0.0843
 1108loPI   C5A17723  14.075   4.293   6.659  0.1685 -0.3905  0.2059
 1108loPI   C6A17724  14.209   4.002   7.046  0.2931  0.0177 -0.1358
 1108loPI   C1B17725  13.154   4.466   5.217  0.0849  0.3365 -0.1454
 1108loPI   C2B17726  12.890   4.458   5.656  0.0064 -0.2833  0.0155
 1108loPI   C3B17727  12.507   4.541   5.906  0.1118 -0.1933 -0.3040
 1108loPI   C4B17728  12.291   4.282   6.114 -0.0556  0.0309 -0.0784
 1109loPI    C117729   1.776  19.009   4.457 -0.1667  0.0917 -0.1198
 1109loPI    C217730   1.377  18.991   4.479 -0.1601 -0.0841 -0.1299
 1109loPI    C317731   1.552  19.254   4.234 -0.2679  0.0644 -0.0487
 1109loPI   PO417732   1.827  18.767   4.618  0.3134  0.0962 -0.2282
 1109loPI   GL117733   2.029  18.532   4.976  0.0133  0.2094 -0.0640
 1109loPI   GL217734   1.965  18.914   5.052  0.0248  0.0858 -0.0540
 1109loPI   C1A17735   2.201  18.433   5.456  0.0627  0.2634  0.0360
 1109loPI   C2A17736   2.207  18.091   5.724 -0.1279 -0.1139  0.0116
 1109loPI   C3A17737   2.210  18.061   6.140  0.2779  0.0144  0.0513
 1109loPI   C4A17738   2.172  17.955   6.536  0.0711 -0.6505  0.1322
 1109loPI   C5A17739   2.075  18.239   6.803  0.2459 -0.1407 -0.0309
 1109loPI   C6A17740   2.353  18.450   7.160 -0.1282 -0.3322  0.0007
 1109loPI   C1B17741   2.079  18.933   5.396 -0.3769  0.0442 -0.5607
 1109loPI   C2B17742   2.332  18.848   5.839 -0.0441 -0.0109  0.0468
 1109loPI   C3B17743   2.671  18.969   6.128 -0.1134 -0.1040  0.2374
 1109loPI   C4B17744   3.104  19.149   6.225  0.0355  0.1237 -0.0911
 1110loPI    C117745   4.318   7.858   4.482 -0.1432 -0.1541  0.0642
 1110loPI    C217746   4.450   7.749   4.120 -0.0385 -0.0980  0.0851
 1110loPI    C317747   4.604   8.070   4.301 -0.2871  0.0387  0.0594
 1110loPI   PO417748   4.251   7.591   4.628  0.3248 -0.0886  0.0654
 1110loPI   GL117749   4.226   7.459   5.081  0.0335  0.1629 -0.0878
 1110loPI   GL217750   4.424   7.741   5.082 -0.0643  0.0075 -0.0324
 1110loPI   C1A17751   3.947   7.299   5.407 -0.2487  0.0221 -0.0628
 1110loPI   C2A17752   3.989   7.203   5.830  0.1732  0.1734  0.1654
 1110loPI   C3A17753   4.204   7.044   6.165  0.1626 -0.2645  0.2278
 1110loPI   C4A17754   4.215   6.951   6.639 -0.2714 -0.0650  0.0198
 1110loPI   C5A17755   4.318   6.641   6.943 -0.3341 -0.1180 -0.1079
 1110loPI   C6A17756   4.381   6.513   7.421 -0.2599  0.0846  0.0983
 1110loPI   C1B17757   4.626   7.929   5.438 -0.0511  0.0369  0.0162
 1110loPI   C2B17758   4.636   7.931   5.896  0.0764  0.0634 -0.4187
 1110loPI   C3B17759   4.726   7.921   6.268  0.2096 -0.1924 -0.2527
 1110loPI   C4B17760   4.904   7.893   6.699 -0.1688  0.0266  0.1079
 1111loPI    C117761  11.158  18.314   3.761 -0.0826 -0.1142 -0.0783
 1111loPI    C217762  11.415  18.618   3.725 -0.1804 -0.0172  0.0333
 1111loPI    C317763  11.035  18.662   3.607 -0.1985 -0.0913  0.0640
 1111loPI   PO417764  11.313  18.249   4.073  0.0998 -0.1895 -0.1047
 1111loPI   GL117765  11.049  18.292   4.513  0.2062  0.0827  0.0346
 1111loPI   GL217766  11.338  18.587   4.689 -0.4633  0.0504  0.0564
 1111loPI   C1A17767  10.955  18.409   4.951  0.2509  0.1837  0.1680
 1111loPI   C2A17768  10.886  18.433   5.361 -0.2015  0.4273 -0.1202
 1111loPI   C3A17769  10.812  18.362   5.761 -0.1315 -0.2376 -0.2097
 1111loPI   C4A17770  10.650  18.504   6.101  0.1678 -0.1479  0.0737
 1111loPI   C5A17771  10.533  18.513   6.491 -0.4759  0.3437 -0.0334
 1111loPI   C6A17772  10.114  18.379   6.697 -0.1069 -0.0803  0.3175
 1111loPI   C1B17773  11.185  18.833   5.027  0.2772  0.2613  0.0287
 1111loPI   C2B17774  11.174  18.861   5.444 -0.1470  0.1840 -0.2439
 1111loPI   C3B17775  11.068  18.743   5.866  0.0930 -0.0321  0.0848
 1111loPI   C4B17776  11.058  18.750   6.315  0.0543 -0.1819 -0.3671
 1112loPI    C117777  19.062   3.875   4.652  0.1261  0.0448  0.0902
 1112loPI    C217778  19.298   3.741   4.946 -0.0340 -0.3217  0.0575
 1112loPI    C317779  19.389   3.663   4.565  0.1166  0.0630  0.0100
 1112loPI   PO417780  18.784   3.699   4.736 -0.0688  0.0417 -0.1486
 1112loPI   GL117781  18.698   3.282   4.991  0.1570 -0.2521 -0.1311
 1112loPI   GL217782  19.052   3.264   5.057  0.0680 -0.1093 -0.0389
 1112loPI   C1A17783  18.553   3.538   5.434 -0.1701 -0.1980 -0.2325
 1112loPI   C2A17784  18.188   3.714   5.639 -0.5035 -0.1519 -0.0088
 1112loPI   C3A17785  18.262   3.900   6.002 -0.0096 -0.2182 -0.0553
 1112loPI   C4A17786  17.880   4.100   6.287 -0.1355 -0.0722 -0.2497
 1112loPI   C5A17787  17.702   4.236   6.686 -0.1979 -0.0068  0.3227
 1112loPI   C6A17788  17.435   4.289   7.144 -0.1871  0.2259  0.0659
 1112loPI   C1B17789  18.989   3.302   5.499 -0.0279 -0.0981  0.0610
 1112loPI   C2B17790  18.815   3.568   5.905  0.0541 -0.1833 -0.2925
 1112loPI   C3B17791  18.718   3.708   6.289 -0.1009 -0.0188 -0.0136
 1112loPI   C4B17792  18.765   4.029   6.550  0.0266 -0.0113  0.0652
 1113loPI    C117793  15.230   4.098   4.069 -0.1083  0.2054  0.0724
 1113loPI    C217794  15.307   4.472   4.188 -0.1941  0.2026  0.1374
 1113loPI    C317795  15.477   4.329   3.855 -0.1539  0.2962  0.1175
 1113loPI   PO417796  15.236   3.975   4.363 -0.1018 -0.0955  0.1304
 1113loPI   GL117797  15.393   4.165   4.751  0.1265 -0.0356 -0.3051
 1113loPI   GL217798  15.550   4.442   4.719 -0.0542  0.1663  0.1681
 1113loPI   C1A17799  15.349   3.981   5.217  0.1535  0.0077  0.0423
 1113loPI   C2A17800  15.160   3.817   5.662  0.4804 -0.0397 -0.1188
 1113loPI   C3A17801  15.158   3.735   6.143 -0.1331  0.0800  0.2773
 1113loPI   C4A17802  15.260   3.737   6.577 -0.0267  0.0009 -0.2295
 1113loPI   C5A17803  15.576   3.834   6.860  0.1819 -0.1140 -0.1028
 1113loPI   C6A17804  15.947   3.718   6.806  0.3905  0.4372  0.1028
 1113loPI   C1B17805  15.483   4.530   5.157 -0.0219 -0.2367 -0.0256
 1113loPI   C2B17806  15.557   4.591   5.569  0.0722 -0.4918 -0.0916
 1113loPI   C3B17807  15.550   4.690   6.020  0.0204  0.0910 -0.0238
 1113loPI   C4B17808  15.563   4.703   6.516  0.1455  0.1508  0.1308
 1114loPI    C117809  19.321   1.563   3.691 -0.1885  0.2416 -0.3196
 1114loPI    C217810  19.685   1.697   3.786 -0.0807 -0.3614  0.1830
 1114loPI    C317811  19.634   1.469   3.462 -0.0773 -0.0087 -0.0711
 1114loPI   PO417812  19.263   1.494   3.976 -0.3534 -0.2199  0.1219
 1114loPI   GL117813  19.358   1.552   4.409  0.2393  0.2483 -0.1412
 1114loPI   GL217814  19.492   1.867   4.228  0.1136 -0.1858  0.3984
 1114loPI   C1A17815  19.356   1.728   4.930 -0.1875 -0.0966 -0.2267
 1114loPI   C2A17816  19.387   2.006   5.312 -0.0231 -0.5017 -0.1028
 1114loPI   C3A17817  19.313   2.086   5.665 -0.3899  0.0803  0.0446
 1114loPI   C4A17818  19.261   2.155   6.090 -0.0309  0.1193 -0.2642
 1114loPI   C5A17819  19.247   2.070   6.576  0.1014 -0.3404  0.0510
 1114loPI   C6A17820  19.192   1.960   6.938  0.0668 -0.1345  0.3188
 1114loPI   C1B17821  19.740   1.856   4.419 -0.0890 -0.0971 -0.0992
 1114loPI   C2B17822  19.928   1.712   4.892  0.0654 -0.3185  0.3128
 1114loPI   C3B17823  20.285   1.801   5.165 -0.0838 -0.0376 -0.1015
 1114loPI   C4B17824  20.588   1.957   4.976  0.0118 -0.0631 -0.1536
 1115loPI    C117825   8.693   0.290   4.341 -0.1807 -0.0701 -0.2282
 1115loPI    C217826   9.089   0.234   4.339 -0.1724 -0.0499  0.1383
 1115loPI    C317827   8.889   0.261   3.993  0.1564  0.0271 -0.0507
 1115loPI   PO417828   8.747   0.521   4.511 -0.0544  0.0647  0.0691
 1115loPI   GL117829   8.887   0.777   4.897  0.1375  0.2018  0.1292
 1115loPI   GL217830   8.654   0.543   5.058 -0.1554 -0.0846 -0.1457
 1115loPI   C1A17831   9.129   1.067   5.128 -0.2578 -0.2130 -0.3481
 1115loPI   C2A17832   9.204   1.155   5.577 -0.0422 -0.2010  0.1383
 1115loPI   C3A17833   9.302   1.262   6.040  0.4860  0.0192  0.1358
 1115loPI   C4A17834   9.339   1.451   6.429  0.0203 -0.0051 -0.1385
 1115loPI   C5A17835   9.618   1.735   6.730 -0.1313  0.1964 -0.3126
 1115loPI   C6A17836   9.854   1.824   7.156  0.1338 -0.1596  0.0486
 1115loPI   C1B17837   8.782   0.777   5.369 -0.1246 -0.2250 -0.2583
 1115loPI   C2B17838   8.731   0.580   5.795 -0.0683 -0.2406 -0.2011
 1115loPI   C3B17839   8.582   0.670   6.148  0.2877  0.0908 -0.0298
 1115loPI   C4B17840   8.475   0.902   6.667 -0.1846  0.1339 -0.1831
 1116loPI    C117841  17.824  12.471   4.611  0.0908 -0.3485 -0.2208
 1116loPI    C217842  18.070  12.786   4.591 -0.2250 -0.0681  0.1660
 1116loPI    C317843  17.965  12.593   4.257  0.2135  0.0420 -0.0427
 1116loPI   PO417844  17.632  12.523   4.824  0.0116 -0.1292  0.2669
 1116loPI   GL117845  17.507  12.837   5.100  0.0361  0.1393 -0.2062
 1116loPI   GL217846  17.333  12.554   5.163  0.0135  0.0606 -0.2012
 1116loPI   C1A17847  17.552  12.840   5.522 -0.1843  0.2390  0.4277
 1116loPI   C2A17848  17.466  12.862   5.969 -0.1457  0.2181 -0.2071
 1116loPI   C3A17849  17.398  12.886   6.387  0.0886  0.0218 -0.0014
 1116loPI   C4A17850  17.550  12.980   6.801  0.1004  0.2326 -0.4211
 1116loPI   C5A17851  17.498  13.269   7.026  0.2760 -0.0313 -0.1003
 1116loPI   C6A17852  17.661  13.571   7.315 -0.0631 -0.2840  0.1901
 1116loPI   C1B17853  17.093  12.613   5.517  0.0536  0.1498 -0.1060
 1116loPI   C2B17854  17.027  12.631   5.976  0.4424 -0.1240  0.0516
 1116loPI   C3B17855  16.964  12.608   6.421  0.2067 -0.2772  0.2669
 1116loPI   C4B17856  16.962  12.759   6.870  0.1424 -0.3673  0.2543
 1117loPI    C117857   5.663  15.102   4.561  0.0663  0.2653  0.0330
 1117loPI    C217858   5.916  14.962   4.286 -0.1399  0.2415 -0.1474
 1117loPI    C317859   5.522  14.958   4.215 -0.1794  0.4536  0.0514
 1117loPI   PO417860   5.681  14.888   4.810 -0.0785  0.1068  0.3451
 1117loPI   GL117861   5.855  14.945   5.108 -0.1129  0.0364  0.0110
 1117loPI   GL217862   5.775  14.708   5.280  0.2400 -0.3532 -0.0082
 1117loPI   C1A17863   5.860  15.077   5.554  0.0895 -0.1900 -0.1703
 1117loPI   C2A17864   5.975  15.360   5.986  0.3650  0.2005 -0.0985
 1117loPI   C3A17865   6.125  15.779   6.064 -0.0707  0.0588  0.2352
 1117loPI   C4A17866   6.401  15.982   6.373 -0.1852  0.2028 -0.0537
 1117loPI   C5A17867   6.633  16.098   6.797  0.0602  0.1895 -0.1811
 1117loPI   C6A17868   7.083  16.181   6.739  0.2205 -0.3165 -0.0081
 1117loPI   C1B17869   5.972  14.611   5.708 -0.3306 -0.2267 -0.0242
 1117loPI   C2B17870   6.178  14.828   5.977  0.1865  0.2991 -0.0215
 1117loPI   C3B17871   6.117  15.026   6.381  0.2508  0.0884 -0.3154
 1117loPI   C4B17872   5.951  15.389   6.559  0.0631 -0.0270 -0.1144
 1118loPI    C117873   1.262  12.283   4.830 -0.1003  0.0309  0.1044
 1118loPI    C217874   1.470  12.002   4.637 -0.0045  0.1136  0.0864
 1118loPI    C317875   1.578  12.386   4.608 -0.3078  0.1872 -0.1256
 1118loPI   PO417876   1.302  12.248   5.049  0.0227 -0.0433 -0.1650
 1118loPI   GL117877   1.157  12.156   5.415 -0.1366 -0.0350 -0.0467
 1118loPI   GL217878   0.935  12.013   5.513 -0.1482 -0.0982 -0.3630
 1118loPI   C1A17879   1.449  12.223   5.842  0.0951 -0.0622 -0.0720
 1118loPI   C2A17880   1.445  12.024   6.263 -0.3261  0.1734  0.0544
 1118loPI   C3A17881   1.367  11.669   6.517 -0.0389  0.3117 -0.1092
 1118loPI   C4A17882   1.292  11.274   6.760  0.3179  0.0266  0.3537
 1118loPI   C5A17883   0.975  11.251   7.091 -0.2585 -0.0106 -0.0901
 1118loPI   C6A17884   0.743  11.359   7.419  0.0353  0.1672 -0.2190
 1118loPI   C1B17885   0.885  12.038   6.005 -0.0100 -0.3013  0.0382
 1118loPI   C2B17886   0.920  11.982   6.470  0.0935  0.2178  0.2539
 1118loPI   C3B17887   1.158  12.098   6.769 -0.1634  0.2948  0.1066
 1118loPI   C4B17888   1.151  12.516   7.005 -0.1853 -0.0018  0.1418
 1119loPI    C117889   2.360  14.372   4.481 -0.1354  0.0675  0.2439
 1119loPI    C217890   2.549  14.585   4.200  0.0486 -0.1027  0.2366
 1119loPI    C317891   2.177  14.683   4.308 -0.0436 -0.0655 -0.1023
 1119loPI   PO417892   2.394  14.282   4.739  0.3210  0.1316  0.0290
 1119loPI   GL117893   2.503  14.330   5.096 -0.0608  0.2278  0.2479
 1119loPI   GL217894   2.743  14.570   5.220  0.1139 -0.2707 -0.1673
 1119loPI   C1A17895   2.492  14.251   5.627  0.3076  0.1809 -0.0132
 1119loPI   C2A17896   2.563  14.561   6.055 -0.0482  0.0664  0.5320
 1119loPI   C3A17897   2.542  14.852   6.399  0.1878 -0.1171  0.0552
 1119loPI   C4A17898   2.998  15.045   6.548  0.1795 -0.0214  0.0603
 1119loPI   C5A17899   3.355  15.081   6.683  0.1807 -0.4018 -0.4332
 1119loPI   C6A17900   3.844  15.040   6.666  0.3462 -0.1045 -0.2306
 1119loPI   C1B17901   2.502  14.888   5.498 -0.3147 -0.1289 -0.1496
 1119loPI   C2B17902   2.601  15.080   5.906  0.1941  0.0158  0.0427
 1119loPI   C3B17903   2.601  15.309   6.318  0.0696  0.3070  0.1352
 1119loPI   C4B17904   2.687  15.775   6.405  0.1228 -0.1834  0.0687
 1120loPI    C117905  12.216   2.459   3.883 -0.0667 -0.2880 -0.1918
 1120loPI    C217906  11.896   2.697   3.848  0.1029 -0.0487 -0.1347
 1120loPI    C317907  12.029   2.493   3.531  0.0937  0.1122 -0.2437
 1120loPI   PO417908  12.223   2.412   4.086 -0.0902  0.0398 -0.0530
 1120loPI   GL117909  12.188   2.262   4.526  0.4303 -0.0845  0.1835
 1120loPI   GL217910  12.394   2.546   4.542  0.3157  0.3989  0.2411
 1120loPI   C1A17911  12.083   2.434   4.950  0.2607 -0.1329  0.3676
 1120loPI   C2A17912  12.022   2.493   5.291 -0.1368 -0.1392 -0.0790
 1120loPI   C3A17913  12.186   2.618   5.694  0.0421  0.1846  0.1684
 1120loPI   C4A17914  12.086   2.374   6.095  0.1683  0.3353  0.4128
 1120loPI   C5A17915  12.059   2.215   6.403  0.1100  0.2274 -0.2290
 1120loPI   C6A17916  12.014   2.327   6.778 -0.2534 -0.2893  0.3693
 1120loPI   C1B17917  12.505   2.172   4.925 -0.0274 -0.2204 -0.1537
 1120loPI   C2B17918  12.383   1.829   5.163 -0.2918 -0.0785 -0.2171
 1120loPI   C3B17919  12.337   1.554   5.389  0.1611 -0.3113  0.0503
 1120loPI   C4B17920  12.535   1.115   5.513 -0.1701  0.0015  0.1308
 1121loPI    C117921   5.921  14.081   4.527 -0.0960  0.0857 -0.2872
 1121loPI    C217922   5.970  13.709   4.390 -0.0613  0.0112 -0.0764
 1121loPI    C317923   6.277  13.965   4.386 -0.0197 -0.0373  0.0002
 1121loPI   PO417924   5.813  14.097   4.793 -0.2951  0.3416  0.3229
 1121loPI   GL117925   5.701  13.875   5.133  0.0947 -0.0720 -0.2928
 1121loPI   GL217926   5.853  14.143   5.332  0.1676  0.0028 -0.0067
 1121loPI   C1A17927   5.365  13.812   5.470 -0.0639 -0.3296  0.0778
 1121loPI   C2A17928   5.371  13.806   5.810  0.3458  0.1217  0.0232
 1121loPI   C3A17929   5.228  13.890   6.308  0.2260 -0.0436 -0.2631
 1121loPI   C4A17930   5.309  13.909   6.784 -0.0317  0.3377  0.0194
 1121loPI   C5A17931   5.004  14.212   7.108  0.0868  0.0072  0.1149
 1121loPI   C6A17932   4.714  14.384   7.410 -0.0200  0.0324 -0.0466
 1121loPI   C1B17933   5.804  14.126   5.719  0.2265 -0.0003 -0.0505
 1121loPI   C2B17934   5.765  13.822   6.107  0.0319  0.0303 -0.1898
 1121loPI   C3B17935   5.951  13.794   6.609  0.2085  0.1333 -0.1956
 1121loPI   C4B17936   5.951  13.857   7.047  0.2706  0.1770 -0.2384
 1122loPI    C117937  15.526  13.720   4.290 -0.2378  0.0710  0.2143
 1122loPI    C217938  15.247  13.487   4.122 -0.1974  0.0275  0.2071
 1122loPI    C317939  15.336  13.841   3.960 -0.2301  0.0300  0.1946
 1122loPI   PO417940  15.502  13.600   4.529  0.0707 -0.2166  0.0311
 1122loPI   GL117941  15.451  13.601   4.959 -0.0099 -0.2877  0.1814
 1122loPI   GL217942  15.367  13.186   5.076  0.2488  0.0431  0.0996
 1122loPI   C1A17943  15.760  13.577   5.339  0.0666  0.1470  0.2943
 1122loPI   C2A17944  16.010  13.854   5.688  0.0325  0.0452  0.2477
 1122loPI   C3A17945  15.991  13.933   6.189 -0.3586  0.0412 -0.0743
 1122loPI   C4A17946  15.888  14.124   6.615  0.0417  0.1412 -0.3184
 1122loPI   C5A17947  15.463  14.121   6.610  0.1223  0.2443 -0.3013
 1122loPI   C6A17948  15.198  14.212   7.001 -0.3528 -0.0338 -0.2241
 1122loPI   C1B17949  15.376  13.272   5.430  0.0163  0.4036  0.1368
 1122loPI   C2B17950  15.583  13.330   5.768  0.0306  0.1493 -0.4936
 1122loPI   C3B17951  15.813  13.411   6.109 -0.0469 -0.0315  0.2019
 1122loPI   C4B17952  16.324  13.534   6.069  0.1772  0.1587 -0.2979
 1123loPI    C117953  18.410  11.003   4.416 -0.1997  0.2421  0.0636
 1123loPI    C217954  18.165  10.687   4.401 -0.0102  0.0853  0.2269
 1123loPI    C317955  18.288  10.861   4.062 -0.0759 -0.0464  0.1345
 1123loPI   PO417956  18.313  11.132   4.598 -0.1019 -0.0209 -0.0339
 1123loPI   GL117957  18.186  10.967   5.125 -0.0197 -0.2229  0.1011
 1123loPI   GL217958  17.993  11.289   5.076 -0.0936  0.0994 -0.0151
 1123loPI   C1A17959  18.288  10.865   5.607  0.2391 -0.0592  0.1257
 1123loPI   C2A17960  18.180  10.964   5.971  0.1277 -0.2959  0.4052
 1123loPI   C3A17961  18.135  10.848   6.484 -0.1610  0.1992  0.0066
 1123loPI   C4A17962  17.976  10.844   6.812  0.0866  0.0950 -0.2153
 1123loPI   C5A17963  17.968  10.881   7.259 -0.1534 -0.1927 -0.3450
 1123loPI   C6A17964  18.066  10.900   7.763  0.3243  0.0011  0.0491
 1123loPI   C1B17965  17.875  11.312   5.476  0.1347 -0.2842  0.0537
 1123loPI   C2B17966  17.970  11.445   5.935 -0.4428 -0.2869 -0.3049
 1123loPI   C3B17967  18.202  11.707   6.275 -0.0165  0.3784 -0.0637
 1123loPI   C4B17968  18.373  11.554   6.800 -0.0632 -0.0593 -0.0813
 1124loPI    C117969  18.277  18.737   4.211  0.2454  0.1237 -0.0696
 1124loPI    C217970  18.172  19.099   4.078 -0.1591  0.0942  0.1528
 1124loPI    C317971  17.957  18.778   3.975 -0.0049 -0.0369  0.2347
 1124loPI   PO417972  18.321  18.708   4.418  0.0006 -0.0128  0.2040
 1124loPI   GL117973  18.233  18.941   4.701 -0.0757 -0.2355  0.0406
 1124loPI   GL217974  18.366  19.230   4.601  0.0949  0.1585  0.3308
 1124loPI   C1A17975  18.067  18.915   5.149  0.0906 -0.0965 -0.0354
 1124loPI   C2A17976  18.053  18.845   5.615 -0.3579 -0.0298  0.2825
 1124loPI   C3A17977  17.861  19.015   6.070 -0.3977  0.2023 -0.2410
 1124loPI   C4A17978  17.969  19.409   6.359 -0.0453 -0.0371 -0.0060
 1124loPI   C5A17979  18.339  19.580   6.325  0.1216  0.0252 -0.2354
 1124loPI   C6A17980  18.652  19.358   6.635  0.2855  0.0442 -0.1706
 1124loPI   C1B17981  18.409  19.315   5.060 -0.1157 -0.0186  0.1137
 1124loPI   C2B17982  18.433  19.285   5.473  0.0263 -0.3936 -0.1583
 1124loPI   C3B17983  18.558  19.595   5.872  0.0799  0.0825 -0.1140
 1124loPI   C4B17984  18.647  19.996   6.056 -0.3652 -0.2215 -0.1745
 1125loPI    C117985  17.381  14.237   4.376  0.1436  0.2935  0.0672
 1125loPI    C217986  17.690  14.142   4.141  0.1937  0.2861  0.1356
 1125loPI    C317987  17.371  14.327   3.987  0.1054  0.0302  0.0053
 1125loPI   PO417988  17.455  14.078   4.700 -0.0666  0.1507 -0.1016
 1125loPI   GL117989  17.658  14.139   5.077 -0.2395  0.2976 -0.1606
 1125loPI   GL217990  18.016  14.185   5.065 -0.0439 -0.1148 -0.3591
 1125loPI   C1A17991  17.659  14.119   5.516  0.3050  0.0544 -0.0897
 1125loPI   C2A17992  17.575  14.346   5.769 -0.1164  0.0823  0.0045
 1125loPI   C3A17993  17.508  14.283   6.221 -0.0436  0.3744  0.0270
 1125loPI   C4A17994  17.642  14.547   6.660 -0.0723 -0.0422  0.0508
 1125loPI   C5A17995  17.649  14.878   6.796 -0.2917  0.2441  0.0605
 1125loPI   C6A17996  17.779  15.098   6.480  0.1840  0.0411  0.2264
 1125loPI   C1B17997  18.160  14.000   5.517  0.0541 -0.1205  0.0891
 1125loPI   C2B17998  18.492  13.973   5.848  0.0915  0.1792 -0.1041
 1125loPI   C3B17999  18.479  14.080   6.217 -0.1460 -0.0888 -0.4116
 1125loPI   C4B18000  18.463  14.362   6.514 -0.1903  0.0686  0.2705
 1126loPI    C118001  13.898  16.079   3.814  0.1142 -0.2334 -0.1479
 1126loPI    C218002  14.240  16.266   3.726  0.0022  0.0085 -0.0772
 1126loPI    C318003  13.912  16.337   3.509 -0.0346 -0.1275 -0.0666
 1126loPI   PO418004  13.973  16.132   4.126  0.2276  0.0770  0.1612
 1126loPI   GL118005  13.889  16.009   4.661  0.0036 -0.2076 -0.0232
 1126loPI   GL218006  14.201  16.213   4.691 -0.1278  0.0145  0.1948
 1126loPI   C1A18007  13.862  16.108   5.085 -0.0429 -0.0563  0.3929
 1126loPI   C2A18008  13.941  16.214   5.489  0.0432 -0.2139 -0.6554
 1126loPI   C3A18009  13.909  16.087   5.930 -0.1396 -0.0168  0.0420
 1126loPI   C4A18010  13.867  16.055   6.435  0.1733  0.2404 -0.4901
 1126loPI   C5A18011  13.920  16.295   6.838  0.2510 -0.1024  0.5851
 1126loPI   C6A18012  13.743  16.644   7.110  0.1489 -0.0480  0.2404
 1126loPI   C1B18013  14.565  16.327   5.054 -0.1930 -0.0087 -0.2384
 1126loPI   C2B18014  14.448  16.352   5.474 -0.0947  0.0382 -0.0723
 1126loPI   C3B18015  14.438  16.353   5.950 -0.1030 -0.2630 -0.1597
 1126loPI   C4B18016  14.289  16.293   6.355 -0.2835 -0.2904 -0.3987
 1127loPI    C118017  16.056   6.797   4.094 -0.0965 -0.0699  0.1662
 1127loPI    C218018  15.909   6.963   3.761  0.2795 -0.0555  0.0020
 1127loPI    C318019  15.915   6.565   3.801  0.0259 -0.0519  0.0922
 1127loPI   PO418020  16.023   6.835   4.455 -0.0325  0.3790 -0.0452
 1127loPI   GL118021  15.980   7.016   4.775  0.0438  0.1565 -0.1138
 1127loPI   GL218022  15.739   7.158   4.939  0.1630  0.1918  0.1452
 1127loPI   C1A18023  16.091   6.783   5.140  0.0436  0.1071 -0.1193
 1127loPI   C2A18024  15.980   6.837   5.587  0.0178  0.0160  0.0398
 1127loPI   C3A18025  15.971   6.825   6.109  0.0258 -0.3039 -0.2971
 1127loPI   C4A18026  15.642   6.869   6.429 -0.1875  0.2185  0.0259
 1127loPI   C5A18027  15.447   6.926   6.891 -0.1017 -0.3309  0.3327
 1127loPI   C6A18028  15.280   6.675   7.214 -0.1527  0.0210  0.1152
 1127loPI   C1B18029  15.610   7.003   5.283 -0.2084  0.1174 -0.2355
 1127loPI   C2B18030  15.538   6.598   5.440 -0.2465  0.0056  0.1517
 1127loPI   C3B18031  15.296   6.325   5.614 -0.0469  0.0099  0.1809
 1127loPI   C4B18032  15.061   6.126   5.921 -0.0092  0.0428 -0.1542
 1128loPI    C118033   9.260  19.428   4.672  0.0961 -0.4756 -0.0147
 1128loPI    C218034   8.962  19.489   4.413  0.0452  0.0450  0.1550
 1128loPI    C318035   8.894  19.290   4.753 -0.0733  0.0350  0.1258
 1128loPI   PO418036   9.396  19.763   4.719 -0.4742 -0.3138  0.0369
 1128loPI   GL118037   9.388  20.017   4.996  0.0318 -0.0072  0.1723
 1128loPI   GL218038   9.219  20.251   5.172 -0.1767 -0.1949 -0.3668
 1128loPI   C1A18039   9.329  19.748   5.358  0.0873  0.1814  0.0085
 1128loPI   C2A18040   9.358  19.703   5.841  0.1722 -0.1353 -0.2817
 1128loPI   C3A18041   9.370  19.686   6.210 -0.0001 -0.0258  0.3792
 1128loPI   C4A18042   9.283  20.043   6.534  0.0360 -0.0176  0.0884
 1128loPI   C5A18043   9.322  20.350   6.803 -0.3079 -0.1534  0.0486
 1128loPI   C6A18044   9.322  20.833   6.835  0.1881  0.3525 -0.1967
 1128loPI   C1B18045   9.228  20.214   5.627  0.0992 -0.1016  0.2382
 1128loPI   C2B18046   9.234  20.296   5.985  0.0784 -0.0072  0.0669
 1128loPI   C3B18047   9.046  20.613   6.246 -0.4464  0.0424  0.2262
 1128loPI   C4B18048   8.912  20.932   6.595  0.0525  0.3163  0.2167
 1129loPI    C118049  19.274   5.367   4.543  0.1443 -0.0002 -0.2011
 1129loPI    C218050  19.166   4.986   4.486  0.0664 -0.0145  0.0305
 1129loPI    C318051  19.367   5.182   4.201  0.0073 -0.1929 -0.1360
 1129loPI   PO418052  19.071   5.434   4.786  0.4328  0.0372 -0.2631
 1129loPI   GL118053  19.003   5.354   5.171  0.0904  0.5347 -0.6735
 1129loPI   GL218054  18.975   5.106   5.340  0.3074 -0.1552 -0.0885
 1129loPI   C1A18055  19.187   5.525   5.504 -0.4982 -0.0024 -0.0392
 1129loPI   C2A18056  19.104   5.628   5.903  0.1064  0.1715  0.1682
 1129loPI   C3A18057  19.042   5.539   6.425  0.0530  0.2896  0.0427
 1129loPI   C4A18058  19.121   5.607   6.801  0.1482  0.0623 -0.2492
 1129loPI   C5A18059  19.303   5.499   7.297 -0.0434 -0.1331 -0.2315
 1129loPI   C6A18060  19.411   5.048   7.532 -0.0910 -0.1474  0.2667
 1129loPI   C1B18061  19.115   5.129   5.801 -0.0537  0.1723  0.0900
 1129loPI   C2B18062  18.997   4.956   6.217 -0.0478 -0.0827  0.1143
 1129loPI   C3B18063  19.073   5.059   6.675  0.1185  0.1370  0.0869
 1129loPI   C4B18064  19.322   4.888   7.040 -0.3357 -0.2435 -0.2363
 1130loPI    C118065  17.614  10.562   4.418  0.0482 -0.0749  0.0734
 1130loPI    C218066  17.474  10.507   4.048 -0.0912  0.1989  0.0835
 1130loPI    C318067  17.493  10.876   4.202  0.1505  0.1080  0.2775
 1130loPI   PO418068  17.598  10.448   4.647  0.0480  0.2503  0.1197
 1130loPI   GL118069  17.498  10.663   5.016 -0.0519 -0.0899  0.3156
 1130loPI   GL218070  17.697  10.784   5.243 -0.2104  0.1911  0.0435
 1130loPI   C1A18071  17.226  10.501   5.355 -0.4520 -0.1242  0.1892
 1130loPI   C2A18072  17.076  10.424   5.687 -0.0208 -0.0802  0.1186
 1130loPI   C3A18073  16.962  10.300   6.127  0.0212  0.0624 -0.0632
 1130loPI   C4A18074  16.887  10.029   6.473 -0.0593  0.0102 -0.2504
 1130loPI   C5A18075  16.796   9.722   6.841 -0.1086  0.0198  0.3184
 1130loPI   C6A18076  16.968   9.449   7.023 -0.0868 -0.2078 -0.0062
 1130loPI   C1B18077  17.802  10.830   5.589 -0.0485  0.0122 -0.2607
 1130loPI   C2B18078  18.022  10.465   5.872  0.1549 -0.3913 -0.2017
 1130loPI   C3B18079  18.067  10.083   5.777 -0.0120  0.3022  0.1108
 1130loPI   C4B18080  17.887   9.754   5.909  0.0625  0.1292  0.1547
 1131loPI    C118081  10.892   9.468   5.004  0.0353  0.0734  0.0207
 1131loPI    C218082  10.657   9.146   5.040 -0.0413  0.1527  0.2457
 1131loPI    C318083  10.805   9.246   4.682 -0.1295 -0.0526  0.1499
 1131loPI   PO418084  10.836   9.627   5.169  0.2526 -0.0386 -0.3458
 1131loPI   GL118085  10.558   9.656   5.458 -0.0257  0.0242 -0.1376
 1131loPI   GL218086  10.653   9.960   5.469 -0.0409 -0.0039  0.3681
 1131loPI   C1A18087  10.794   9.476   5.794  0.1425  0.1184  0.1008
 1131loPI   C2A18088  11.015   9.304   6.177  0.0895 -0.1795 -0.0946
 1131loPI   C3A18089  11.122   9.178   6.506  0.0213 -0.3282 -0.0991
 1131loPI   C4A18090  11.307   9.164   6.875 -0.0851 -0.2028  0.1578
 1131loPI   C5A18091  11.496   9.368   7.215 -0.2623  0.5075 -0.2368
 1131loPI   C6A18092  11.488   9.675   7.605  0.0869  0.0849 -0.2891
 1131loPI   C1B18093  10.640   9.948   5.876 -0.0073 -0.0711 -0.1711
 1131loPI   C2B18094  10.898  10.097   6.211  0.1017  0.1462 -0.0427
 1131loPI   C3B18095  11.066  10.213   6.567 -0.0693  0.2421 -0.1235
 1131loPI   C4B18096  11.382  10.321   6.790 -0.2930 -0.0029 -0.0981
 1132loPI    C118097   8.749   8.162   4.587 -0.1143  0.1179 -0.1455
 1132loPI    C218098   9.078   7.998   4.428 -0.0109  0.0625  0.1214
 1132loPI    C318099   8.873   8.273   4.223  0.2945  0.2178  0.0189
 1132loPI   PO418100   8.844   8.344   4.827 -0.0127 -0.1807  0.1564
 1132loPI   GL118101   8.856   8.239   5.331 -0.2350 -0.0558  0.0899
 1132loPI   GL218102   8.511   8.439   5.384 -0.0693  0.1299  0.1271
 1132loPI   C1A18103   8.903   8.142   5.771 -0.0267  0.2337  0.1057
 1132loPI   C2A18104   8.951   7.968   6.006  0.0043  0.1877 -0.0106
 1132loPI   C3A18105   8.848   7.528   6.179 -0.4963  0.0940 -0.1780
 1132loPI   C4A18106   8.829   7.345   6.525  0.0704  0.2839  0.1871
 1132loPI   C5A18107   8.943   6.966   6.703 -0.1405  0.1592 -0.0981
 1132loPI   C6A18108   8.681   6.687   6.713  0.1908 -0.0637 -0.0823
 1132loPI   C1B18109   8.444   8.556   5.815  0.0269  0.1878  0.3615
 1132loPI   C2B18110   8.740   8.556   6.077 -0.1906 -0.1743  0.0814
 1132loPI   C3B18111   8.883   8.289   6.376 -0.0143  0.0002 -0.2380
 1132loPI   C4B18112   9.018   8.308   6.808  0.2983  0.1367  0.3093
 1133loPI    C118113   5.688  18.038   4.910 -0.1163  0.3629 -0.2001
 1133loPI    C218114   5.456  17.956   4.595 -0.1743  0.2451 -0.1277
 1133loPI    C318115   5.853  17.979   4.550 -0.1240 -0.3862 -0.0972
 1133loPI   PO418116   5.671  17.870   5.088  0.1925  0.0601  0.0651
 1133loPI   GL118117   5.413  17.777   5.451  0.0795  0.0124 -0.1435
 1133loPI   GL218118   5.681  17.917   5.620  0.0106  0.2102  0.1246
 1133loPI   C1A18119   5.233  17.912   5.846  0.1317 -0.1308 -0.0504
 1133loPI   C2A18120   5.156  17.748   6.278  0.1262  0.2151  0.1825
 1133loPI   C3A18121   5.070  17.653   6.748  0.0529  0.1696  0.0092
 1133loPI   C4A18122   4.906  17.959   7.090  0.4029  0.2174  0.0835
 1133loPI   C5A18123   4.625  18.224   7.271  0.3166  0.0253  0.0586
 1133loPI   C6A18124   4.511  18.632   7.306  0.0880  0.0756 -0.2417
 1133loPI   C1B18125   5.669  17.543   5.958  0.1204  0.1833  0.3040
 1133loPI   C2B18126   5.633  17.594   6.397  0.3122  0.0912 -0.1082
 1133loPI   C3B18127   5.540  17.963   6.662  0.3281 -0.0373  0.0121
 1133loPI   C4B18128   5.522  18.321   6.828  0.2351  0.0292  0.2154
 1134loPI    C118129  15.708  16.733   4.060 -0.2886 -0.1446 -0.1655
 1134loPI    C218130  16.017  16.808   3.817 -0.0494 -0.0549  0.1594
 1134loPI    C318131  15.659  16.970   3.741  0.0114 -0.0589 -0.1512
 1134loPI   PO418132  15.858  16.758   4.300  0.1353  0.2879  0.2103
 1134loPI   GL118133  16.060  17.065   4.657  0.5040  0.0645  0.3071
 1134loPI   GL218134  15.728  17.151   4.683 -0.2317  0.1299 -0.0503
 1134loPI   C1A18135  16.337  17.295   5.040 -0.0831 -0.0890 -0.1727
 1134loPI   C2A18136  16.265  17.336   5.494 -0.3010 -0.1265 -0.1224
 1134loPI   C3A18137  16.375  17.379   5.878 -0.0032  0.0395 -0.0277
 1134loPI   C4A18138  16.314  17.344   6.337  0.1200 -0.0903 -0.2457
 1134loPI   C5A18139  16.277  17.274   6.710  0.1353  0.0492 -0.3550
 1134loPI   C6A18140  16.322  17.432   7.096 -0.0980  0.0385 -0.0525
 1134loPI   C1B18141  15.836  17.097   5.135 -0.3558 -0.1553 -0.2041
 1134loPI   C2B18142  15.803  17.083   5.678  0.1639 -0.0456  0.2860
 1134loPI   C3B18143  15.897  17.188   6.052  0.0994  0.0973 -0.2746
 1134loPI   C4B18144  15.883  17.301   6.489  0.5035 -0.1449 -0.1827
 1135loPI    C118145   7.911   1.671   4.193  0.2813 -0.1975 -0.0036
 1135loPI    C218146   7.613   1.700   3.927  0.1715  0.1725  0.1544
 1135loPI    C318147   7.787   1.346   3.995 -0.0777 -0.0033 -0.1049
 1135loPI   PO418148   7.838   1.699   4.459 -0.0230 -0.0441 -0.0090
 1135loPI   GL118149   7.828   1.942   4.776  0.1092  0.3143  0.2298
 1135loPI   GL218150   7.836   2.252   4.725 -0.0165 -0.3088  0.1551
 1135loPI   C1A18151   7.782   1.806   5.117 -0.1992  0.1929  0.0932
 1135loPI   C2A18152   7.759   1.656   5.434  0.3540 -0.0931 -0.0930
 1135loPI   C3A18153   7.543   1.598   5.760  0.0965  0.1239 -0.0486
 1135loPI   C4A18154   7.504   1.638   6.175  0.1887 -0.0109 -0.3371
 1135loPI   C5A18155   7.547   1.915   6.577  0.0545 -0.1360  0.0434
 1135loPI   C6A18156   7.574   2.277   6.844 -0.0133  0.1619 -0.0389
 1135loPI   C1B18157   7.834   2.425   5.135 -0.0290  0.0718  0.0024
 1135loPI   C2B18158   7.732   2.636   5.505 -0.0215  0.0354 -0.0860
 1135loPI   C3B18159   7.654   2.678   6.005 -0.0550  0.2079 -0.2316
 1135loPI   C4B18160   7.416   2.474   6.366  0.1636  0.0600 -0.0976
 1136loPI    C118161   0.856   4.324   4.750 -0.1928 -0.0367  0.1929
 1136loPI    C218162   0.614   4.322   4.431  0.0488  0.0167  0.0062
 1136loPI    C318163   0.744   3.977   4.586 -0.1419 -0.0119  0.1049
 1136loPI   PO418164   0.702   4.465   4.959  0.2778 -0.1251 -0.1008
 1136loPI   GL118165   0.424   4.617   5.357 -0.0912 -0.1510  0.1881
 1136loPI   GL218166   0.599   4.788   5.467  0.2595 -0.3495  0.1651
 1136loPI   C1A18167   0.160   4.568   5.546  0.0544  0.0205 -0.1729
 1136loPI   C2A18168  -0.032   4.412   5.893 -0.2063  0.2746 -0.2057
 1136loPI   C3A18169  -0.137   4.148   6.211  0.2286  0.2595 -0.3204
 1136loPI   C4A18170  -0.148   3.895   6.582 -0.0939 -0.1232 -0.0530
 1136loPI   C5A18171  -0.025   3.796   7.096  0.1436 -0.1259  0.0130
 1136loPI   C6A18172  -0.169   3.987   7.464 -0.2773 -0.0461 -0.2495
 1136loPI   C1B18173   0.695   4.589   5.851  0.0438  0.1336  0.0533
 1136loPI   C2B18174   0.894   4.508   6.158 -0.2789  0.0792 -0.3382
 1136loPI   C3B18175   1.133   4.285   6.485 -0.1849  0.1156 -0.1720
 1136loPI   C4B18176   1.167   4.075   6.954  0.1113  0.1928  0.0392
 1137loPI    C118177   5.761   5.976   4.344  0.0033  0.0386  0.0336
 1137loPI    C218178   5.775   6.215   4.023 -0.3722  0.0111 -0.0084
 1137loPI    C318179   5.860   5.826   3.986 -0.0892  0.0698 -0.0054
 1137loPI   PO418180   5.794   6.155   4.563 -0.1401 -0.2540 -0.0139
 1137loPI   GL118181   5.709   6.121   5.069  0.2067  0.2023 -0.1001
 1137loPI   GL218182   5.493   6.320   5.113 -0.1758 -0.1070 -0.0638
 1137loPI   C1A18183   5.621   5.933   5.500 -0.4275  0.0745 -0.2051
 1137loPI   C2A18184   5.722   5.878   5.860  0.1928  0.3494  0.0942
 1137loPI   C3A18185   5.855   6.035   6.297  0.3276  0.1025 -0.0761
 1137loPI   C4A18186   5.880   6.388   6.524  0.2291  0.0235  0.0708
 1137loPI   C5A18187   6.160   6.684   6.706  0.3177 -0.0720 -0.1285
 1137loPI   C6A18188   6.517   6.523   6.871 -0.0161 -0.1122 -0.1763
 1137loPI   C1B18189   5.223   6.333   5.580  0.1236  0.0205  0.0736
 1137loPI   C2B18190   4.948   6.585   5.687  0.2790 -0.3273 -0.1758
 1137loPI   C3B18191   4.540   6.558   5.864  0.1514 -0.2458 -0.1242
 1137loPI   C4B18192   4.175   6.546   5.896  0.1187  0.0902  0.1445
 1138loPI    C118193  15.879  13.931   3.899  0.1983 -0.1418  0.0484
 1138loPI    C218194  16.213  13.715   3.941  0.2022 -0.1806 -0.1697
 1138loPI    C318195  16.146  13.917   3.602  0.1368  0.0570 -0.0179
 1138loPI   PO418196  15.883  14.086   4.080  0.2015  0.1737 -0.0454
 1138loPI   GL118197  15.787  14.064   4.506  0.3899  0.1807 -0.0466
 1138loPI   GL218198  15.835  14.260   4.645  0.2053 -0.0107  0.1243
 1138loPI   C1A18199  15.933  13.850   4.956  0.2699 -0.2586  0.0712
 1138loPI   C2A18200  16.298  13.840   5.162 -0.1412  0.1960 -0.1498
 1138loPI   C3A18201  16.625  13.702   5.460 -0.0811  0.0832  0.2507
 1138loPI   C4A18202  16.850  13.556   5.815  0.0630 -0.0407 -0.3126
 1138loPI   C5A18203  16.775  13.652   6.244  0.1571  0.0629  0.2143
 1138loPI   C6A18204  16.859  13.884   6.674  0.2225 -0.0089 -0.1277
 1138loPI   C1B18205  16.241  14.235   4.915  0.2328 -0.3079  0.2617
 1138loPI   C2B18206  16.677  14.135   5.182 -0.0395  0.0285  0.1215
 1138loPI   C3B18207  16.699  14.143   5.652 -0.1880 -0.0050  0.0926
 1138loPI   C4B18208  16.507  13.990   5.996 -0.1200  0.0250 -0.0133
 1139loPI    C118209   3.045   8.876   4.845 -0.0730 -0.0150  0.1293
 1139loPI    C218210   3.388   9.069   4.773 -0.1493  0.1450  0.1906
 1139loPI    C318211   3.233   8.826   4.495 -0.0077  0.1034  0.1471
 1139loPI   PO418212   3.100   9.021   5.146  0.0818  0.0147  0.0834
 1139loPI   GL118213   3.553   9.141   5.396 -0.0952  0.1693 -0.0829
 1139loPI   GL218214   3.491   9.083   5.679 -0.4129  0.1202 -0.0106
 1139loPI   C1A18215   3.905   8.874   5.638  0.1437  0.1480 -0.5370
 1139loPI   C2A18216   4.023   8.519   5.748 -0.0963  0.0441  0.2376
 1139loPI   C3A18217   4.254   8.226   6.135  0.0828  0.1750 -0.4603
 1139loPI   C4A18218   4.214   8.268   6.626  0.0832 -0.0710 -0.2066
 1139loPI   C5A18219   4.205   8.131   7.052 -0.0315 -0.1170  0.1265
 1139loPI   C6A18220   3.821   8.175   7.221  0.1193  0.1370 -0.0394
 1139loPI   C1B18221   3.258   9.160   6.081 -0.1118  0.1862 -0.1739
 1139loPI   C2B18222   3.483   8.988   6.466  0.2597  0.0475 -0.0694
 1139loPI   C3B18223   3.384   8.870   6.836  0.0486 -0.0300  0.0402
 1139loPI   C4B18224   3.234   8.833   7.320  0.1721 -0.1314  0.0623
 1140loPI    C118225   8.377   4.575   4.423  0.0411  0.0378  0.1615
 1140loPI    C218226   8.752   4.669   4.528  0.0413  0.0629  0.1390
 1140loPI    C318227   8.671   4.559   4.152  0.0111  0.1419  0.1222
 1140loPI   PO418228   8.242   4.737   4.638 -0.0812  0.1280  0.0755
 1140loPI   GL118229   8.082   4.887   5.040  0.0380  0.0620 -0.2526
 1140loPI   GL218230   8.199   5.176   4.999 -0.0144 -0.1256  0.3559
 1140loPI   C1A18231   7.886   4.892   5.432  0.1989 -0.1957 -0.0487
 1140loPI   C2A18232   7.590   4.719   5.719 -0.5032 -0.0348  0.1513
 1140loPI   C3A18233   7.556   4.752   6.143 -0.0031  0.0655 -0.0575
 1140loPI   C4A18234   7.625   4.955   6.516 -0.1166 -0.5756  0.1486
 1140loPI   C5A18235   7.602   5.115   6.962  0.0727 -0.0790 -0.1942
 1140loPI   C6A18236   7.321   5.318   7.156 -0.3328 -0.2599 -0.4398
 1140loPI   C1B18237   8.310   5.174   5.368  0.0287  0.1168 -0.0217
 1140loPI   C2B18238   8.151   5.453   5.627  0.0638  0.0283  0.1039
 1140loPI   C3B18239   8.235   5.507   6.132  0.0941 -0.1033  0.0534
 1140loPI   C4B18240   8.436   5.551   6.564 -0.1905  0.4357  0.1408
 1141loPI    C118241  17.278   7.189   3.949  0.0180  0.0655  0.0820
 1141loPI    C218242  17.381   6.825   3.817  0.0491  0.0310  0.2002
 1141loPI    C318243  17.151   7.062   3.591 -0.2715 -0.2023  0.2740
 1141loPI   PO418244  17.281   7.140   4.277  0.3267  0.3111  0.2711
 1141loPI   GL118245  17.311   7.365   4.691  0.1804  0.2539  0.1789
 1141loPI   GL218246  17.377   7.728   4.793  0.3395 -0.3172  0.2309
 1141loPI   C1A18247  17.297   7.084   5.086  0.1601 -0.1607 -0.0270
 1141loPI   C2A18248  17.127   6.771   5.357 -0.3285 -0.1531  0.0445
 1141loPI   C3A18249  16.990   6.527   5.743 -0.1917  0.0786 -0.1549
 1141loPI   C4A18250  16.816   6.383   6.093 -0.1427 -0.1601 -0.0567
 1141loPI   C5A18251  16.674   6.245   6.539 -0.1669 -0.0089  0.2917
 1141loPI   C6A18252  16.367   6.130   6.847 -0.0297 -0.1906 -0.0733
 1141loPI   C1B18253  17.190   7.579   5.190 -0.2039 -0.2053  0.2645
 1141loPI   C2B18254  17.266   7.391   5.547  0.0471 -0.2656  0.1785
 1141loPI   C3B18255  17.172   7.389   5.927 -0.0249  0.0071  0.2992
 1141loPI   C4B18256  17.088   7.218   6.419 -0.0295  0.3218  0.0610
 1142loPI    C118257   4.572   8.865   4.632 -0.0557  0.0917  0.0556
 1142loPI    C218258   4.812   8.585   4.477  0.2300  0.1410  0.3964
 1142loPI    C318259   4.722   8.910   4.263 -0.1374 -0.2195 -0.0188
 1142loPI   PO418260   4.371   8.801   4.856  0.0355 -0.0641  0.1557
 1142loPI   GL118261   4.457   8.909   5.402  0.0182  0.0226  0.0767
 1142loPI   GL218262   4.263   9.146   5.309 -0.0791 -0.0358  0.1755
 1142loPI   C1A18263   4.386   8.994   5.872 -0.0496  0.2586 -0.2022
 1142loPI   C2A18264   3.952   8.951   6.112 -0.5646 -0.1335  0.1536
 1142loPI   C3A18265   3.947   9.089   6.574 -0.1107 -0.0638  0.1357
 1142loPI   C4A18266   3.908   8.843   6.798  0.4624 -0.3048 -0.3782
 1142loPI   C5A18267   4.087   8.613   7.056  0.0894 -0.2550 -0.0629
 1142loPI   C6A18268   4.125   8.400   7.590 -0.1339 -0.0032  0.1701
 1142loPI   C1B18269   4.110   9.300   5.533  0.0178 -0.1967  0.0889
 1142loPI   C2B18270   3.941   9.365   5.860  0.1354  0.1214  0.0983
 1142loPI   C3B18271   3.753   9.414   6.231 -0.1862  0.1760 -0.0946
 1142loPI   C4B18272   3.578   9.451   6.625  0.0356 -0.2027 -0.3784
 1143loPI    C118273   5.918   6.625   4.456  0.2033 -0.1665  0.3623
 1143loPI    C218274   5.799   6.926   4.691 -0.1618  0.0687 -0.1082
 1143loPI    C318275   5.580   6.592   4.667  0.0877 -0.1210  0.1862
 1143loPI   PO418276   6.240   6.773   4.482  0.1487 -0.1150  0.1286
 1143loPI   GL118277   6.393   6.847   4.903  0.0141  0.1677  0.0097
 1143loPI   GL218278   6.152   6.932   5.011 -0.4597  0.1248 -0.1793
 1143loPI   C1A18279   6.447   7.019   5.423  0.0180 -0.1839  0.1913
 1143loPI   C2A18280   6.336   7.071   5.894 -0.1039  0.0701 -0.0348
 1143loPI   C3A18281   6.311   7.102   6.255 -0.1234  0.1211  0.2333
 1143loPI   C4A18282   6.320   7.168   6.690 -0.1572 -0.2592  0.2239
 1143loPI   C5A18283   6.289   7.317   7.141  0.1454  0.1196 -0.4205
 1143loPI   C6A18284   6.427   7.216   7.588 -0.1136  0.1928 -0.0901
 1143loPI   C1B18285   5.933   6.651   5.295  0.1210  0.1929 -0.0639
 1143loPI   C2B18286   5.773   6.382   5.542  0.1120 -0.1551  0.3601
 1143loPI   C3B18287   5.788   6.363   5.944 -0.2502 -0.0399  0.0092
 1143loPI   C4B18288   5.347   6.235   6.086 -0.0836 -0.0337 -0.0009
 1144loPI    C118289   1.216   8.155   4.926 -0.0151 -0.1293  0.0211
 1144loPI    C218290   1.166   8.010   4.556 -0.2406 -0.0836  0.0323
 1144loPI    C318291   0.910   7.909   4.847 -0.0618 -0.1224  0.1780
 1144loPI   PO418292   1.382   8.103   5.027  0.1888 -0.0029 -0.2576
 1144loPI   GL118293   1.340   8.186   5.445  0.0654  0.1063  0.2301
 1144loPI   GL218294   1.657   8.488   5.584 -0.0154 -0.2197 -0.1314
 1144loPI   C1A18295   1.178   8.074   5.896  0.0896 -0.1242 -0.1770
 1144loPI   C2A18296   1.303   8.038   6.308  0.4388 -0.0416  0.0552
 1144loPI   C3A18297   1.195   7.770   6.670 -0.3134  0.2444 -0.2632
 1144loPI   C4A18298   1.418   7.640   6.963  0.1128  0.0517 -0.0168
 1144loPI   C5A18299   1.854   7.559   7.039  0.3335  0.2147 -0.0607
 1144loPI   C6A18300   2.123   7.455   7.261  0.3727  0.2805 -0.0721
 1144loPI   C1B18301   1.704   8.663   6.015  0.1178  0.0026 -0.0163
 1144loPI   C2B18302   1.631   8.754   6.406  0.3558 -0.0601 -0.0313
 1144loPI   C3B18303   1.333   8.601   6.663 -0.3108 -0.1202 -0.1739
 1144loPI   C4B18304   0.842   8.718   6.713 -0.2155  0.0919 -0.1444
 1145loPI    C118305   5.221  15.044   4.810  0.0775  0.1743  0.0078
 1145loPI    C218306   5.034  15.394   4.858 -0.0658  0.0773  0.1708
 1145loPI    C318307   4.858  15.100   4.653  0.1037  0.1378 -0.0663
 1145loPI   PO418308   5.219  14.884   4.986  0.0464 -0.0102  0.0550
 1145loPI   GL118309   5.125  14.821   5.384 -0.1072  0.0472  0.0376
 1145loPI   GL218310   5.360  15.126   5.469 -0.1043  0.2282 -0.0605
 1145loPI   C1A18311   5.405  14.731   5.755 -0.1434 -0.1202  0.2224
 1145loPI   C2A18312   5.662  14.797   6.060 -0.0550  0.0081  0.1667
 1145loPI   C3A18313   5.714  14.824   6.502  0.2045 -0.0474  0.1370
 1145loPI   C4A18314   5.729  14.829   6.958 -0.4212 -0.1824  0.1203
 1145loPI   C5A18315   5.894  14.585   7.334 -0.1357  0.0701 -0.0438
 1145loPI   C6A18316   5.938  14.535   7.768  0.3171 -0.0635 -0.1271
 1145loPI   C1B18317   5.469  15.259   5.832 -0.0245 -0.1787 -0.1550
 1145loPI   C2B18318   5.343  15.140   6.244  0.1233 -0.3989  0.0530
 1145loPI   C3B18319   5.252  15.046   6.636  0.2023 -0.0058  0.1356
 1145loPI   C4B18320   5.382  15.213   7.100 -0.2798  0.2568 -0.1861
 1146loPI    C118321  18.642  18.158   4.230  0.0338  0.0131 -0.0484
 1146loPI    C218322  18.597  17.869   3.957  0.2041 -0.0647  0.0047
 1146loPI    C318323  18.871  17.831   4.246 -0.0306 -0.0203  0.2375
 1146loPI   PO418324  18.387  18.225   4.365 -0.1687  0.0627 -0.1705
 1146loPI   GL118325  18.385  18.372   4.796  0.3516  0.0677 -0.0656
 1146loPI   GL218326  18.148  18.082   4.814  0.0816  0.1381 -0.3332
 1146loPI   C1A18327  18.727  18.256   5.095 -0.2391  0.2005 -0.0512
 1146loPI   C2A18328  18.923  18.451   5.495 -0.0335 -0.0528  0.1171
 1146loPI   C3A18329  19.072  18.761   5.899 -0.3376  0.4008 -0.2925
 1146loPI   C4A18330  18.887  18.878   6.316  0.1162  0.1862 -0.0161
 1146loPI   C5A18331  18.659  18.835   6.727  0.0029  0.2981  0.1013
 1146loPI   C6A18332  18.680  18.651   7.161  0.2000 -0.0680 -0.3050
 1146loPI   C1B18333  18.184  18.382   5.235 -0.0130  0.0614  0.1796
 1146loPI   C2B18334  18.481  18.257   5.549 -0.1265 -0.1652  0.2354
 1146loPI   C3B18335  18.799  18.227   5.906 -0.0406  0.3009  0.0108
 1146loPI   C4B18336  18.970  18.262   6.258 -0.0564 -0.0895  0.0444
 1147loPI    C118337   5.066   8.962   4.696  0.0940  0.0836  0.3621
 1147loPI    C218338   5.388   9.178   4.600 -0.0289  0.1219  0.0234
 1147loPI    C318339   5.032   9.270   4.443 -0.1228 -0.1962  0.0425
 1147loPI   PO418340   5.182   8.835   4.887  0.3135 -0.4096  0.0798
 1147loPI   GL118341   5.316   8.783   5.230 -0.0553 -0.1165  0.1653
 1147loPI   GL218342   5.637   8.597   5.288  0.3255 -0.0351  0.1957
 1147loPI   C1A18343   5.240   8.782   5.632 -0.0433  0.2174 -0.0027
 1147loPI   C2A18344   5.187   8.617   5.980  0.3276 -0.2156 -0.0673
 1147loPI   C3A18345   5.307   8.544   6.432 -0.1436  0.1068  0.0205
 1147loPI   C4A18346   5.655   8.562   6.737 -0.2205 -0.0546 -0.0056
 1147loPI   C5A18347   6.071   8.496   6.815 -0.1613 -0.0251 -0.2071
 1147loPI   C6A18348   6.467   8.458   6.867  0.1183 -0.0826  0.1568
 1147loPI   C1B18349   5.674   8.171   5.462  0.1978 -0.1513 -0.0154
 1147loPI   C2B18350   5.994   7.989   5.730  0.1909  0.1380  0.0585
 1147loPI   C3B18351   6.101   8.009   6.145 -0.2415  0.4203 -0.2854
 1147loPI   C4B18352   6.334   8.184   6.464  0.1038  0.1031  0.0319
 1148loPI    C118353  18.890   6.295   4.628 -0.0646  0.0958 -0.0101
 1148loPI    C218354  18.646   6.422   4.918 -0.2255  0.1582 -0.1713
 1148loPI    C318355  18.556   6.494   4.535 -0.2382 -0.3015 -0.2602
 1148loPI   PO418356  19.136   6.390   4.849 -0.2170  0.1753  0.4624
 1148loPI   GL118357  18.996   6.354   5.266  0.1881 -0.0872 -0.0573
 1148loPI   GL218358  19.372   6.404   5.285  0.2425 -0.3700  0.2153
 1148loPI   C1A18359  19.116   6.715   5.599 -0.1965  0.0487 -0.1631
 1148loPI   C2A18360  19.346   6.671   5.995 -0.1238  0.2969 -0.0092
 1148loPI   C3A18361  19.335   6.874   6.407 -0.1869 -0.0214  0.5176
 1148loPI   C4A18362  19.288   7.200   6.638 -0.0885  0.0476  0.0551
 1148loPI   C5A18363  19.220   7.192   7.131  0.1078  0.1584  0.2754
 1148loPI   C6A18364  18.915   7.097   7.405  0.0375  0.1654  0.1013
 1148loPI   C1B18365  19.665   6.422   5.610  0.2814 -0.3842 -0.2802
 1148loPI   C2B18366  19.879   6.444   6.048 -0.1352  0.1293  0.0342
 1148loPI   C3B18367  19.748   6.546   6.469 -0.0345  0.0782  0.1816
 1148loPI   C4B18368  19.394   6.492   6.750  0.0088 -0.0831  0.0998
 1149loPI    C118369   6.947  17.198   4.763 -0.0501 -0.0454  0.0739
 1149loPI    C218370   7.177  16.871   4.751  0.2869  0.1919 -0.1207
 1149loPI    C318371   6.900  16.932   4.468 -0.1223 -0.1620  0.1892
 1149loPI   PO418372   6.828  17.158   4.959  0.1122 -0.0409 -0.3712
 1149loPI   GL118373   6.995  17.351   5.352 -0.1714 -0.0815  0.0374
 1149loPI   GL218374   7.291  17.306   5.103  0.0767 -0.0046 -0.0461
 1149loPI   C1A18375   6.940  17.701   5.600  0.0174  0.3679 -0.0506
 1149loPI   C2A18376   6.597  17.835   5.684  0.0468  0.1800 -0.0920
 1149loPI   C3A18377   6.449  17.932   6.122 -0.1684 -0.1103 -0.1206
 1149loPI   C4A18378   6.191  17.899   6.448  0.3374  0.2501  0.1708
 1149loPI   C5A18379   5.967  17.943   6.841 -0.0126 -0.2302  0.0411
 1149loPI   C6A18380   5.627  17.834   7.207  0.0832 -0.2132  0.1944
 1149loPI   C1B18381   7.383  17.052   5.484 -0.1082  0.2057 -0.0523
 1149loPI   C2B18382   7.321  17.356   5.843 -0.0009 -0.1014 -0.0369
 1149loPI   C3B18383   7.267  17.652   6.114  0.0661  0.3014  0.0170
 1149loPI   C4B18384   7.002  18.016   6.039  0.0016 -0.0501 -0.1378
 1150loPI    C118385   0.377  12.739   4.923  0.2614 -0.0732 -0.1329
 1150loPI    C218386   0.311  12.364   5.043  0.0395 -0.0519 -0.1829
 1150loPI    C318387   0.087  12.522   4.753  0.2224  0.0743 -0.2567
 1150loPI   PO418388   0.484  12.897   5.226 -0.0648 -0.1901  0.1039
 1150loPI   GL118389   0.716  13.064   5.613 -0.1272  0.0991  0.0329
 1150loPI   GL218390   0.917  13.326   5.659 -0.0501  0.1797  0.1018
 1150loPI   C1A18391   0.425  12.976   5.938  0.1383 -0.2877  0.2542
 1150loPI   C2A18392   0.534  12.974   6.389 -0.1368 -0.1530  0.0932
 1150loPI   C3A18393   0.742  13.164   6.712  0.0145 -0.2280 -0.0491
 1150loPI   C4A18394   0.576  13.345   7.124  0.3380 -0.0184  0.1864
 1150loPI   C5A18395   0.317  13.737   7.157  0.1427 -0.1750  0.2350
 1150loPI   C6A18396  -0.152  13.885   6.866 -0.0873  0.2557  0.0445
 1150loPI   C1B18397   1.004  13.008   6.022 -0.1320  0.0011  0.4556
 1150loPI   C2B18398   1.175  12.967   6.390 -0.2123 -0.1708 -0.1068
 1150loPI   C3B18399   1.211  12.928   6.791  0.0933  0.2161 -0.2232
 1150loPI   C4B18400   1.261  12.939   7.178  0.1433  0.2376  0.0764
 1151loPI    C118401   4.814  16.461   4.698 -0.0768 -0.0708 -0.2097
 1151loPI    C218402   4.808  16.321   4.324  0.2573 -0.0235 -0.2360
 1151loPI    C318403   4.941  16.691   4.397  0.1884 -0.0305 -0.0701
 1151loPI   PO418404   4.883  16.271   4.929  0.2253  0.0001  0.0497
 1151loPI   GL118405   5.254  16.230   5.236 -0.2159 -0.2155  0.3530
 1151loPI   GL218406   5.505  16.037   5.324 -0.2878 -0.0119  0.0382
 1151loPI   C1A18407   5.068  16.150   5.712  0.0530 -0.1740  0.0301
 1151loPI   C2A18408   4.861  15.977   6.111 -0.1142 -0.4486  0.0285
 1151loPI   C3A18409   4.684  15.874   6.445 -0.2785 -0.0488  0.1530
 1151loPI   C4A18410   4.252  15.966   6.613  0.1554  0.0694 -0.0151
 1151loPI   C5A18411   3.837  16.059   6.772 -0.0204  0.0905  0.0747
 1151loPI   C6A18412   3.579  16.224   7.133  0.1064 -0.0455  0.0265
 1151loPI   C1B18413   5.563  16.196   5.746  0.0252  0.2208  0.0792
 1151loPI   C2B18414   5.392  16.222   6.210  0.1702 -0.3947 -0.0241
 1151loPI   C3B18415   5.091  16.090   6.595 -0.0148 -0.1030  0.1248
 1151loPI   C4B18416   4.960  15.813   6.858 -0.2007 -0.1230 -0.2220
 1152loPI    C118417  10.930   1.124   3.990  0.0056 -0.0504 -0.1371
 1152loPI    C218418  11.311   1.011   3.943  0.0028 -0.0228 -0.2274
 1152loPI    C318419  11.114   1.183   3.640 -0.1438 -0.2190 -0.2457
 1152loPI   PO418420  10.918   1.086   4.274  0.2968  0.0246 -0.0014
 1152loPI   GL118421  11.197   1.130   4.628 -0.0340  0.0362  0.2949
 1152loPI   GL218422  11.256   0.806   4.643  0.0094  0.1736 -0.1633
 1152loPI   C1A18423  11.390   1.214   5.091  0.0210  0.3358 -0.0670
 1152loPI   C2A18424  11.424   1.348   5.464 -0.1907 -0.3274 -0.2496
 1152loPI   C3A18425  11.518   1.468   5.818  0.0713  0.1482 -0.2770
 1152loPI   C4A18426  11.768   1.278   6.112  0.1144  0.0695 -0.0960
 1152loPI   C5A18427  12.118   1.339   6.400  0.1300 -0.2433 -0.0079
 1152loPI   C6A18428  12.398   1.313   6.808  0.0246 -0.1347 -0.2287
 1152loPI   C1B18429  11.335   0.455   4.836 -0.1840 -0.1348  0.1400
 1152loPI   C2B18430  11.428   0.442   5.258 -0.0065 -0.0453  0.2130
 1152loPI   C3B18431  11.696   0.433   5.608  0.1436 -0.3263  0.1770
 1152loPI   C4B18432  11.842   0.405   6.042  0.0552 -0.1773 -0.0739
 1153loPI    C118433   1.443   1.279   4.556 -0.1512  0.0408  0.0070
 1153loPI    C218434   1.757   1.510   4.647  0.1107 -0.2236 -0.2054
 1153loPI    C318435   1.430   1.672   4.483  0.1179  0.0598  0.0520
 1153loPI   PO418436   1.662   0.961   4.610  0.0318 -0.0871 -0.3229
 1153loPI   GL118437   1.773   0.698   4.891  0.3726 -0.1023  0.1446
 1153loPI   GL218438   1.868   1.127   5.021  0.0535 -0.2149  0.5754
 1153loPI   C1A18439   2.014   0.502   5.148 -0.0520  0.1645  0.0058
 1153loPI   C2A18440   2.031   0.019   5.181  0.1159 -0.1427 -0.1911
 1153loPI   C3A18441   2.020  -0.347   5.406 -0.3490 -0.1010  0.3559
 1153loPI   C4A18442   2.195  -0.433   5.724 -0.0536  0.0641 -0.1645
 1153loPI   C5A18443   2.198  -0.528   6.187 -0.0089 -0.0371  0.2711
 1153loPI   C6A18444   1.926  -0.414   6.476 -0.0305  0.1068  0.0321
 1153loPI   C1B18445   1.877   1.245   5.449 -0.0672  0.0068  0.1453
 1153loPI   C2B18446   1.940   1.252   5.921  0.1465 -0.1465 -0.2476
 1153loPI   C3B18447   1.863   1.132   6.450 -0.0826 -0.0330 -0.2827
 1153loPI   C4B18448   1.503   1.277   6.691  0.0060  0.0337 -0.1353
 1154loPI    C118449  19.300   6.038   4.525  0.0059 -0.0915 -0.0457
 1154loPI    C218450  19.001   5.805   4.397  0.1043 -0.1270 -0.2138
 1154loPI    C318451  19.140   6.098   4.163  0.1826 -0.0926 -0.1247
 1154loPI   PO418452  19.331   5.865   4.749  0.2260 -0.0765 -0.0895
 1154loPI   GL118453  19.205   5.908   5.235  0.3277  0.0720 -0.1087
 1154loPI   GL218454  19.471   5.917   5.269 -0.1467  0.0876 -0.1743
 1154loPI   C1A18455  18.995   5.986   5.576  0.1664  0.1902 -0.0747
 1154loPI   C2A18456  19.175   6.191   5.907 -0.1938  0.5903  0.0714
 1154loPI   C3A18457  19.424   6.200   6.234 -0.1036  0.1939 -0.0890
 1154loPI   C4A18458  19.400   6.014   6.656  0.2493  0.1825  0.3512
 1154loPI   C5A18459  19.650   5.847   6.932 -0.2106  0.1506  0.0071
 1154loPI   C6A18460  19.903   5.868   7.203 -0.4367  0.0805  0.2354
 1154loPI   C1B18461  19.534   5.869   5.687  0.0443 -0.1868 -0.0595
 1154loPI   C2B18462  19.689   5.745   6.166 -0.2096  0.0263  0.1706
 1154loPI   C3B18463  19.962   5.694   6.606  0.1534  0.1806  0.2299
 1154loPI   C4B18464  20.210   5.308   6.805  0.0849 -0.2883  0.1261
 1155loPI    C118465  15.905  -0.125   4.236  0.2022  0.0073  0.0590
 1155loPI    C218466  15.794   0.233   4.096 -0.0455 -0.0025  0.2239
 1155loPI    C318467  16.144   0.075   3.985  0.0455  0.2699  0.1145
 1155loPI   PO418468  15.710  -0.255   4.282  0.0506  0.1264  0.0884
 1155loPI   GL118469  15.579  -0.474   4.758  0.0420 -0.3597 -0.0294
 1155loPI   GL218470  15.937  -0.470   4.679  0.2338 -0.0709  0.0647
 1155loPI   C1A18471  15.231  -0.537   5.071 -0.3932  0.0996  0.1342
 1155loPI   C2A18472  15.201  -0.415   5.444  0.1610  0.0813  0.1294
 1155loPI   C3A18473  15.193  -0.590   5.957  0.0267 -0.2775 -0.1300
 1155loPI   C4A18474  15.193  -0.560   6.439  0.2623 -0.3255 -0.0901
 1155loPI   C5A18475  15.210  -0.822   6.795 -0.2111 -0.4911  0.0806
 1155loPI   C6A18476  14.983  -0.991   7.106 -0.3175 -0.3693  0.0433
 1155loPI   C1B18477  15.843  -0.340   5.132 -0.0309  0.0508 -0.2641
 1155loPI   C2B18478  15.677  -0.182   5.572 -0.0723 -0.1208  0.2557
 1155loPI   C3B18479  15.796   0.100   5.833 -0.1659 -0.2344  0.1277
 1155loPI   C4B18480  16.056   0.196   6.136 -0.2611  0.0805  0.0445
 1156loPI    C118481   2.930  19.555   4.167  0.1340  0.0341 -0.0378
 1156loPI    C218482   3.126  19.215   4.088  0.0646 -0.0114 -0.0152
 1156loPI    C318483   2.740  19.250   3.991  0.0611  0.0468  0.0187
 1156loPI   PO418484   3.020  19.692   4.457 -0.0744 -0.3136  0.1993
 1156loPI   GL118485   3.058  19.627   4.940  0.0918  0.2902  0.1888
 1156loPI   GL218486   2.905  19.336   4.972 -0.1453  0.0842  0.1273
 1156loPI   C1A18487   2.825  19.787   5.335 -0.0191 -0.0491  0.1108
 1156loPI   C2A18488   2.897  19.935   5.734 -0.0861 -0.2914 -0.1185
 1156loPI   C3A18489   2.919  19.960   6.175 -0.1222  0.1604 -0.0530
 1156loPI   C4A18490   2.724  19.931   6.644  0.1305 -0.0265  0.0307
 1156loPI   C5A18491   2.653  19.851   7.035  0.0239  0.1124  0.2473
 1156loPI   C6A18492   2.655  19.985   7.429 -0.1982 -0.2560 -0.0866
 1156loPI   C1B18493   3.192  19.380   5.362  0.0848 -0.2187 -0.1126
 1156loPI   C2B18494   3.316  19.467   5.811  0.2826 -0.0804 -0.1326
 1156loPI   C3B18495   3.278  19.586   6.103 -0.0702 -0.1355  0.1732
 1156loPI   C4B18496   3.189  19.691   6.513 -0.0011 -0.1171  0.1757
 1157loPI    C118497  13.023  13.310   4.884  0.1547 -0.0272  0.0036
 1157loPI    C218498  13.201  13.215   4.539  0.0405 -0.0383 -0.0528
 1157loPI    C318499  13.083  13.591   4.606 -0.0516 -0.0624 -0.0787
 1157loPI   PO418500  13.202  13.214   5.061  0.0500  0.0612  0.2513
 1157loPI   GL118501  13.164  13.245   5.407  0.1723  0.3281 -0.1155
 1157loPI   GL218502  13.183  13.554   5.475  0.0405 -0.2672  0.2364
 1157loPI   C1A18503  13.365  12.902   5.783 -0.1124  0.2064  0.1070
 1157loPI   C2A18504  13.204  12.754   6.177 -0.1818  0.0165  0.4461
 1157loPI   C3A18505  13.316  12.692   6.542  0.0176 -0.2908 -0.1138
 1157loPI   C4A18506  13.307  12.502   7.007 -0.1031  0.0514  0.1868
 1157loPI   C5A18507  13.156  12.251   7.240  0.2504 -0.0287  0.0570
 1157loPI   C6A18508  13.202  12.159   7.599  0.0496 -0.3868 -0.1989
 1157loPI   C1B18509  13.060  13.858   5.757  0.0387  0.1813 -0.1161
 1157loPI   C2B18510  13.204  13.924   6.148  0.1453  0.1531  0.0556
 1157loPI   C3B18511  13.238  13.715   6.593 -0.0835 -0.2215 -0.1261
 1157loPI   C4B18512  13.162  13.425   6.875  0.0578 -0.1035  0.3697
 1158loPI    C118513  11.051  10.156   4.925  0.0128  0.0096 -0.2184
 1158loPI    C218514  11.284  10.405   4.717  0.1034  0.2193  0.1263
 1158loPI    C318515  10.902  10.500   4.786 -0.0280 -0.0183 -0.2439
 1158loPI   PO418516  11.095  10.121   5.266  0.1284  0.1631 -0.0345
 1158loPI   GL118517  11.096   9.905   5.629  0.0631  0.0657 -0.1900
 1158loPI   GL218518  11.422   9.828   5.492  0.2280 -0.1733 -0.1811
 1158loPI   C1A18519  11.137   9.755   6.048  0.1224  0.0565 -0.2443
 1158loPI   C2A18520  11.310   9.759   6.463  0.2435  0.1553  0.0080
 1158loPI   C3A18521  11.379   9.871   6.881 -0.0228 -0.0012 -0.2261
 1158loPI   C4A18522  11.079  10.011   7.273  0.0231  0.1499 -0.0791
 1158loPI   C5A18523  10.798  10.096   7.558 -0.2704  0.1923 -0.0492
 1158loPI   C6A18524  10.372  10.245   7.712 -0.1809 -0.1411 -0.0826
 1158loPI   C1B18525  11.512   9.550   5.813 -0.0690  0.1049 -0.1949
 1158loPI   C2B18526  11.535   9.409   6.207 -0.0151 -0.0602  0.1008
 1158loPI   C3B18527  11.702   9.392   6.645  0.0890 -0.0189 -0.0149
 1158loPI   C4B18528  11.837   9.646   6.934  0.1289  0.2962 -0.1205
 1159loPI    C118529  10.201  10.566   4.810  0.2190  0.0119  0.0856
 1159loPI    C218530  10.095  10.180   4.815  0.1466  0.0318  0.0978
 1159loPI    C318531   9.980  10.416   4.512  0.1130  0.0654  0.1365
 1159loPI   PO418532  10.174  10.674   5.054  0.0186 -0.1016 -0.2940
 1159loPI   GL118533  10.450  10.615   5.377  0.1602  0.1705  0.1457
 1159loPI   GL218534  10.807  10.469   5.438 -0.2261 -0.0248 -0.2482
 1159loPI   C1A18535  10.263  10.576   5.671  0.0344  0.1989 -0.3410
 1159loPI   C2A18536  10.244  10.317   5.947  0.1611  0.0449 -0.3980
 1159loPI   C3A18537  10.370  10.059   6.349  0.0474  0.0925  0.1618
 1159loPI   C4A18538  10.652   9.716   6.347  0.2437  0.1209  0.0888
 1159loPI   C5A18539  10.901   9.583   6.702 -0.0779 -0.0716  0.0039
 1159loPI   C6A18540  11.010   9.577   7.058 -0.1562  0.2059 -0.1700
 1159loPI   C1B18541  10.781  10.458   5.858  0.2385  0.0455 -0.2649
 1159loPI   C2B18542  10.572  10.880   6.059  0.3435  0.3445  0.1671
 1159loPI   C3B18543  10.469  11.123   6.374 -0.0750 -0.0096  0.2372
 1159loPI   C4B18544  10.133  11.272   6.691  0.3497  0.0870  0.0478
 1160loPI    C118545   3.689  19.763   4.264 -0.0850 -0.1420 -0.2425
 1160loPI    C218546   3.488  19.717   4.607  0.1122  0.2124 -0.0739
 1160loPI    C318547   3.480  19.428   4.331 -0.0670 -0.0689  0.2175
 1160loPI   PO418548   3.820  20.044   4.292 -0.0525  0.2782  0.1450
 1160loPI   GL118549   3.683  20.245   4.661  0.0081 -0.2091 -0.3527
 1160loPI   GL218550   3.941  20.341   4.839 -0.0547 -0.1124  0.0336
 1160loPI   C1A18551   3.584  20.008   4.975 -0.0835 -0.2769 -0.2569
 1160loPI   C2A18552   3.335  19.935   5.262  0.0134  0.0717 -0.1332
 1160loPI   C3A18553   3.408  20.013   5.736 -0.2690  0.1917  0.0314
 1160loPI   C4A18554   3.351  20.093   6.208  0.1302  0.1153 -0.2844
 1160loPI   C5A18555   3.239  20.193   6.652 -0.0811  0.1642 -0.3240
 1160loPI   C6A18556   3.352  20.629   6.815 -0.0156  0.0126 -0.1646
 1160loPI   C1B18557   4.070  20.279   5.225  0.1547  0.2234  0.2009
 1160loPI   C2B18558   3.925  19.889   5.522 -0.2140 -0.1762 -0.0043
 1160loPI   C3B18559   3.816  19.711   6.007 -0.1188  0.0948  0.1910
 1160loPI   C4B18560   3.694  19.873   6.452  0.0915  0.1789 -0.2155
 1161loPI    C118561   0.779  18.231   4.464  0.1160  0.5023 -0.3486
 1161loPI    C218562   0.486  18.075   4.241 -0.0635  0.2393  0.0591
 1161loPI    C318563   0.854  17.919   4.225 -0.1165  0.1111  0.0729
 1161loPI   PO418564   0.666  18.146   4.723 -0.0303 -0.0680  0.2910
 1161loPI   GL118565   0.313  18.256   4.994  0.0723 -0.1153  0.1278
 1161loPI   GL218566   0.548  18.427   5.154 -0.4509 -0.1883  0.1614
 1161loPI   C1A18567   0.081  18.453   5.275 -0.4489 -0.0766 -0.1041
 1161loPI   C2A18568   0.023  18.314   5.643 -0.2141 -0.0434  0.0479
 1161loPI   C3A18569   0.025  18.179   6.045  0.0147  0.0236  0.0067
 1161loPI   C4A18570   0.008  18.177   6.500 -0.2178  0.1107 -0.3157
 1161loPI   C5A18571  -0.083  18.338   6.894 -0.1923  0.2504 -0.3641
 1161loPI   C6A18572  -0.516  18.465   7.073 -0.1565 -0.1663 -0.0722
 1161loPI   C1B18573   0.467  18.211   5.506  0.0785 -0.0760 -0.0545
 1161loPI   C2B18574   0.547  18.040   5.884  0.0156 -0.1602  0.0699
 1161loPI   C3B18575   0.510  18.045   6.178 -0.4760  0.0104 -0.4116
 1161loPI   C4B18576   0.675  17.874   6.539  0.1020 -0.0444 -0.0501
 1162loPI    C118577  16.414  19.164   4.173 -0.0282  0.0793  0.0315
 1162loPI    C218578  16.037  19.080   4.277 -0.0515 -0.2905 -0.3255
 1162loPI    C318579  16.110  19.306   3.955  0.0314  0.1877  0.0184
 1162loPI   PO418580  16.510  19.232   4.347  0.0261 -0.1843 -0.1542
 1162loPI   GL118581  16.481  19.340   4.773 -0.2162 -0.1713  0.1233
 1162loPI   GL218582  16.269  19.204   5.036 -0.3109  0.1991 -0.1620
 1162loPI   C1A18583  16.714  19.377   5.060 -0.2536 -0.3450  0.0069
 1162loPI   C2A18584  16.651  19.338   5.532 -0.2314  0.1370 -0.1459
 1162loPI   C3A18585  16.667  19.438   5.973 -0.1785 -0.0770  0.1153
 1162loPI   C4A18586  16.655  19.382   6.409  0.0476 -0.1623 -0.1731
 1162loPI   C5A18587  16.733  19.491   6.865 -0.0903  0.0752 -0.1397
 1162loPI   C6A18588  16.868  19.806   7.013  0.1127  0.0012 -0.1936
 1162loPI   C1B18589  16.136  19.205   5.554 -0.2201 -0.0742 -0.2316
 1162loPI   C2B18590  15.995  19.227   5.834  0.3364  0.0288 -0.2356
 1162loPI   C3B18591  15.787  19.438   6.122  0.5163  0.0264 -0.0485
 1162loPI   C4B18592  15.654  19.672   6.315  0.1885 -0.0057  0.2294
 1163loPI    C118593  18.906  15.326   4.402  0.0989 -0.0927  0.0225
 1163loPI    C218594  18.616  15.544   4.234  0.2571  0.2009  0.1241
 1163loPI    C318595  18.786  15.246   4.029 -0.1754 -0.0343  0.0958
 1163loPI   PO418596  18.982  15.500   4.627 -0.0076 -0.1164 -0.0426
 1163loPI   GL118597  19.043  15.519   5.133 -0.1234  0.1049 -0.0874
 1163loPI   GL218598  18.741  15.356   5.174 -0.0776 -0.0730  0.0986
 1163loPI   C1A18599  18.994  15.546   5.662 -0.0067 -0.1028 -0.0090
 1163loPI   C2A18600  18.837  15.653   5.966 -0.0583 -0.3141  0.3221
 1163loPI   C3A18601  18.587  15.629   6.317 -0.1912 -0.1744  0.2596
 1163loPI   C4A18602  18.293  15.898   6.498 -0.3248  0.3200  0.0639
 1163loPI   C5A18603  17.760  16.026   6.736 -0.0033  0.2715 -0.0336
 1163loPI   C6A18604  17.361  16.076   6.727  0.1449 -0.0714 -0.0475
 1163loPI   C1B18605  18.489  15.347   5.526  0.2325  0.2893  0.0950
 1163loPI   C2B18606  18.307  15.437   5.949 -0.0324  0.4262 -0.0033
 1163loPI   C3B18607  18.008  15.562   6.287 -0.3614  0.1024  0.1002
 1163loPI   C4B18608  17.952  15.542   6.687  0.1147 -0.0769  0.0649
 1164loPI    C118609   3.764   6.584   4.882  0.0027 -0.0584  0.0745
 1164loPI    C218610   3.474   6.511   4.617 -0.1728 -0.1354  0.2852
 1164loPI    C318611   3.661   6.207   4.797  0.1863 -0.0919 -0.0043
 1164loPI   PO418612   3.639   6.780   5.007  0.1943  0.2794 -0.0459
 1164loPI   GL118613   3.558   6.675   5.488 -0.1169  0.0936 -0.1060
 1164loPI   GL218614   3.462   6.404   5.273 -0.1350 -0.1245 -0.1177
 1164loPI   C1A18615   3.663   6.747   5.786 -0.2778 -0.0814 -0.1306
 1164loPI   C2A18616   3.796   6.803   6.184 -0.0267 -0.0822 -0.2123
 1164loPI   C3A18617   4.148   6.513   6.412  0.1016 -0.1259 -0.2114
 1164loPI   C4A18618   4.096   6.249   6.750  0.2076  0.0165 -0.1536
 1164loPI   C5A18619   4.001   6.238   7.255 -0.0061 -0.1114 -0.1655
 1164loPI   C6A18620   3.881   6.532   7.516  0.2162 -0.0104  0.5153
 1164loPI   C1B18621   3.324   6.225   5.683 -0.2549 -0.3398  0.2192
 1164loPI   C2B18622   3.467   5.837   5.993  0.1321 -0.2780  0.2787
 1164loPI   C3B18623   3.607   5.943   6.484 -0.0392  0.0337 -0.1061
 1164loPI   C4B18624   3.680   5.986   6.842  0.3174  0.0893  0.0136
 1165loPI    C118625   4.179  17.352   4.133  0.2616 -0.2649  0.1720
 1165loPI    C218626   4.565  17.355   4.029  0.2141  0.1031 -0.0112
 1165loPI    C318627   4.287  17.469   3.766 -0.0136 -0.0708  0.1505
 1165loPI   PO418628   4.088  17.120   4.369  0.0519  0.1573 -0.0307
 1165loPI   GL118629   3.930  16.887   4.779 -0.1090 -0.2744  0.0849
 1165loPI   GL218630   4.061  16.754   5.117  0.0891  0.2171  0.0168
 1165loPI   C1A18631   3.429  17.149   4.974 -0.2356 -0.1561  0.0345
 1165loPI   C2A18632   3.325  17.300   5.336  0.2277  0.0150 -0.0914
 1165loPI   C3A18633   3.264  17.470   5.694  0.1109 -0.0152 -0.0933
 1165loPI   C4A18634   3.226  17.286   6.045  0.0263  0.2312  0.0408
 1165loPI   C5A18635   2.947  17.333   6.372  0.3018  0.3946 -0.3703
 1165loPI   C6A18636   2.641  17.121   6.610 -0.3115  0.1212 -0.2618
 1165loPI   C1B18637   4.007  17.068   5.538  0.2774  0.0618 -0.2271
 1165loPI   C2B18638   4.198  17.198   5.898 -0.1854 -0.1194  0.2756
 1165loPI   C3B18639   4.373  17.262   6.268  0.0311  0.0331  0.0785
 1165loPI   C4B18640   4.436  17.383   6.744  0.0359 -0.2550 -0.2229
 1166loPI    C118641  11.989  15.393   4.479  0.0107 -0.1701  0.0320
 1166loPI    C218642  11.762  15.108   4.314 -0.1203 -0.0557  0.0135
 1166loPI    C318643  11.679  15.493   4.247 -0.0626 -0.0103  0.1965
 1166loPI   PO418644  12.030  15.310   4.694  0.0459 -0.0881  0.0051
 1166loPI   GL118645  11.947  15.474   5.122 -0.2894  0.2538 -0.1889
 1166loPI   GL218646  11.681  15.248   5.271  0.1585  0.0608  0.1402
 1166loPI   C1A18647  12.062  15.340   5.568 -0.0191  0.1548 -0.4310
 1166loPI   C2A18648  12.049  15.305   5.984  0.0398  0.2330 -0.0969
 1166loPI   C3A18649  12.122  15.199   6.522  0.1233 -0.0159 -0.1196
 1166loPI   C4A18650  11.953  15.080   6.917 -0.2577  0.0772  0.2708
 1166loPI   C5A18651  11.736  15.195   7.315 -0.0485 -0.0100  0.0443
 1166loPI   C6A18652  11.733  15.135   7.837  0.4869 -0.1675  0.2495
 1166loPI   C1B18653  11.599  15.196   5.788 -0.0947  0.2328 -0.0783
 1166loPI   C2B18654  11.196  15.028   5.933  0.1720 -0.1161  0.0000
 1166loPI   C3B18655  10.812  15.126   5.688  0.1004 -0.3557  0.0058
 1166loPI   C4B18656  10.554  15.293   5.377 -0.1029  0.0356 -0.2453
 1167loPI    C118657  18.123   2.886   4.189 -0.1693 -0.1170  0.0840
 1167loPI    C218658  18.298   3.231   4.087  0.0725 -0.2989 -0.1299
 1167loPI    C318659  18.015   3.073   3.853 -0.1978 -0.1373  0.0819
 1167loPI   PO418660  18.151   2.892   4.454 -0.0940 -0.0348 -0.2913
 1167loPI   GL118661  18.019   2.803   4.786  0.1565 -0.0404 -0.3026
 1167loPI   GL218662  18.319   2.972   4.972  0.1212  0.2790  0.1739
 1167loPI   C1A18663  18.211   2.577   5.212  0.2993  0.0840 -0.2464
 1167loPI   C2A18664  18.415   2.553   5.662  0.2837 -0.1606  0.0918
 1167loPI   C3A18665  18.573   2.703   6.142 -0.3240  0.2049 -0.3348
 1167loPI   C4A18666  18.688   2.732   6.660 -0.1884  0.0981  0.0712
 1167loPI   C5A18667  18.626   2.417   6.966 -0.0914  0.2472 -0.0028
 1167loPI   C6A18668  18.269   2.072   6.938  0.0182 -0.0242  0.0486
 1167loPI   C1B18669  18.310   3.142   5.339  0.0825  0.1223 -0.0733
 1167loPI   C2B18670  18.414   3.100   5.763  0.0552  0.1005 -0.0107
 1167loPI   C3B18671  18.348   3.363   6.036  0.1841 -0.4037  0.0461
 1167loPI   C4B18672  18.175   3.609   6.474 -0.1512  0.1737  0.0217
 1168loPI    C118673  11.305   7.069   4.410 -0.0784 -0.1122  0.1104
 1168loPI    C218674  11.566   7.118   4.111 -0.1148 -0.1010  0.0803
 1168loPI    C318675  11.448   7.433   4.326 -0.3394 -0.0563 -0.1049
 1168loPI   PO418676  11.302   6.894   4.526 -0.0724  0.1996  0.0546
 1168loPI   GL118677  11.477   6.626   4.827  0.0217 -0.0408  0.2005
 1168loPI   GL218678  11.513   6.294   5.045 -0.0271  0.1365 -0.0877
 1168loPI   C1A18679  11.313   6.690   5.259 -0.2018  0.1560  0.1861
 1168loPI   C2A18680  11.353   6.440   5.601  0.0555  0.1564  0.0595
 1168loPI   C3A18681  11.207   6.275   6.070  0.2845 -0.1506 -0.2655
 1168loPI   C4A18682  10.956   6.125   6.550 -0.1015  0.1560  0.0922
 1168loPI   C5A18683  11.123   5.971   7.031 -0.5051  0.2686 -0.3751
 1168loPI   C6A18684  11.140   5.954   7.500 -0.0129  0.1287  0.0543
 1168loPI   C1B18685  11.746   6.119   5.438  0.2068  0.1971  0.0674
 1168loPI   C2B18686  11.609   6.079   5.819  0.6077 -0.1387  0.5558
 1168loPI   C3B18687  11.839   5.992   6.228  0.3082 -0.0645 -0.0736
 1168loPI   C4B18688  12.043   6.318   6.485 -0.2917  0.1433 -0.1007
 1169loPI    C118689  13.739  11.128   4.774  0.0076  0.1569  0.1329
 1169loPI    C218690  13.907  11.282   4.446  0.1236  0.0296  0.1313
 1169loPI    C318691  13.533  11.382   4.545  0.1225  0.1447  0.0145
 1169loPI   PO418692  13.957  10.963   4.858  0.0847  0.3909  0.0408
 1169loPI   GL118693  14.153  11.056   5.166  0.2369  0.0114 -0.0964
 1169loPI   GL218694  14.448  11.009   5.300 -0.4335  0.1755 -0.2519
 1169loPI   C1A18695  14.073  10.696   5.516  0.1029 -0.1545 -0.1674
 1169loPI   C2A18696  14.114  10.330   5.774 -0.2559 -0.1299  0.3278
 1169loPI   C3A18697  14.160   9.991   6.092 -0.0286  0.2903 -0.0153
 1169loPI   C4A18698  14.192   9.683   6.462 -0.1325 -0.0971 -0.2169
 1169loPI   C5A18699  14.226   9.860   6.892 -0.0463 -0.0750  0.1200
 1169loPI   C6A18700  14.154  10.096   7.242 -0.3839  0.1529  0.1231
 1169loPI   C1B18701  14.744  11.118   5.641 -0.1460  0.2187  0.0606
 1169loPI   C2B18702  15.076  11.417   5.879  0.2208 -0.3541  0.0092
 1169loPI   C3B18703  15.251  11.390   6.297 -0.2542  0.1303  0.1546
 1169loPI   C4B18704  15.343  11.802   6.402 -0.1839 -0.3794  0.1559
 1170loPI    C118705  16.763   0.699   4.404  0.1093 -0.2612 -0.0851
 1170loPI    C218706  16.989   0.887   4.132 -0.0200 -0.0363 -0.0392
 1170loPI    C318707  16.614   0.780   4.042 -0.1305  0.2145  0.1113
 1170loPI   PO418708  16.722   0.814   4.573  0.0696  0.1555  0.0031
 1170loPI   GL118709  16.885   0.863   4.919  0.1123  0.0174  0.2441
 1170loPI   GL218710  16.988   0.531   4.905 -0.2534 -0.0286  0.0258
 1170loPI   C1A18711  17.110   0.924   5.301 -0.0355 -0.1953  0.2527
 1170loPI   C2A18712  16.972   1.099   5.660 -0.2194  0.0776  0.1824
 1170loPI   C3A18713  17.081   1.171   6.068 -0.1498  0.2140  0.0390
 1170loPI   C4A18714  16.883   1.071   6.449 -0.1306  0.1300 -0.0625
 1170loPI   C5A18715  17.031   1.279   6.781  0.0196 -0.3966  0.0902
 1170loPI   C6A18716  17.137   1.445   7.228  0.0513 -0.0769  0.1906
 1170loPI   C1B18717  17.140   0.381   5.311 -0.1019  0.2430  0.0803
 1170loPI   C2B18718  17.164   0.101   5.715 -0.0571 -0.1822  0.3597
 1170loPI   C3B18719  17.091   0.025   6.085 -0.0379  0.0123 -0.0156
 1170loPI   C4B18720  17.041  -0.054   6.559 -0.0758  0.3904  0.0924
 1171loPI    C118721   9.536  17.582   4.110 -0.1320 -0.0872 -0.0655
 1171loPI    C218722   9.873  17.746   3.969 -0.1166  0.0047  0.0761
 1171loPI    C318723   9.642  17.525   3.728  0.0912 -0.1349  0.0019
 1171loPI   PO418724   9.556  17.536   4.298 -0.1771  0.0027 -0.0730
 1171loPI   GL118725   9.711  17.312   4.692  0.0644  0.1652  0.0725
 1171loPI   GL218726   9.880  17.033   4.692  0.0622  0.2362 -0.0351
 1171loPI   C1A18727   9.658  17.566   5.116  0.0294  0.2812 -0.2151
 1171loPI   C2A18728   9.569  17.350   5.530  0.0178  0.3877 -0.1263
 1171loPI   C3A18729   9.173  17.438   5.771 -0.0768  0.0710 -0.0213
 1171loPI   C4A18730   8.991  17.770   5.986  0.0314 -0.2316 -0.2537
 1171loPI   C5A18731   8.894  17.868   6.334  0.0778  0.2372  0.0623
 1171loPI   C6A18732   8.992  18.176   6.726 -0.0893 -0.0241 -0.1831
 1171loPI   C1B18733   9.911  17.118   5.115 -0.0030 -0.0027  0.0248
 1171loPI   C2B18734  10.055  17.469   5.430  0.0714  0.3391 -0.0989
 1171loPI   C3B18735  10.380  17.555   5.639 -0.0725  0.2256 -0.1064
 1171loPI   C4B18736  10.678  17.744   5.982  0.1362 -0.0727  0.1328
 1172loPI    C118737   5.210   6.937   4.552  0.0123  0.0951  0.0512
 1172loPI    C218738   5.101   7.185   4.258  0.1723  0.0624 -0.0370
 1172loPI    C318739   5.471   7.203   4.408  0.1332 -0.0124  0.0701
 1172loPI   PO418740   5.010   6.961   4.660  0.0582 -0.0552 -0.1499
 1172loPI   GL118741   4.932   7.171   4.960 -0.1158 -0.4209 -0.0111
 1172loPI   GL218742   5.260   7.328   5.044  0.3082 -0.0767  0.2263
 1172loPI   C1A18743   4.830   7.418   5.342  0.0350  0.2290 -0.0818
 1172loPI   C2A18744   4.443   7.504   5.604  0.2617 -0.0477  0.0847
 1172loPI   C3A18745   4.171   7.780   5.888  0.0674  0.0982 -0.0718
 1172loPI   C4A18746   4.233   7.765   6.401 -0.0007  0.1174  0.0499
 1172loPI   C5A18747   4.375   7.783   6.688  0.3539 -0.2667  0.3804
 1172loPI   C6A18748   4.625   7.716   7.033  0.0113 -0.0380  0.2459
 1172loPI   C1B18749   5.338   7.278   5.369 -0.1455 -0.0347  0.0036
 1172loPI   C2B18750   5.289   7.168   5.755  0.3047 -0.1352  0.0383
 1172loPI   C3B18751   5.047   6.953   6.135  0.1820 -0.0785  0.0006
 1172loPI   C4B18752   4.653   6.913   6.269  0.2627  0.0776  0.0759
 1173loPI    C118753   7.221   6.887   4.439  0.0649 -0.0365 -0.0750
 1173loPI    C218754   7.511   7.053   4.220  0.0974 -0.3250 -0.2553
 1173loPI    C318755   7.128   7.115   4.124  0.1024 -0.1348 -0.1576
 1173loPI   PO418756   7.401   6.813   4.701 -0.3060 -0.1203 -0.3056
 1173loPI   GL118757   7.294   6.733   5.031 -0.0266  0.1491  0.3010
 1173loPI   GL218758   7.424   6.411   5.068 -0.2888  0.1556  0.1631
 1173loPI   C1A18759   7.335   6.673   5.526  0.0774  0.0061 -0.0368
 1173loPI   C2A18760   7.417   6.915   5.920 -0.3652 -0.2389  0.3975
 1173loPI   C3A18761   7.612   6.752   6.400 -0.0180 -0.1009 -0.0165
 1173loPI   C4A18762   7.577   6.617   6.777 -0.0089 -0.2625  0.0562
 1173loPI   C5A18763   7.677   6.435   7.104  0.0441  0.1774 -0.0739
 1173loPI   C6A18764   7.308   6.185   7.312 -0.2274 -0.0048 -0.4405
 1173loPI   C1B18765   7.100   6.262   5.390  0.2194  0.1373 -0.0106
 1173loPI   C2B18766   7.022   6.045   5.764  0.0862  0.0493  0.1959
 1173loPI   C3B18767   6.943   6.112   6.137  0.0079 -0.0038  0.0213
 1173loPI   C4B18768   6.774   6.225   6.558  0.0487 -0.2005 -0.2727
 1174loPI    C118769  14.219  14.337   4.362 -0.1181 -0.0176 -0.0420
 1174loPI    C218770  14.160  13.942   4.357  0.2162 -0.0748  0.1640
 1174loPI    C318771  14.472  14.100   4.162  0.0527  0.0956  0.0367
 1174loPI   PO418772  14.181  14.419   4.607  0.4098 -0.1450 -0.1789
 1174loPI   GL118773  14.106  14.738   4.908  0.1719  0.0566  0.0209
 1174loPI   GL218774  13.948  14.498   5.112 -0.0170 -0.0892  0.2605
 1174loPI   C1A18775  14.321  14.829   5.265 -0.1673 -0.2480  0.0163
 1174loPI   C2A18776  14.375  14.760   5.645  0.0379  0.0661  0.1426
 1174loPI   C3A18777  14.397  14.609   6.072 -0.3018 -0.0035  0.3859
 1174loPI   C4A18778  14.273  14.242   6.323  0.2820 -0.4243 -0.2637
 1174loPI   C5A18779  14.063  13.881   6.535  0.1848 -0.1230  0.0155
 1174loPI   C6A18780  13.740  13.621   6.678  0.3752  0.1929  0.4475
 1174loPI   C1B18781  14.183  14.299   5.465  0.0293  0.0610 -0.1052
 1174loPI   C2B18782  14.312  14.193   5.861  0.4974 -0.1014  0.0043
 1174loPI   C3B18783  14.720  14.241   5.951 -0.0201  0.1973 -0.3395
 1174loPI   C4B18784  15.127  14.173   5.977  0.1218 -0.3469  0.3706
 1175loPI    C118785  12.062   6.620   4.264 -0.0029  0.1131  0.1691
 1175loPI    C218786  11.767   6.585   3.997  0.1172  0.2186  0.0211
 1175loPI    C318787  12.146   6.533   3.883  0.1705  0.2798  0.1681
 1175loPI   PO418788  11.965   6.460   4.505  0.3945  0.1663 -0.1130
 1175loPI   GL118789  11.941   6.638   4.928  0.3405  0.1260  0.0731
 1175loPI   GL218790  12.030   6.312   5.050 -0.1409  0.1003  0.3621
 1175loPI   C1A18791  11.823   6.586   5.337  0.1420 -0.1326 -0.1788
 1175loPI   C2A18792  11.910   6.532   5.661 -0.0562  0.1748 -0.0190
 1175loPI   C3A18793  11.760   6.502   6.113  0.3228  0.1391  0.1308
 1175loPI   C4A18794  11.588   6.528   6.547  0.0552  0.1284  0.1632
 1175loPI   C5A18795  11.632   6.617   6.947 -0.1167 -0.2603  0.0142
 1175loPI   C6A18796  11.267   6.935   7.015  0.1182 -0.0842 -0.4498
 1175loPI   C1B18797  12.242   6.274   5.330  0.0465 -0.4084  0.1435
 1175loPI   C2B18798  12.261   6.212   5.747 -0.0006  0.0622  0.1232
 1175loPI   C3B18799  12.345   6.003   6.136 -0.0798  0.2893 -0.1570
 1175loPI   C4B18800  12.747   5.786   6.430  0.2483  0.3627 -0.0701
 1176loPI    C118801   8.503  13.352   5.050 -0.2129 -0.1177 -0.0328
 1176loPI    C218802   8.767  13.362   4.750 -0.0461 -0.0223  0.1147
 1176loPI    C318803   8.390  13.247   4.681 -0.0398  0.1092 -0.1529
 1176loPI   PO418804   8.652  13.575   5.160  0.1807 -0.0763  0.1194
 1176loPI   GL118805   8.960  13.704   5.427 -0.1666  0.4141 -0.0381
 1176loPI   GL218806   8.906  13.452   5.655 -0.0004 -0.0693  0.2248
 1176loPI   C1A18807   9.047  14.007   5.785  0.2253 -0.0777 -0.0348
 1176loPI   C2A18808   9.140  14.288   6.267 -0.1349  0.2032  0.3820
 1176loPI   C3A18809   9.069  14.664   6.586  0.2638  0.2728 -0.0483
 1176loPI   C4A18810   9.238  15.032   6.577 -0.3045 -0.0208 -0.1382
 1176loPI   C5A18811   9.724  15.259   6.558 -0.0011 -0.0827  0.0044
 1176loPI   C6A18812   9.980  14.932   6.536  0.0983 -0.3089 -0.1461
 1176loPI   C1B18813   8.601  13.376   5.918 -0.1916 -0.0782 -0.1957
 1176loPI   C2B18814   8.434  13.344   6.349 -0.0823  0.4832  0.0704
 1176loPI   C3B18815   8.197  13.149   6.667  0.0948  0.0557 -0.1575
 1176loPI   C4B18816   7.789  13.295   6.895  0.0116  0.3418  0.0585
 1177loPI    C118817  10.143   1.130   4.358 -0.1693 -0.0199  0.0411
 1177loPI    C218818  10.376   1.207   4.043  0.2453 -0.5742  0.1976
 1177loPI    C318819   9.985   1.143   3.991  0.2115 -0.1450 -0.1321
 1177loPI   PO418820  10.364   0.980   4.496  0.1434 -0.1934  0.3495
 1177loPI   GL118821  10.671   1.137   4.844 -0.1014  0.0815  0.3212
 1177loPI   GL218822  10.672   0.743   4.713 -0.2376  0.1275 -0.1142
 1177loPI   C1A18823  10.602   0.884   5.265  0.0225  0.0776 -0.3329
 1177loPI   C2A18824  10.657   0.664   5.722  0.0366  0.0702 -0.0488
 1177loPI   C3A18825  10.718   0.283   6.023 -0.2805 -0.2279  0.3544
 1177loPI   C4A18826  10.819   0.212   6.415 -0.2485 -0.0727  0.1084
 1177loPI   C5A18827  11.187   0.105   6.735  0.0793 -0.0612  0.1020
 1177loPI   C6A18828  11.285   0.246   7.163  0.4008 -0.3262 -0.1463
 1177loPI   C1B18829  11.030   0.830   5.060 -0.0663  0.0957  0.2879
 1177loPI   C2B18830  11.144   0.895   5.507 -0.0421 -0.4206 -0.3973
 1177loPI   C3B18831  11.010   0.902   5.915 -0.2986  0.2412 -0.1965
 1177loPI   C4B18832  10.938   0.674   6.250  0.0110 -0.1696 -0.2771
 1178loPI    C118833   8.232  15.901   4.659  0.0334 -0.0480 -0.0306
 1178loPI    C218834   8.305  16.124   4.335 -0.1132  0.0798  0.0230
 1178loPI    C318835   8.406  15.737   4.338  0.1468  0.1443 -0.0695
 1178loPI   PO418836   8.306  15.989   4.857 -0.2869 -0.0829  0.0249
 1178loPI   GL118837   8.721  16.167   5.207  0.0946  0.0443  0.0667
 1178loPI   GL218838   8.927  16.371   5.169 -0.0030  0.0441  0.2452
 1178loPI   C1A18839   8.342  16.063   5.522  0.1804 -0.5280 -0.2366
 1178loPI   C2A18840   8.208  16.193   5.969 -0.0878 -0.3905 -0.0763
 1178loPI   C3A18841   8.478  16.332   6.336  0.0071 -0.0457  0.1810
 1178loPI   C4A18842   8.929  16.299   6.516  0.1304 -0.0925  0.1786
 1178loPI   C5A18843   9.010  16.234   6.971  0.1648  0.0151  0.1885
 1178loPI   C6A18844   9.036  15.886   7.338  0.0585 -0.1329  0.0756
 1178loPI   C1B18845   9.153  16.510   5.580 -0.0560 -0.1142 -0.0528
 1178loPI   C2B18846   9.522  16.598   5.730 -0.0183  0.2047  0.3653
 1178loPI   C3B18847   9.723  16.709   6.120  0.2473  0.0503  0.1088
 1178loPI   C4B18848   9.740  16.908   6.623 -0.0665  0.3893 -0.1551
 1179loPI    C118849   5.040   0.300   4.251  0.1133 -0.0060  0.1774
 1179loPI    C218850   4.784   0.411   3.965 -0.0955 -0.1972  0.2861
 1179loPI    C318851   5.169   0.515   3.940 -0.1290 -0.1347 -0.0164
 1179loPI   PO418852   4.932   0.448   4.464  0.0164 -0.1980 -0.2689
 1179loPI   GL118853   4.822   0.756   4.728  0.3898 -0.4692 -0.0985
 1179loPI   GL218854   4.473   0.701   4.896  0.1342 -0.1835  0.2848
 1179loPI   C1A18855   5.229   0.859   4.994 -0.1540 -0.0856 -0.0318
 1179loPI   C2A18856   5.472   0.938   5.433  0.0771 -0.1304 -0.2026
 1179loPI   C3A18857   5.741   0.925   5.817  0.0291  0.1243  0.1643
 1179loPI   C4A18858   5.647   0.732   6.308 -0.0700 -0.1506  0.2329
 1179loPI   C5A18859   5.374   0.942   6.646  0.2460  0.0994  0.0023
 1179loPI   C6A18860   5.416   0.977   7.083 -0.1547  0.0261  0.3713
 1179loPI   C1B18861   4.759   0.641   5.231 -0.2072 -0.0000 -0.1219
 1179loPI   C2B18862   5.105   0.521   5.441  0.0076 -0.0838  0.2449
 1179loPI   C3B18863   5.275   0.634   5.797 -0.2634 -0.0586  0.3518
 1179loPI   C4B18864   5.244   0.377   6.173 -0.1595  0.0297  0.0792
 1180loPI    C118865   7.448   0.607   4.414 -0.1124 -0.0287 -0.1105
 1180loPI    C218866   7.791   0.435   4.525 -0.3195 -0.1246  0.4117
 1180loPI    C318867   7.453   0.222   4.521 -0.3491 -0.0863 -0.2984
 1180loPI   PO418868   7.504   0.975   4.462 -0.0183  0.0195  0.1326
 1180loPI   GL118869   7.300   1.124   4.804 -0.0212 -0.6594 -0.0472
 1180loPI   GL218870   7.603   1.374   4.884 -0.1955  0.4115 -0.0096
 1180loPI   C1A18871   7.371   1.106   5.219 -0.1836 -0.1088  0.2615
 1180loPI   C2A18872   7.391   0.972   5.603  0.3996  0.3085  0.2539
 1180loPI   C3A18873   7.339   1.127   5.867 -0.2224  0.2550 -0.1319
 1180loPI   C4A18874   7.037   1.382   5.954 -0.1381  0.3330 -0.1161
 1180loPI   C5A18875   6.719   1.583   5.852 -0.1665  0.2784 -0.1666
 1180loPI   C6A18876   6.550   1.832   5.460 -0.0836  0.2624  0.0745
 1180loPI   C1B18877   7.882   1.209   5.193 -0.1705  0.2679 -0.0471
 1180loPI   C2B18878   7.860   1.200   5.728 -0.1468 -0.1358 -0.1885
 1180loPI   C3B18879   7.883   1.307   6.112  0.0870 -0.3965  0.0634
 1180loPI   C4B18880   8.023   1.257   6.521  0.2892 -0.1080 -0.3029
 1181loPI    C118881   3.577  13.712   4.951  0.1846  0.0274 -0.1302
 1181loPI    C218882   3.270  13.839   5.174  0.0743 -0.3332 -0.0693
 1181loPI    C318883   3.208  13.573   4.882  0.2453  0.0044 -0.4226
 1181loPI   PO418884   3.703  13.911   4.895 -0.3270 -0.1582  0.0553
 1181loPI   GL118885   3.858  14.082   5.308  0.0033  0.1265  0.0704
 1181loPI   GL218886   3.646  14.171   5.328 -0.1751 -0.0747 -0.0364
 1181loPI   C1A18887   4.142  14.009   5.646 -0.1890  0.3049 -0.0615
 1181loPI   C2A18888   4.116  14.223   6.106 -0.0350  0.0415  0.0857
 1181loPI   C3A18889   3.986  14.046   6.548 -0.0565  0.1196 -0.0680
 1181loPI   C4A18890   3.871  13.962   6.959  0.2597  0.0960 -0.3161
 1181loPI   C5A18891   3.596  13.748   7.314 -0.2543 -0.4299 -0.0943
 1181loPI   C6A18892   3.451  13.745   7.764 -0.1232 -0.3374  0.1535
 1181loPI   C1B18893   3.521  13.942   5.654 -0.4115  0.2042 -0.0997
 1181loPI   C2B18894   3.576  13.857   6.140 -0.1934  0.0774 -0.0371
 1181loPI   C3B18895   3.539  13.815   6.550  0.3083 -0.0182  0.1081
 1181loPI   C4B18896   3.553  13.391   6.851  0.1457 -0.3683 -0.0762
 1182loPI    C118897  17.142   5.884   4.206  0.1261 -0.0068 -0.0678
 1182loPI    C218898  17.536   5.843   4.264  0.1637  0.0632 -0.2663
 1182loPI    C318899  17.388   5.847   3.892 -0.0391 -0.0899 -0.1889
 1182loPI   PO418900  16.986   6.123   4.351  0.0225 -0.0732 -0.0822
 1182loPI   GL118901  16.864   6.108   4.726  0.0875  0.1226  0.0105
 1182loPI   GL218902  16.894   5.874   4.987 -0.1916 -0.3765 -0.0825
 1182loPI   C1A18903  16.841   6.310   5.107 -0.1003 -0.0570 -0.2212
 1182loPI   C2A18904  16.627   6.162   5.511  0.0340 -0.3777  0.2088
 1182loPI   C3A18905  16.411   6.237   5.843  0.1619 -0.1002  0.0559
 1182loPI   C4A18906  16.175   6.220   6.202 -0.3188 -0.1934  0.2945
 1182loPI   C5A18907  15.939   6.286   6.605 -0.4516  0.0768 -0.0413
 1182loPI   C6A18908  15.765   6.543   6.895 -0.2158  0.0135 -0.1095
 1182loPI   C1B18909  16.996   5.845   5.393 -0.2159  0.1262 -0.1758
 1182loPI   C2B18910  17.048   5.917   5.910  0.0408 -0.2695  0.1020
 1182loPI   C3B18911  16.976   5.901   6.310 -0.0630 -0.1194  0.0301
 1182loPI   C4B18912  16.905   5.640   6.672  0.0649  0.1231  0.2715
 1183loPI    C118913  11.026   1.901   4.464  0.1364 -0.1099  0.0597
 1183loPI    C218914  11.337   1.966   4.221  0.1896 -0.2963  0.0757
 1183loPI    C318915  11.025   1.751   4.093 -0.0292  0.0628 -0.0116
 1183loPI   PO418916  11.039   1.699   4.734  0.2597 -0.5841  0.0639
 1183loPI   GL118917  11.010   1.619   5.068 -0.0480 -0.1780  0.0602
 1183loPI   GL218918  10.790   1.498   5.142 -0.0901  0.0747  0.3176
 1183loPI   C1A18919  11.430   1.832   5.307  0.1332 -0.3031  0.2875
 1183loPI   C2A18920  11.534   1.957   5.718  0.1832  0.0032  0.0145
 1183loPI   C3A18921  11.647   2.125   6.118 -0.2886 -0.0944  0.1901
 1183loPI   C4A18922  11.560   2.521   6.317  0.1042 -0.0260 -0.1182
 1183loPI   C5A18923  11.605   2.690   6.689 -0.2355  0.1254 -0.2796
 1183loPI   C6A18924  11.522   2.984   7.010  0.2287 -0.1275 -0.2506
 1183loPI   C1B18925  10.911   1.447   5.540 -0.0844  0.0503 -0.2539
 1183loPI   C2B18926  10.985   1.379   5.917 -0.2932 -0.2467 -0.1838
 1183loPI   C3B18927  11.313   1.231   6.239  0.0938 -0.0889 -0.1278
 1183loPI   C4B18928  11.569   1.233   6.564  0.0703  0.0564  0.3268
 1184loPI    C118929   0.720  19.660   4.300  0.0915 -0.2867 -0.0128
 1184loPI    C218930   0.486  19.738   3.986  0.1915  0.1195  0.0084
 1184loPI    C318931   0.731  19.422   3.979 -0.1488 -0.1477 -0.1260
 1184loPI   PO418932   0.433  19.669   4.521 -0.0172 -0.0675 -0.2286
 1184loPI   GL118933   0.314  19.796   4.810  0.2799  0.0776  0.2805
 1184loPI   GL218934   0.044  19.987   4.739  0.3306 -0.4903 -0.0342
 1184loPI   C1A18935   0.094  19.657   5.119  0.2562  0.0318  0.0508
 1184loPI   C2A18936   0.369  19.758   5.636  0.1052  0.0770 -0.1185
 1184loPI   C3A18937   0.513  19.598   5.984  0.2487 -0.2684  0.0476
 1184loPI   C4A18938   0.411  19.577   6.382 -0.0372  0.0710 -0.2765
 1184loPI   C5A18939   0.263  19.391   6.756  0.2710 -0.1183 -0.0038
 1184loPI   C6A18940   0.372  19.080   7.134 -0.0135  0.0465 -0.1827
 1184loPI   C1B18941  -0.031  20.087   5.116  0.4413  0.0823  0.1277
 1184loPI   C2B18942   0.051  20.205   5.634  0.2315 -0.1619  0.0249
 1184loPI   C3B18943  -0.009  20.354   6.138 -0.1526 -0.3675  0.1625
 1184loPI   C4B18944   0.259  20.656   6.424 -0.1453  0.0527 -0.1501
 1185loPI    C118945  15.859  17.312   4.151  0.0415  0.2465  0.1251
 1185loPI    C218946  16.131  17.405   3.873 -0.1137  0.1181 -0.0732
 1185loPI    C318947  15.741  17.439   3.790 -0.1639 -0.1100  0.0621
 1185loPI   PO418948  15.986  17.466   4.381 -0.1552 -0.3298  0.3027
 1185loPI   GL118949  15.961  17.593   4.805 -0.2885  0.0746 -0.1505
 1185loPI   GL218950  16.127  17.893   4.654  0.0922  0.1382  0.0095
 1185loPI   C1A18951  15.873  17.592   5.241  0.0641  0.0262 -0.0839
 1185loPI   C2A18952  15.877  17.702   5.651 -0.2473  0.2572  0.1806
 1185loPI   C3A18953  15.865  17.691   6.059 -0.0106 -0.0604  0.0178
 1185loPI   C4A18954  16.123  17.836   6.317  0.1177 -0.2608 -0.0358
 1185loPI   C5A18955  16.150  18.156   6.568  0.1095  0.3825 -0.2747
 1185loPI   C6A18956  16.151  18.261   7.094  0.2835 -0.1122  0.3080
 1185loPI   C1B18957  16.092  18.131   5.122  0.0187  0.0409 -0.0708
 1185loPI   C2B18958  15.975  18.172   5.527 -0.0936 -0.0578 -0.0377
 1185loPI   C3B18959  15.979  18.160   5.947  0.0406  0.1809  0.1726
 1185loPI   C4B18960  15.622  18.105   6.278 -0.2082 -0.0167  0.0165
 1186loPI    C118961  18.650   8.033   4.545 -0.0546 -0.1159  0.0126
 1186loPI    C218962  18.322   7.989   4.320 -0.0833  0.0001  0.0312
 1186loPI    C318963  18.673   8.076   4.148 -0.0884  0.0050  0.0235
 1186loPI   PO418964  18.576   7.851   4.795  0.0213 -0.0029  0.1790
 1186loPI   GL118965  18.334   7.871   5.185  0.1403 -0.0832  0.1426
 1186loPI   GL218966  18.028   7.873   5.120  0.2635 -0.3369  0.0926
 1186loPI   C1A18967  18.321   7.657   5.529  0.0314 -0.2415 -0.1581
 1186loPI   C2A18968  18.554   7.391   5.714 -0.1564 -0.1932 -0.1832
 1186loPI   C3A18969  18.674   7.438   6.050 -0.1354 -0.1646  0.1543
 1186loPI   C4A18970  18.569   7.415   6.496  0.0192  0.1485  0.2650
 1186loPI   C5A18971  18.599   7.235   6.816 -0.3362 -0.1971 -0.0487
 1186loPI   C6A18972  18.315   7.334   7.139  0.2381  0.1589  0.1788
 1186loPI   C1B18973  18.033   8.146   5.430 -0.1358 -0.1615 -0.2186
 1186loPI   C2B18974  17.890   8.056   5.758 -0.1017 -0.0035 -0.2849
 1186loPI   C3B18975  17.870   8.033   6.238 -0.0918  0.0365 -0.0276
 1186loPI   C4B18976  17.611   7.840   6.637 -0.1340  0.1699  0.1501
 1187loPI    C118977   7.209   9.880   4.841  0.5067  0.0315 -0.1741
 1187loPI    C218978   7.074   9.700   4.510  0.3088  0.0708 -0.1162
 1187loPI    C318979   7.251  10.058   4.485  0.0658  0.1900 -0.1529
 1187loPI   PO418980   7.333   9.612   4.983 -0.1285  0.1921 -0.1574
 1187loPI   GL118981   7.290   9.279   5.224 -0.0711 -0.0255  0.3298
 1187loPI   GL218982   6.922   9.211   5.406 -0.0198 -0.0063 -0.0769
 1187loPI   C1A18983   7.444   9.217   5.662 -0.0179 -0.3202 -0.0435
 1187loPI   C2A18984   7.772   9.337   5.945 -0.0746  0.1976 -0.0363
 1187loPI   C3A18985   8.058   9.378   6.242  0.0963  0.0767 -0.1845
 1187loPI   C4A18986   8.208   9.396   6.636 -0.0179  0.1819 -0.0606
 1187loPI   C5A18987   8.221   9.517   7.057 -0.1797 -0.1026 -0.0376
 1187loPI   C6A18988   8.711   9.545   7.188  0.1701  0.0081  0.0457
 1187loPI   C1B18989   6.890   9.047   5.883  0.2463  0.0077  0.2810
 1187loPI   C2B18990   6.860   9.130   6.359 -0.4152 -0.1692  0.3286
 1187loPI   C3B18991   6.861   9.363   6.736  0.1193  0.0873  0.0922
 1187loPI   C4B18992   6.841   9.329   7.187 -0.1135  0.0790  0.1254
 1188loPI    C118993   9.406  13.018   4.979 -0.1677 -0.0839 -0.0228
 1188loPI    C218994   9.703  13.274   5.056  0.0257 -0.3246  0.0436
 1188loPI    C318995   9.702  13.066   4.715 -0.2090 -0.1294 -0.0778
 1188loPI   PO418996   9.427  12.901   5.209 -0.0822 -0.2882 -0.1817
 1188loPI   GL118997   9.682  13.077   5.475 -0.1880  0.0751 -0.1888
 1188loPI   GL218998   9.927  12.951   5.500  0.1200 -0.3968 -0.1392
 1188loPI   C1A18999   9.517  13.097   5.879 -0.0564  0.1494  0.0817
 1188loPI   C2A19000   9.600  13.045   6.333 -0.0604 -0.4116  0.0435
 1188loPI   C3A19001   9.623  12.899   6.804 -0.0597  0.3364  0.0387
 1188loPI   C4A19002   9.683  12.725   7.142  0.4022 -0.0805  0.2503
 1188loPI   C5A19003   9.748  12.587   7.568 -0.2581  0.0930  0.0130
 1188loPI   C6A19004   9.724  12.283   7.775 -0.0597 -0.0176  0.0504
 1188loPI   C1B19005  10.030  12.844   5.947 -0.0948 -0.2459  0.0647
 1188loPI   C2B19006  10.418  12.985   6.200 -0.1983  0.0807  0.0818
 1188loPI   C3B19007  10.549  13.040   6.634 -0.1454 -0.0475  0.1038
 1188loPI   C4B19008  10.747  12.910   7.041  0.3544 -0.2243  0.1351
 1189loPI    C119009   0.383  18.542   4.337  0.1017  0.0476  0.1204
 1189loPI    C219010   0.488  18.866   4.129 -0.2320 -0.0606 -0.2281
 1189loPI    C319011   0.661  18.514   4.051  0.0941  0.0177  0.1159
 1189loPI   PO419012   0.381  18.645   4.613 -0.1788  0.1224  0.0667
 1189loPI   GL119013   0.513  18.912   4.913 -0.0402  0.3110 -0.1358
 1189loPI   GL219014   0.244  18.859   5.037 -0.1627 -0.1211  0.2400
 1189loPI   C1A19015   0.767  18.960   5.292  0.1265  0.0681  0.3302
 1189loPI   C2A19016   1.183  18.953   5.522  0.2249 -0.3487 -0.1434
 1189loPI   C3A19017   1.366  18.751   5.845 -0.0011 -0.3193  0.1679
 1189loPI   C4A19018   1.369  18.745   6.301  0.0403 -0.0907  0.0056
 1189loPI   C5A19019   1.408  18.984   6.707 -0.3031  0.0347 -0.0462
 1189loPI   C6A19020   1.442  19.330   6.913  0.1042 -0.0384 -0.2965
 1189loPI   C1B19021   0.314  18.833   5.532  0.0187 -0.0181 -0.3761
 1189loPI   C2B19022   0.390  18.538   5.981 -0.3318 -0.0991 -0.2031
 1189loPI   C3B19023   0.370  18.532   6.387  0.2025 -0.1598  0.2166
 1189loPI   C4B19024   0.224  18.748   6.785  0.0804 -0.1440 -0.4744
 1190loPI    C119025  19.710  17.370   3.876 -0.2166 -0.2785  0.0044
 1190loPI    C219026  19.977  17.228   3.615  0.0540 -0.2330  0.2509
 1190loPI    C319027  19.647  17.412   3.483  0.1549 -0.2662 -0.0570
 1190loPI   PO419028  19.804  17.249   4.212  0.0909 -0.1054  0.0682
 1190loPI   GL119029  19.602  17.483   4.595 -0.2444 -0.2468  0.1458
 1190loPI   GL219030  19.840  17.684   4.758  0.4978  0.2275  0.0314
 1190loPI   C1A19031  19.676  17.177   4.939  0.0435 -0.2180  0.0505
 1190loPI   C2A19032  19.521  16.986   5.234 -0.2292 -0.1269 -0.2292
 1190loPI   C3A19033  19.439  16.973   5.745 -0.0070  0.0698 -0.0599
 1190loPI   C4A19034  19.407  16.825   6.205 -0.1452 -0.2583  0.1434
 1190loPI   C5A19035  19.601  16.743   6.600  0.1924  0.1129  0.3558
 1190loPI   C6A19036  19.859  16.644   6.975 -0.0544  0.2439  0.3006
 1190loPI   C1B19037  20.037  17.763   5.098 -0.4335  0.2245  0.0189
 1190loPI   C2B19038  20.034  17.769   5.512 -0.0704 -0.1548 -0.0374
 1190loPI   C3B19039  20.098  17.616   5.865  0.1575  0.0328  0.0777
 1190loPI   C4B19040  19.912  17.684   6.348 -0.0923  0.1063 -0.1207
 1191loPI    C119041   0.502  10.110   4.508 -0.0081 -0.0555 -0.0256
 1191loPI    C219042   0.826   9.982   4.312 -0.1367 -0.1414 -0.1848
 1191loPI    C319043   0.466   9.958   4.140 -0.2354 -0.0985  0.0129
 1191loPI   PO419044   0.470  10.063   4.720  0.1308  0.0615  0.2466
 1191loPI   GL119045   0.587  10.186   5.114  0.0621 -0.0268 -0.1084
 1191loPI   GL219046   0.864  10.208   5.145  0.1692 -0.0301 -0.1514
 1191loPI   C1A19047   0.639  10.088   5.582  0.2061 -0.3820  0.1152
 1191loPI   C2A19048   0.566  10.267   5.921 -0.1436  0.1986 -0.0126
 1191loPI   C3A19049   0.377  10.295   6.331 -0.0663  0.0382 -0.1360
 1191loPI   C4A19050   0.281  10.250   6.681  0.4622  0.0747  0.1942
 1191loPI   C5A19051   0.053  10.391   7.085  0.1801  0.3126  0.0603
 1191loPI   C6A19052  -0.226  10.742   7.049  0.0968 -0.1257  0.0372
 1191loPI   C1B19053   1.175  10.289   5.482 -0.3660  0.0226 -0.1258
 1191loPI   C2B19054   1.400  10.569   5.583 -0.1535  0.0705 -0.1646
 1191loPI   C3B19055   1.717  10.894   5.646  0.1505 -0.0856 -0.2007
 1191loPI   C4B19056   1.944  10.955   6.049  0.0151  0.1649 -0.0246
 1192loPI    C119057  17.896  16.786   4.598 -0.1471 -0.0095 -0.0626
 1192loPI    C219058  17.747  17.006   4.299  0.2374  0.0856 -0.1904
 1192loPI    C319059  18.044  16.747   4.228 -0.0048 -0.2588  0.0181
 1192loPI   PO419060  17.696  16.818   4.777 -0.1999  0.4028  0.0275
 1192loPI   GL119061  17.516  17.046   5.104 -0.0628  0.2969 -0.2513
 1192loPI   GL219062  17.241  16.784   5.139 -0.3014  0.2213  0.1945
 1192loPI   C1A19063  17.241  17.344   5.337  0.0021  0.2203 -0.2271
 1192loPI   C2A19064  17.366  17.538   5.601  0.2717  0.0759  0.0938
 1192loPI   C3A19065  17.253  17.635   6.000  0.1526  0.0847  0.1571
 1192loPI   C4A19066  17.090  17.748   6.378 -0.1182 -0.2263  0.0074
 1192loPI   C5A19067  17.142  17.965   6.693 -0.0281 -0.0149  0.0862
 1192loPI   C6A19068  17.347  18.347   6.824 -0.0069 -0.1845  0.0588
 1192loPI   C1B19069  17.244  16.831   5.544 -0.1670  0.0387  0.0525
 1192loPI   C2B19070  17.261  17.144   5.851 -0.2181 -0.3765 -0.2694
 1192loPI   C3B19071  17.094  17.237   6.259 -0.0458  0.1280  0.1040
 1192loPI   C4B19072  16.796  17.324   6.514 -0.0832 -0.2591  0.2388
 1193loPI    C119073   9.652  16.441   4.082  0.2190  0.1745  0.0200
 1193loPI    C219074   9.383  16.258   3.848  0.2741  0.0232  0.0741
 1193loPI    C319075   9.486  16.637   3.776 -0.0771  0.1366  0.1528
 1193loPI   PO419076   9.573  16.450   4.417 -0.0369  0.0689 -0.0881
 1193loPI   GL119077   9.531  16.585   4.782 -0.2726 -0.0575  0.0651
 1193loPI   GL219078   9.794  16.547   4.867  0.1415  0.1542 -0.2250
 1193loPI   C1A19079   9.471  16.335   5.135 -0.1058  0.0408 -0.0523
 1193loPI   C2A19080   9.500  16.097   5.504  0.0933 -0.2820  0.0064
 1193loPI   C3A19081   9.359  16.097   5.945  0.0298 -0.0907  0.1691
 1193loPI   C4A19082   9.436  16.088   6.443 -0.0804  0.2511  0.3104
 1193loPI   C5A19083   9.496  16.134   6.851  0.1461  0.1102  0.1492
 1193loPI   C6A19084   9.423  16.167   7.394 -0.1333  0.3238  0.3348
 1193loPI   C1B19085   9.884  16.659   5.312 -0.0008 -0.0295 -0.0204
 1193loPI   C2B19086   9.881  16.894   5.622  0.3190  0.5476  0.3617
 1193loPI   C3B19087   9.881  17.263   5.913  0.0601 -0.3676  0.1574
 1193loPI   C4B19088   9.669  17.296   6.216 -0.0191  0.0477  0.0907
 1194loPI    C119089  14.719  15.684   3.964 -0.1212  0.0898  0.0739
 1194loPI    C219090  14.333  15.748   3.878 -0.0826 -0.0230 -0.1936
 1194loPI    C319091  14.619  15.896   3.640  0.0444  0.1589  0.0670
 1194loPI   PO419092  14.767  15.788   4.298 -0.1250  0.1061  0.1171
 1194loPI   GL119093  14.617  15.982   4.660 -0.2084 -0.0334 -0.1194
 1194loPI   GL219094  14.653  16.331   4.557 -0.2414 -0.6251  0.5375
 1194loPI   C1A19095  15.042  16.066   4.887  0.0811 -0.3393  0.1469
 1194loPI   C2A19096  14.976  16.146   5.328  0.1847 -0.2632 -0.1697
 1194loPI   C3A19097  14.842  16.175   5.777 -0.1025  0.1064  0.1385
 1194loPI   C4A19098  14.836  16.115   6.222 -0.1809  0.0746 -0.0518
 1194loPI   C5A19099  14.871  16.196   6.581 -0.4500  0.0843 -0.3206
 1194loPI   C6A19100  14.636  16.053   6.943  0.2676 -0.2417 -0.0150
 1194loPI   C1B19101  14.975  16.574   4.795 -0.0025 -0.3840  0.1184
 1194loPI   C2B19102  14.927  16.630   5.146  0.0977 -0.1505  0.1420
 1194loPI   C3B19103  14.892  16.704   5.544  0.0505  0.0050 -0.1302
 1194loPI   C4B19104  14.869  16.679   5.963 -0.1357 -0.1046  0.1012
 1195loPI    C119105  10.474  16.707   4.296  0.1510 -0.2062 -0.2296
 1195loPI    C219106  10.674  17.036   4.187 -0.1635  0.0522 -0.0486
 1195loPI    C319107  10.349  16.924   3.984 -0.0499 -0.1587 -0.1179
 1195loPI   PO419108  10.348  16.741   4.597 -0.1796 -0.0494  0.2776
 1195loPI   GL119109  10.291  16.752   5.000  0.4431 -0.0197  0.3863
 1195loPI   GL219110  10.415  17.000   5.009 -0.1753  0.1951 -0.3404
 1195loPI   C1A19111  10.426  16.576   5.433 -0.0812  0.2374 -0.0079
 1195loPI   C2A19112  10.619  16.352   5.783  0.1009  0.2383 -0.0353
 1195loPI   C3A19113  11.114  16.343   5.985  0.0456  0.1602 -0.1107
 1195loPI   C4A19114  11.210  16.318   6.366  0.3003 -0.0563  0.1665
 1195loPI   C5A19115  11.080  16.079   6.660 -0.2382  0.2770  0.1373
 1195loPI   C6A19116  11.132  15.657   6.823  0.3440  0.0183  0.3739
 1195loPI   C1B19117  10.517  17.060   5.527  0.5881 -0.2412 -0.2208
 1195loPI   C2B19118  10.369  17.146   5.904 -0.0005 -0.1808  0.1595
 1195loPI   C3B19119  10.189  17.514   6.189  0.1324  0.2038  0.0659
 1195loPI   C4B19120   9.848  17.771   6.418  0.2342 -0.0926  0.1710
 1196loPI    C119121   4.156  18.067   4.482 -0.0851  0.1412 -0.0568
 1196loPI    C219122   4.021  17.750   4.685 -0.0007 -0.0152 -0.2421
 1196loPI    C319123   3.856  17.848   4.334  0.0466  0.0811 -0.2378
 1196loPI   PO419124   4.203  18.225   4.692 -0.0658  0.0001 -0.2456
 1196loPI   GL119125   4.126  18.164   5.028 -0.0589  0.2062  0.0047
 1196loPI   GL219126   4.091  17.837   5.195  0.2098 -0.1027 -0.0368
 1196loPI   C1A19127   3.978  18.373   5.378  0.0681 -0.0596  0.1104
 1196loPI   C2A19128   4.022  18.745   5.652 -0.0565 -0.0896  0.0809
 1196loPI   C3A19129   4.276  18.897   5.995  0.1425  0.0306 -0.0922
 1196loPI   C4A19130   4.354  19.032   6.408 -0.1662 -0.1725 -0.4883
 1196loPI   C5A19131   4.311  18.841   6.789  0.3278 -0.0622  0.0435
 1196loPI   C6A19132   4.085  18.598   7.118 -0.0181 -0.0238 -0.0275
 1196loPI   C1B19133   4.387  18.135   5.453 -0.3303 -0.2160 -0.0552
 1196loPI   C2B19134   4.742  18.033   5.676 -0.1387  0.0380  0.0381
 1196loPI   C3B19135   4.823  18.138   6.111 -0.0804 -0.0673  0.1318
 1196loPI   C4B19136   4.987  18.212   6.596 -0.0220  0.1992 -0.0977
 1197loPI    C119137   2.620   1.307   3.991  0.3335 -0.0160  0.1396
 1197loPI    C219138   2.607   0.928   3.864  0.0626  0.0545 -0.0519
 1197loPI    C319139   2.579   1.228   3.601  0.2086  0.2085  0.1053
 1197loPI   PO419140   2.734   1.284   4.187 -0.0445  0.0540 -0.0489
 1197loPI   GL119141   2.841   1.220   4.600 -0.1733  0.3839 -0.1666
 1197loPI   GL219142   2.835   0.958   4.784  0.1996 -0.1328 -0.1042
 1197loPI   C1A19143   2.803   1.482   4.947  0.0016 -0.2205  0.0666
 1197loPI   C2A19144   2.829   1.536   5.351  0.0585  0.1598 -0.2294
 1197loPI   C3A19145   3.025   1.752   5.777 -0.4837 -0.3889 -0.3410
 1197loPI   C4A19146   3.151   1.552   6.161 -0.0657  0.3481 -0.0902
 1197loPI   C5A19147   3.158   1.795   6.480  0.0595 -0.0303 -0.0076
 1197loPI   C6A19148   3.393   1.975   6.834 -0.1008 -0.1635  0.0802
 1197loPI   C1B19149   2.815   0.903   5.250 -0.0738  0.1056 -0.0575
 1197loPI   C2B19150   2.771   0.948   5.604 -0.1934 -0.1832  0.1568
 1197loPI   C3B19151   2.779   0.660   5.969  0.3097 -0.1121  0.4380
 1197loPI   C4B19152   2.813   0.607   6.445  0.0043 -0.1458  0.1262
 1198loPI    C119153  15.328  14.329   4.107  0.0174  0.1089 -0.1099
 1198loPI    C219154  15.008  14.435   4.321  0.0268 -0.1078  0.0135
 1198loPI    C319155  14.962  14.223   3.985  0.0454 -0.2173  0.0795
 1198loPI   PO419156  15.504  14.474   4.360 -0.3476  0.1843 -0.0519
 1198loPI   GL119157  15.390  14.445   4.745  0.0834  0.2695 -0.0490
 1198loPI   GL219158  15.607  14.763   4.861  0.0874 -0.0564 -0.2062
 1198loPI   C1A19159  15.727  14.283   5.103 -0.2724 -0.1091  0.0139
 1198loPI   C2A19160  16.044  14.257   5.372 -0.1097  0.1107  0.0349
 1198loPI   C3A19161  16.200  14.292   5.814 -0.0883 -0.0096 -0.0018
 1198loPI   C4A19162  16.346  14.317   6.297 -0.1086  0.1577 -0.1212
 1198loPI   C5A19163  16.415  13.900   6.467 -0.0583 -0.2442 -0.0609
 1198loPI   C6A19164  16.335  13.888   6.916  0.5116  0.0859  0.4220
 1198loPI   C1B19165  15.391  14.712   5.232  0.2054 -0.4722 -0.1667
 1198loPI   C2B19166  15.097  14.881   5.477  0.1563  0.2847 -0.1753
 1198loPI   C3B19167  14.720  15.163   5.519  0.0033  0.2604 -0.0143
 1198loPI   C4B19168  14.293  15.315   5.395 -0.0962 -0.0213 -0.0256
 1199loPI    C119169  10.596  18.953   4.069  0.1803 -0.0095 -0.2399
 1199loPI    C219170  10.598  19.241   3.790  0.0070  0.0827 -0.1471
 1199loPI    C319171  10.502  18.866   3.690  0.2651  0.0492 -0.2748
 1199loPI   PO419172  10.479  19.001   4.254  0.2199  0.0913 -0.0304
 1199loPI   GL119173  10.441  19.143   4.652 -0.2548 -0.0549 -0.1573
 1199loPI   GL219174  10.148  19.219   4.740 -0.1133 -0.0818  0.0461
 1199loPI   C1A19175  10.558  19.522   4.859 -0.2356 -0.0928 -0.0224
 1199loPI   C2A19176  10.547  19.754   5.182 -0.2818  0.2433 -0.0561
 1199loPI   C3A19177  10.672  19.773   5.630  0.0447  0.0118 -0.0534
 1199loPI   C4A19178  10.892  19.634   5.993 -0.2305 -0.1415 -0.0228
 1199loPI   C5A19179  10.895  19.501   6.475  0.2187 -0.0455 -0.0601
 1199loPI   C6A19180  10.599  19.738   6.834 -0.3511  0.4834 -0.0393
 1199loPI   C1B19181  10.299  19.201   5.162  0.5277  0.1510 -0.0929
 1199loPI   C2B19182  10.275  19.490   5.534 -0.0310 -0.0002 -0.0553
 1199loPI   C3B19183  10.411  19.499   5.979  0.1757  0.0966  0.1386
 1199loPI   C4B19184  10.362  19.592   6.385  0.1451 -0.0330 -0.1122
 1200loPI    C119185   0.239   7.786   4.299 -0.2425 -0.0873 -0.0566
 1200loPI    C219186   0.135   7.725   3.917 -0.0074 -0.0368 -0.1298
 1200loPI    C319187   0.513   7.663   4.035 -0.0463  0.0855  0.0637
 1200loPI   PO419188   0.035   7.668   4.438  0.1308 -0.2928 -0.0802
 1200loPI   GL119189   0.029   7.779   4.944 -0.2523 -0.2965 -0.1144
 1200loPI   GL219190   0.104   7.527   5.111 -0.1278 -0.0704 -0.0461
 1200loPI   C1A19191  -0.267   7.940   5.282  0.2341 -0.0519 -0.1473
 1200loPI   C2A19192  -0.345   8.072   5.739  0.3069  0.0086 -0.3483
 1200loPI   C3A19193  -0.612   8.264   6.183  0.2349  0.1837  0.0090
 1200loPI   C4A19194  -0.728   8.208   6.564 -0.0734 -0.1156  0.1982
 1200loPI   C5A19195  -0.931   8.431   6.874  0.3111 -0.0605 -0.1284
 1200loPI   C6A19196  -1.282   8.624   6.930  0.1146 -0.1401 -0.1772
 1200loPI   C1B19197   0.045   7.594   5.613  0.1027  0.1921 -0.0019
 1200loPI   C2B19198  -0.046   7.685   6.005 -0.1837 -0.2291 -0.0126
 1200loPI   C3B19199  -0.313   7.838   6.305  0.1943 -0.0496  0.0134
 1200loPI   C4B19200  -0.392   7.939   6.765  0.0541 -0.0354 -0.0520
 1201loPI    C119201   2.043  10.913   4.773 -0.0428 -0.0322  0.4580
 1201loPI    C219202   2.122  10.867   4.384 -0.3141  0.0353  0.3931
 1201loPI    C319203   2.418  10.844   4.652 -0.1101  0.0858  0.1753
 1201loPI   PO419204   1.978  11.164   4.751 -0.1503  0.1200  0.0708
 1201loPI   GL119205   1.967  11.391   5.120 -0.2195 -0.3402  0.1748
 1201loPI   GL219206   1.816  11.051   5.206 -0.1303  0.3624 -0.0708
 1201loPI   C1A19207   2.065  11.316   5.556  0.1093 -0.0999 -0.0218
 1201loPI   C2A19208   2.283  11.059   5.732 -0.2304 -0.1042 -0.0116
 1201loPI   C3A19209   2.543  11.063   6.063  0.2176 -0.2416  0.2261
 1201loPI   C4A19210   2.673  11.223   6.463  0.0286 -0.0653  0.2449
 1201loPI   C5A19211   2.748  11.181   6.828  0.2099 -0.1294  0.0378
 1201loPI   C6A19212   2.540  11.147   7.250  0.1709 -0.0329  0.0396
 1201loPI   C1B19213   1.557  11.338   5.540 -0.3300 -0.0039  0.2483
 1201loPI   C2B19214   1.685  11.420   5.940  0.1925 -0.1744 -0.2192
 1201loPI   C3B19215   1.523  11.156   6.298 -0.1705  0.0884  0.0288
 1201loPI   C4B19216   1.270  10.718   6.567 -0.1367 -0.1948  0.0987
 1202loPI    C119217  13.899  12.687   4.599  0.1456  0.2781  0.0412
 1202loPI    C219218  14.200  12.837   4.382 -0.0543  0.2710 -0.2464
 1202loPI    C319219  13.895  12.652   4.200 -0.1593  0.1437  0.0532
 1202loPI   PO419220  13.990  12.561   4.756 -0.3381 -0.0156  0.0559
 1202loPI   GL119221  14.003  12.696   5.165  0.0867 -0.2298 -0.1801
 1202loPI   GL219222  13.843  12.361   5.262 -0.1107  0.0582  0.0720
 1202loPI   C1A19223  13.993  12.958   5.503  0.0959 -0.0429  0.1085
 1202loPI   C2A19224  13.914  13.046   5.886 -0.4975 -0.3524 -0.1228
 1202loPI   C3A19225  14.043  13.416   6.252  0.4933  0.1809  0.0802
 1202loPI   C4A19226  14.237  13.430   6.689 -0.0503 -0.1953 -0.2374
 1202loPI   C5A19227  14.213  13.375   7.157  0.1350  0.1151 -0.0950
 1202loPI   C6A19228  13.909  13.261   7.491 -0.0180 -0.1940 -0.0271
 1202loPI   C1B19229  13.680  12.538   5.631  0.0009 -0.3201  0.0326
 1202loPI   C2B19230  13.703  12.584   6.122  0.0293  0.0305 -0.0784
 1202loPI   C3B19231  13.689  12.994   6.347  0.2663  0.2206 -0.1099
 1202loPI   C4B19232  13.496  13.198   6.569 -0.0365  0.0090 -0.1331
 1203loPI    C119233  16.250   8.149   3.997  0.0104  0.1561 -0.1059
 1203loPI    C219234  15.902   8.332   4.071 -0.0142  0.0133  0.1430
 1203loPI    C319235  15.905   7.970   3.901  0.0295  0.1828 -0.2251
 1203loPI   PO419236  16.364   8.174   4.286  0.2227 -0.0455  0.1537
 1203loPI   GL119237  16.106   8.369   4.562  0.1973  0.2851  0.1833
 1203loPI   GL219238  15.836   8.296   4.637  0.2395 -0.1639  0.0240
 1203loPI   C1A19239  16.174   8.432   4.973 -0.0006 -0.2178  0.1914
 1203loPI   C2A19240  16.052   8.372   5.381  0.2559 -0.0554  0.1291
 1203loPI   C3A19241  15.996   8.179   5.768  0.0969 -0.2266 -0.1831
 1203loPI   C4A19242  15.907   8.151   6.228  0.1565  0.1442 -0.0588
 1203loPI   C5A19243  15.900   8.210   6.652  0.0691 -0.0538  0.2990
 1203loPI   C6A19244  15.865   8.517   7.016 -0.1434 -0.2865  0.1199
 1203loPI   C1B19245  15.656   8.400   5.031  0.1302 -0.1582  0.2827
 1203loPI   C2B19246  15.551   8.352   5.458  0.2408 -0.1424  0.0709
 1203loPI   C3B19247  15.523   8.340   5.903 -0.0051 -0.1436  0.0818
 1203loPI   C4B19248  15.489   8.301   6.309  0.0961  0.1023 -0.0144
 1204loPI    C119249  18.774   0.590   4.597  0.0854 -0.0294 -0.1209
 1204loPI    C219250  18.503   0.570   4.303 -0.1361 -0.1701  0.0894
 1204loPI    C319251  18.830   0.340   4.289 -0.3157 -0.4307  0.1207
 1204loPI   PO419252  18.698   0.792   4.715 -0.1412  0.0624 -0.0525
 1204loPI   GL119253  18.528   0.927   5.022  0.2166 -0.3178 -0.0474
 1204loPI   GL219254  18.449   1.283   4.941  0.1497 -0.0697  0.1377
 1204loPI   C1A19255  18.367   0.871   5.463  0.0032  0.1197 -0.0789
 1204loPI   C2A19256  18.397   1.004   5.850 -0.0135 -0.0455  0.3280
 1204loPI   C3A19257  18.318   0.941   6.299  0.3313 -0.1106  0.2766
 1204loPI   C4A19258  18.335   0.774   6.694 -0.0187  0.2748 -0.1764
 1204loPI   C5A19259  18.331   0.428   7.029  0.1058  0.1276 -0.0850
 1204loPI   C6A19260  18.521   0.439   7.450  0.3266  0.0643 -0.2499
 1204loPI   C1B19261  18.778   1.232   5.301 -0.0947 -0.0026 -0.2799
 1204loPI   C2B19262  18.889   1.187   5.724  0.0012 -0.0807  0.2260
 1204loPI   C3B19263  18.801   1.106   6.123  0.1368  0.1811  0.1941
 1204loPI   C4B19264  18.652   1.229   6.540  0.0869  0.1164  0.2252
 1205loPI    C119265   2.842  16.298   4.306  0.0757  0.1681  0.1176
 1205loPI    C219266   2.775  15.967   4.093 -0.1292  0.1400  0.2232
 1205loPI    C319267   3.106  16.181   4.030 -0.1674  0.1102 -0.0940
 1205loPI   PO419268   2.823  16.258   4.618 -0.0320 -0.0748 -0.2746
 1205loPI   GL119269   2.672  16.293   5.061  0.0266 -0.1046  0.2627
 1205loPI   GL219270   2.408  16.455   4.890  0.1177 -0.0396 -0.0143
 1205loPI   C1A19271   2.738  16.350   5.549 -0.0730  0.1099  0.1084
 1205loPI   C2A19272   2.931  16.494   5.843 -0.0115 -0.0679 -0.0751
 1205loPI   C3A19273   2.845  16.854   6.049  0.0366 -0.1943  0.0176
 1205loPI   C4A19274   2.762  17.257   5.854  0.1453  0.1025 -0.2297
 1205loPI   C5A19275   2.722  17.374   5.421 -0.0735  0.0184 -0.2888
 1205loPI   C6A19276   2.924  17.469   5.033  0.0550  0.0966 -0.1524
 1205loPI   C1B19277   2.321  16.620   5.348  0.1149 -0.4105 -0.1099
 1205loPI   C2B19278   2.322  16.656   5.858 -0.1215 -0.0872 -0.1266
 1205loPI   C3B19279   2.260  16.545   6.396  0.4284  0.3436  0.0421
 1205loPI   C4B19280   2.268  16.285   6.741  0.5397 -0.2525 -0.0420
 1206loPI    C119281  18.544  16.350   4.356  0.0288 -0.2361 -0.2277
 1206loPI    C219282  18.338  16.448   4.027 -0.2651  0.3365  0.1103
 1206loPI    C319283  18.738  16.474   4.028 -0.2630  0.3527 -0.1915
 1206loPI   PO419284  18.265  16.424   4.562 -0.2281  0.0523 -0.0307
 1206loPI   GL119285  18.235  16.564   5.025  0.3598 -0.0714 -0.2895
 1206loPI   GL219286  18.136  16.305   5.150  0.0796 -0.2049  0.2476
 1206loPI   C1A19287  18.151  16.772   5.418  0.3091  0.1284 -0.1346
 1206loPI   C2A19288  17.747  17.015   5.584 -0.2400 -0.0565  0.1825
 1206loPI   C3A19289  17.783  17.259   5.913 -0.2464  0.0694 -0.0447
 1206loPI   C4A19290  17.588  17.467   6.276  0.1841 -0.0119  0.1012
 1206loPI   C5A19291  17.326  17.446   6.688 -0.2897  0.1534  0.3129
 1206loPI   C6A19292  16.906  17.593   6.936  0.3553 -0.4248 -0.0318
 1206loPI   C1B19293  17.935  16.207   5.494  0.3498 -0.2142  0.1748
 1206loPI   C2B19294  18.086  16.072   5.886 -0.0119  0.0307  0.2563
 1206loPI   C3B19295  18.052  16.286   6.262  0.2584  0.2557 -0.1874
 1206loPI   C4B19296  18.223  16.454   6.594 -0.4896  0.1587  0.0265
 1207loPI    C119297   5.484   2.295   3.919 -0.0222  0.1463  0.0048
 1207loPI    C219298   5.266   2.489   3.645 -0.1353 -0.0991 -0.0817
 1207loPI    C319299   5.457   2.152   3.547 -0.2352 -0.2283  0.1593
 1207loPI   PO419300   5.260   2.274   4.168  0.3862  0.2571 -0.1725
 1207loPI   GL119301   5.376   2.226   4.544 -0.0293  0.0014  0.0601
 1207loPI   GL219302   5.682   2.090   4.714  0.0802 -0.1013 -0.3005
 1207loPI   C1A19303   5.166   2.329   4.886  0.2212  0.1021 -0.2631
 1207loPI   C2A19304   4.942   2.371   5.305  0.0212  0.4204 -0.0249
 1207loPI   C3A19305   4.693   2.032   5.563  0.0432  0.2881 -0.1703
 1207loPI   C4A19306   4.511   1.768   5.930  0.0385  0.1493  0.6238
 1207loPI   C5A19307   4.596   1.736   6.375 -0.0192 -0.0352 -0.1853
 1207loPI   C6A19308   4.645   1.659   6.793  0.0474  0.0700 -0.2914
 1207loPI   C1B19309   5.623   2.251   5.043 -0.0045  0.0646 -0.0695
 1207loPI   C2B19310   5.419   2.295   5.434 -0.0588  0.0874  0.0265
 1207loPI   C3B19311   5.522   2.189   5.913  0.0673  0.3755  0.1722
 1207loPI   C4B19312   5.489   2.279   6.241 -0.1058 -0.0403 -0.0642
 1208loPI    C119313   5.091   3.642   4.538  0.1148  0.1806  0.0444
 1208loPI    C219314   5.095   3.715   4.145 -0.0908 -0.0211  0.0026
 1208loPI    C319315   5.424   3.578   4.325  0.0116  0.0956 -0.0936
 1208loPI   PO419316   4.974   3.769   4.603 -0.0304  0.3084 -0.3221
 1208loPI   GL119317   4.942   3.864   4.976  0.0211  0.3052  0.1788
 1208loPI   GL219318   4.669   3.873   5.102 -0.0597 -0.2714 -0.2099
 1208loPI   C1A19319   5.276   3.845   5.273 -0.0658 -0.2934  0.0449
 1208loPI   C2A19320   5.503   3.674   5.582 -0.0713  0.0623 -0.0485
 1208loPI   C3A19321   5.469   3.517   5.992 -0.0118  0.2741 -0.2656
 1208loPI   C4A19322   5.375   3.215   6.364 -0.1274 -0.3395 -0.0786
 1208loPI   C5A19323   5.258   2.999   6.734 -0.0555 -0.2605  0.0238
 1208loPI   C6A19324   5.223   3.038   7.108  0.1440  0.0531 -0.0172
 1208loPI   C1B19325   4.903   3.549   5.438 -0.0839 -0.1808  0.1287
 1208loPI   C2B19326   5.020   3.388   5.862  0.1007 -0.1311  0.2543
 1208loPI   C3B19327   4.776   3.333   6.237 -0.1627 -0.0795 -0.0430
 1208loPI   C4B19328   4.904   3.498   6.605 -0.0975  0.5484  0.2405
 1209loPI    C119329   1.094  10.783   4.531  0.0303  0.0854  0.1666
 1209loPI    C219330   0.716  10.884   4.446  0.0377  0.0739  0.1200
 1209loPI    C319331   1.017  11.032   4.228  0.0525 -0.0015  0.0889
 1209loPI   PO419332   1.005  10.741   4.879 -0.1229  0.0274  0.1053
 1209loPI   GL119333   0.903  10.631   5.391 -0.2606 -0.1040  0.0471
 1209loPI   GL219334   0.763  10.895   5.356  0.2873 -0.5412  0.0174
 1209loPI   C1A19335   0.854  10.648   5.857  0.1160 -0.0134  0.1240
 1209loPI   C2A19336   0.911  10.448   6.233  0.1877  0.1233 -0.0852
 1209loPI   C3A19337   0.805  10.351   6.626 -0.5319 -0.1617  0.0744
 1209loPI   C4A19338   0.600  10.477   7.039  0.3889 -0.1826 -0.1745
 1209loPI   C5A19339   0.404  10.426   7.425 -0.1349 -0.1763 -0.0634
 1209loPI   C6A19340   0.146  10.687   7.688  0.0681  0.1147 -0.0287
 1209loPI   C1B19341   0.512  11.100   5.610 -0.2969  0.2084  0.0297
 1209loPI   C2B19342   0.374  11.229   6.086  0.0535  0.0153 -0.0565
 1209loPI   C3B19343   0.355  11.201   6.503  0.2802 -0.0937  0.3053
 1209loPI   C4B19344   0.493  11.345   6.880 -0.1155  0.4948 -0.1171
 1210loPI    C119345   8.061  16.755   4.381  0.0260  0.0255  0.2748
 1210loPI    C219346   8.148  16.902   4.019  0.0279 -0.0786  0.2327
 1210loPI    C319347   7.860  17.071   4.239  0.0901  0.0426  0.2219
 1210loPI   PO419348   8.364  16.770   4.621  0.0723 -0.2628  0.0568
 1210loPI   GL119349   8.393  16.710   5.001  0.2813  0.0878  0.1401
 1210loPI   GL219350   8.225  16.495   5.256  0.0257  0.1291  0.1388
 1210loPI   C1A19351   8.653  16.814   5.252 -0.0643 -0.0958  0.1673
 1210loPI   C2A19352   8.732  16.906   5.663 -0.0979  0.4941 -0.0285
 1210loPI   C3A19353   8.782  17.174   6.024  0.1093  0.1574 -0.2780
 1210loPI   C4A19354   8.829  17.367   6.363 -0.1324 -0.3901 -0.3149
 1210loPI   C5A19355   8.625  17.637   6.632 -0.0883 -0.2304  0.5517
 1210loPI   C6A19356   8.568  17.691   7.064 -0.1471 -0.0154 -0.0854
 1210loPI   C1B19357   8.643  16.415   5.657  0.0619  0.2216 -0.2203
 1210loPI   C2B19358   8.902  16.631   6.025 -0.0874  0.0473  0.0680
 1210loPI   C3B19359   9.268  16.535   6.219  0.1228  0.2003  0.2250
 1210loPI   C4B19360   9.323  16.575   6.590 -0.0002 -0.3576 -0.1683
 1211loPI    C119361  12.391   3.405   3.982  0.2989 -0.0986 -0.0682
 1211loPI    C219362  12.037   3.236   3.904  0.2500 -0.0210 -0.0160
 1211loPI    C319363  12.237   3.425   3.613  0.2211 -0.0138 -0.0314
 1211loPI   PO419364  12.369   3.486   4.285  0.1643  0.6076 -0.0028
 1211loPI   GL119365  12.217   3.514   4.750  0.1584  0.1665  0.2284
 1211loPI   GL219366  12.463   3.393   4.794 -0.1248  0.1570 -0.1720
 1211loPI   C1A19367  12.157   3.470   5.255 -0.1739 -0.0708  0.0730
 1211loPI   C2A19368  12.047   3.384   5.657  0.2791  0.0815  0.0130
 1211loPI   C3A19369  12.250   3.319   5.943  0.1068  0.0118 -0.0263
 1211loPI   C4A19370  12.591   3.259   6.293 -0.1361  0.1035 -0.2183
 1211loPI   C5A19371  12.820   2.950   6.457 -0.1063 -0.0883  0.1753
 1211loPI   C6A19372  12.976   2.610   6.708  0.0869  0.1639 -0.0202
 1211loPI   C1B19373  12.602   3.740   5.030  0.1195 -0.2533  0.0842
 1211loPI   C2B19374  12.574   3.967   5.506 -0.1699  0.2886 -0.0086
 1211loPI   C3B19375  12.195   3.876   5.717 -0.5249  0.1387  0.0581
 1211loPI   C4B19376  11.937   3.792   6.004  0.2302 -0.1660  0.0424
 1212loPI    C119377  13.186  14.793   4.537  0.1518 -0.0679 -0.0390
 1212loPI    C219378  13.366  14.478   4.368 -0.0304 -0.2119  0.0304
 1212loPI    C319379  13.066  14.663   4.179  0.3852  0.2233 -0.2274
 1212loPI   PO419380  13.116  14.687   4.747  0.1162 -0.1731  0.2353
 1212loPI   GL119381  12.883  14.617   5.192 -0.0385 -0.2288 -0.0196
 1212loPI   GL219382  12.679  14.524   5.176 -0.0296 -0.1218  0.2046
 1212loPI   C1A19383  13.046  14.723   5.488  0.2533 -0.1036  0.2913
 1212loPI   C2A19384  12.888  14.889   5.829  0.0298  0.2158 -0.0415
 1212loPI   C3A19385  13.064  14.879   6.349  0.1040 -0.1453 -0.0286
 1212loPI   C4A19386  13.344  14.832   6.698  0.1503 -0.1942  0.0839
 1212loPI   C5A19387  13.485  15.178   6.812  0.1266  0.0679 -0.2861
 1212loPI   C6A19388  13.315  15.536   7.015 -0.2350  0.0172 -0.2744
 1212loPI   C1B19389  12.471  14.687   5.527  0.1311  0.0363 -0.0955
 1212loPI   C2B19390  12.467  14.573   5.853 -0.3321 -0.0525 -0.2365
 1212loPI   C3B19391  12.162  14.321   5.861  0.0024  0.2868  0.2295
 1212loPI   C4B19392  11.811  14.370   6.107 -0.2032  0.0096 -0.2287
 1213loPI    C119393  15.216  17.325   3.964  0.0491 -0.1845 -0.0262
 1213loPI    C219394  15.343  17.293   3.586  0.0222  0.1099 -0.0626
 1213loPI    C319395  14.951  17.318   3.664  0.0137 -0.1916  0.0051
 1213loPI   PO419396  15.370  17.141   4.098 -0.2216 -0.3720 -0.1776
 1213loPI   GL119397  15.319  16.962   4.498  0.0094  0.3928 -0.0765
 1213loPI   GL219398  15.137  17.180   4.533 -0.1400 -0.2419  0.0061
 1213loPI   C1A19399  15.402  16.913   4.918 -0.1787  0.0457 -0.1803
 1213loPI   C2A19400  15.406  16.900   5.377 -0.0080 -0.0148  0.0706
 1213loPI   C3A19401  15.313  16.946   5.863 -0.3776 -0.1824 -0.2396
 1213loPI   C4A19402  15.519  16.970   6.318 -0.0893 -0.0623  0.0822
 1213loPI   C5A19403  15.553  16.831   6.644  0.2663  0.2212  0.0041
 1213loPI   C6A19404  15.452  16.634   7.066 -0.2054  0.1829  0.1104
 1213loPI   C1B19405  14.963  17.090   4.926  0.2038  0.1559  0.3536
 1213loPI   C2B19406  14.929  17.144   5.296  0.1753  0.1476  0.1977
 1213loPI   C3B19407  14.785  17.143   5.770 -0.0877 -0.0996 -0.1601
 1213loPI   C4B19408  14.520  17.260   6.114 -0.0800 -0.1601  0.0331
 1214loPI    C119409  14.906   1.612   4.174 -0.0294 -0.2582 -0.2288
 1214loPI    C219410  14.786   1.631   3.793  0.2004  0.1561 -0.2868
 1214loPI    C319411  15.107   1.413   3.892  0.1109  0.0079 -0.3203
 1214loPI   PO419412  14.718   1.594   4.335  0.1849 -0.1078 -0.2889
 1214loPI   GL119413  14.735   1.331   4.710 -0.3256  0.0580 -0.1101
 1214loPI   GL219414  15.024   1.270   4.751 -0.1656 -0.3036  0.2683
 1214loPI   C1A19415  14.554   1.178   5.073 -0.2089  0.1604  0.4367
 1214loPI   C2A19416  14.628   1.263   5.514 -0.0346  0.1170  0.0435
 1214loPI   C3A19417  14.319   1.191   5.853  0.1171  0.2396 -0.1344
 1214loPI   C4A19418  13.915   1.250   6.108 -0.0069  0.1339  0.3027
 1214loPI   C5A19419  13.886   1.563   6.388 -0.1583  0.0958  0.0908
 1214loPI   C6A19420  13.778   1.963   6.543  0.0084 -0.1634  0.0877
 1214loPI   C1B19421  15.159   1.481   5.190  0.1561  0.0283 -0.0884
 1214loPI   C2B19422  15.124   1.446   5.640 -0.1707  0.1509  0.4096
 1214loPI   C3B19423  14.921   1.219   6.069 -0.0165  0.3064 -0.2848
 1214loPI   C4B19424  14.880   1.123   6.517 -0.1274 -0.0568 -0.0896
 1215loPI    C119425   9.471   1.960   4.024  0.2197 -0.0361  0.1869
 1215loPI    C219426   9.781   2.038   3.784  0.1496 -0.2681  0.0163
 1215loPI    C319427   9.420   2.186   3.698  0.1529 -0.2376  0.0551
 1215loPI   PO419428   9.574   1.961   4.219 -0.1343  0.1596 -0.0895
 1215loPI   GL119429   9.584   1.814   4.720  0.1474 -0.0269 -0.0020
 1215loPI   GL219430   9.914   1.920   4.671 -0.3149  0.1941 -0.0390
 1215loPI   C1A19431   9.237   1.970   5.056 -0.2475  0.0435  0.2606
 1215loPI   C2A19432   9.037   2.031   5.397 -0.3080 -0.2080  0.3349
 1215loPI   C3A19433   9.065   2.137   5.759 -0.1495  0.1051  0.1113
 1215loPI   C4A19434   8.988   2.350   6.102 -0.0748 -0.4010  0.1567
 1215loPI   C5A19435   8.713   2.169   6.498 -0.4037 -0.2735 -0.0787
 1215loPI   C6A19436   8.256   2.042   6.769 -0.1138  0.1969 -0.1293
 1215loPI   C1B19437   9.874   1.778   5.074 -0.4563 -0.1430  0.2357
 1215loPI   C2B19438   9.871   1.711   5.468 -0.3086 -0.0104  0.0191
 1215loPI   C3B19439  10.038   1.668   5.798  0.2766  0.1020  0.0506
 1215loPI   C4B19440  10.255   1.609   6.086 -0.1442 -0.0247  0.0655
 1216loPI    C119441   5.422  18.565   4.487  0.1672  0.2986 -0.1634
 1216loPI    C219442   5.147  18.523   4.775  0.2154  0.0577 -0.1511
 1216loPI    C319443   5.092  18.350   4.419  0.2815  0.1327 -0.1981
 1216loPI   PO419444   5.673  18.461   4.608 -0.0940 -0.2774  0.0158
 1216loPI   GL119445   5.877  18.485   4.979  0.0072  0.2998 -0.1035
 1216loPI   GL219446   5.538  18.610   5.072  0.3644 -0.2504  0.0300
 1216loPI   C1A19447   5.799  18.375   5.437 -0.0033  0.0259 -0.1364
 1216loPI   C2A19448   5.666  18.496   5.849 -0.5599 -0.2953  0.0991
 1216loPI   C3A19449   5.735  18.630   6.277 -0.2524  0.1210 -0.0113
 1216loPI   C4A19450   5.671  18.801   6.624  0.0818 -0.0903  0.1123
 1216loPI   C5A19451   5.370  18.770   7.015  0.0833  0.0556  0.1096
 1216loPI   C6A19452   5.042  18.499   7.166 -0.0856 -0.1414 -0.0365
 1216loPI   C1B19453   5.221  18.821   5.376  0.0301  0.2111 -0.0353
 1216loPI   C2B19454   5.124  19.183   5.653 -0.1637  0.3784 -0.0360
 1216loPI   C3B19455   5.183  19.584   5.819  0.3751  0.2481 -0.0866
 1216loPI   C4B19456   5.294  19.632   6.306  0.0173 -0.2123  0.3213
 1217loPI    C119457   6.585  12.673   4.789 -0.0863  0.1093  0.0551
 1217loPI    C219458   6.917  12.805   4.609 -0.0366 -0.0994 -0.0092
 1217loPI    C319459   6.591  13.036   4.622  0.0914  0.0827  0.0012
 1217loPI   PO419460   6.630  12.593   5.126 -0.3365  0.0264 -0.0159
 1217loPI   GL119461   6.367  12.914   5.480 -0.3850 -0.0997 -0.3030
 1217loPI   GL219462   6.001  12.972   5.488  0.0514  0.0383  0.0831
 1217loPI   C1A19463   6.642  13.039   5.770 -0.0070 -0.0430 -0.2346
 1217loPI   C2A19464   6.586  13.415   6.043 -0.1121 -0.1513 -0.1187
 1217loPI   C3A19465   6.491  13.384   6.485  0.0662 -0.1673  0.0149
 1217loPI   C4A19466   6.359  13.616   6.892  0.1030 -0.0947  0.0586
 1217loPI   C5A19467   6.547  13.995   7.128  0.1235 -0.0846  0.0428
 1217loPI   C6A19468   6.939  14.280   7.328 -0.2818  0.2420  0.1535
 1217loPI   C1B19469   6.010  12.827   5.982  0.0787  0.0209  0.1625
 1217loPI   C2B19470   6.326  12.876   6.330  0.0550  0.0391 -0.2314
 1217loPI   C3B19471   6.671  12.904   6.597  0.0989  0.0633 -0.2855
 1217loPI   C4B19472   7.162  12.706   6.505 -0.1001  0.4290  0.0171
 1218loPI    C119473  10.157  11.735   4.417  0.1903 -0.0953 -0.0479
 1218loPI    C219474  10.245  12.051   4.188  0.0896 -0.0901 -0.0800
 1218loPI    C319475   9.981  11.779   4.060 -0.0203 -0.0506  0.0600
 1218loPI   PO419476  10.069  11.812   4.614  0.2134 -0.0567 -0.1346
 1218loPI   GL119477  10.217  11.713   5.013  0.0256  0.1659  0.1204
 1218loPI   GL219478   9.801  11.622   5.053 -0.2482 -0.0472 -0.1842
 1218loPI   C1A19479  10.229  11.363   5.298  0.3520  0.0266  0.0353
 1218loPI   C2A19480  10.003  11.068   5.565 -0.2463  0.0718 -0.1510
 1218loPI   C3A19481   9.839  10.811   5.813  0.2509 -0.0388 -0.1653
 1218loPI   C4A19482   9.808  10.474   6.124 -0.0031  0.3188  0.2957
 1218loPI   C5A19483  10.028  10.274   6.574  0.2063 -0.1207  0.3144
 1218loPI   C6A19484   9.958   9.963   6.970 -0.0046 -0.0002  0.0798
 1218loPI   C1B19485  10.011  11.762   5.469  0.0349  0.1204 -0.1250
 1218loPI   C2B19486  10.089  11.821   5.844  0.4049  0.0171 -0.4615
 1218loPI   C3B19487  10.209  12.007   6.265 -0.0995  0.1295  0.0344
 1218loPI   C4B19488  10.146  12.256   6.601  0.2328 -0.3119 -0.0149
 1219loPI    C119489  13.802  17.392   4.107  0.0289 -0.2796 -0.0723
 1219loPI    C219490  13.450  17.290   3.947 -0.0317  0.1282 -0.2116
 1219loPI    C319491  13.763  17.366   3.710  0.0857  0.0025 -0.0988
 1219loPI   PO419492  13.720  17.551   4.366 -0.2548  0.3267 -0.0990
 1219loPI   GL119493  13.690  17.670   4.830  0.1957  0.3030 -0.0846
 1219loPI   GL219494  13.330  17.613   4.733 -0.0428  0.0050  0.1421
 1219loPI   C1A19495  13.609  17.551   5.244  0.0598 -0.1879 -0.2729
 1219loPI   C2A19496  13.406  17.435   5.592 -0.0832 -0.0085 -0.0029
 1219loPI   C3A19497  13.156  17.231   5.991 -0.2380 -0.0545  0.3731
 1219loPI   C4A19498  13.043  16.852   6.298 -0.1712 -0.1101 -0.4250
 1219loPI   C5A19499  12.970  16.785   6.740  0.2008 -0.0080 -0.0247
 1219loPI   C6A19500  13.230  16.645   7.182  0.0037 -0.2330  0.3930
 1219loPI   C1B19501  13.248  17.940   5.143  0.1183 -0.0009 -0.1430
 1219loPI   C2B19502  13.041  17.952   5.519 -0.0245  0.1390  0.0620
 1219loPI   C3B19503  12.658  17.896   5.736  0.0867 -0.1963  0.1192
 1219loPI   C4B19504  12.607  17.763   6.281 -0.3038 -0.1543  0.0739
 1220loPI    C119505   0.957   6.639   5.205  0.4707  0.4801  0.0818
 1220loPI    C219506   1.210   6.383   5.029 -0.1484 -0.1288  0.0345
 1220loPI    C319507   1.068   6.697   4.825 -0.1508 -0.3110 -0.2501
 1220loPI   PO419508   0.998   6.578   5.447 -0.2268 -0.0483  0.0276
 1220loPI   GL119509   1.164   6.373   5.708  0.1968  0.1776 -0.0158
 1220loPI   GL219510   1.502   6.401   5.550  0.1076 -0.2777  0.0573
 1220loPI   C1A19511   1.032   6.048   6.051  0.0593 -0.0214  0.1048
 1220loPI   C2A19512   1.188   6.105   6.502 -0.0135 -0.2419 -0.0824
 1220loPI   C3A19513   1.181   5.997   6.850  0.1604 -0.0492 -0.3014
 1220loPI   C4A19514   1.276   6.329   7.224  0.1353  0.1750  0.1241
 1220loPI   C5A19515   1.656   6.325   7.469 -0.2225 -0.1383 -0.1513
 1220loPI   C6A19516   1.988   6.541   7.581  0.0736  0.1740 -0.1172
 1220loPI   C1B19517   1.681   6.555   5.923 -0.3379  0.3580  0.0202
 1220loPI   C2B19518   1.537   6.395   6.311  0.2867  0.2203  0.0125
 1220loPI   C3B19519   1.584   6.296   6.758  0.1845  0.1449 -0.0254
 1220loPI   C4B19520   1.636   5.963   7.152 -0.1694 -0.1486 -0.2952
 1221loPI    C119521   6.501  15.356   4.584  0.1084 -0.0931  0.1104
 1221loPI    C219522   6.278  15.273   4.262  0.2738 -0.1326  0.0043
 1221loPI    C319523   6.494  15.609   4.274  0.2084 -0.0936  0.1074
 1221loPI   PO419524   6.709  15.106   4.567  0.1103  0.1081  0.2795
 1221loPI   GL119525   6.655  14.889   4.948  0.0485 -0.1228 -0.3067
 1221loPI   GL219526   6.587  14.638   5.059  0.1985 -0.2807  0.1434
 1221loPI   C1A19527   6.870  15.010   5.351  0.2232 -0.1405  0.0816
 1221loPI   C2A19528   7.075  14.929   5.670 -0.0497  0.2113 -0.0157
 1221loPI   C3A19529   7.341  14.821   6.019  0.0293  0.0677  0.2686
 1221loPI   C4A19530   7.447  14.642   6.474  0.2707  0.2202 -0.2144
 1221loPI   C5A19531   7.676  14.699   6.855  0.1274 -0.0399 -0.1107
 1221loPI   C6A19532   7.974  14.906   7.024 -0.1353  0.1817 -0.2739
 1221loPI   C1B19533   6.294  14.795   5.391 -0.0217 -0.2779  0.2038
 1221loPI   C2B19534   6.353  15.163   5.590  0.0384 -0.2816  0.3572
 1221loPI   C3B19535   6.339  15.630   5.606 -0.0778 -0.1262 -0.2216
 1221loPI   C4B19536   6.504  16.030   5.839 -0.1402  0.0452 -0.5865
 1222loPI    C119537   3.561  16.054   4.661  0.0514 -0.0699  0.0947
 1222loPI    C219538   3.543  16.069   4.262 -0.0083 -0.0435  0.0983
 1222loPI    C319539   3.327  16.324   4.481 -0.0671 -0.1362  0.1486
 1222loPI   PO419540   3.563  15.667   4.708  0.0349 -0.2918 -0.0611
 1222loPI   GL119541   3.770  15.390   5.077  0.0090 -0.2968  0.2143
 1222loPI   GL219542   4.073  15.358   5.077 -0.1406 -0.2712 -0.1499
 1222loPI   C1A19543   3.798  15.687   5.365  0.2966  0.0659 -0.2773
 1222loPI   C2A19544   3.409  15.773   5.596  0.1998 -0.1061 -0.1515
 1222loPI   C3A19545   3.282  15.732   5.974 -0.0932 -0.1124  0.4770
 1222loPI   C4A19546   3.109  15.482   6.309 -0.0960  0.0232  0.0048
 1222loPI   C5A19547   2.785  15.511   6.792  0.1816  0.1246  0.1304
 1222loPI   C6A19548   2.731  15.814   7.103 -0.0562  0.0047 -0.0279
 1222loPI   C1B19549   3.975  15.222   5.480 -0.0029 -0.0934  0.3635
 1222loPI   C2B19550   3.937  14.979   5.700 -0.0159 -0.1974  0.3209
 1222loPI   C3B19551   4.147  14.725   6.082  0.0851 -0.2429 -0.0320
 1222loPI   C4B19552   4.244  14.661   6.488 -0.2710 -0.2171  0.2718
 1223loPI    C119553   2.837  18.871   4.293 -0.1059  0.0830 -0.1250
 1223loPI    C219554   2.995  18.521   4.181 -0.2933 -0.0952  0.1536
 1223loPI    C319555   2.878  18.786   3.905  0.0842 -0.1421 -0.0580
 1223loPI   PO419556   2.797  18.884   4.469 -0.4031  0.2912 -0.2424
 1223loPI   GL119557   3.055  18.877   4.858  0.2819  0.1721  0.1886
 1223loPI   GL219558   3.345  18.706   4.761  0.2558  0.1466 -0.1512
 1223loPI   C1A19559   3.111  18.828   5.393  0.0873 -0.1098 -0.1444
 1223loPI   C2A19560   3.002  18.889   5.746  0.1275  0.0899  0.2604
 1223loPI   C3A19561   2.965  18.597   6.157 -0.0456 -0.4299 -0.1536
 1223loPI   C4A19562   2.959  18.815   6.574  0.2302  0.0094  0.0124
 1223loPI   C5A19563   3.097  18.851   7.011  0.2515  0.0098 -0.0767
 1223loPI   C6A19564   3.117  18.671   7.386  0.1284  0.2407  0.0192
 1223loPI   C1B19565   3.496  18.483   5.091 -0.1164  0.1055  0.1745
 1223loPI   C2B19566   3.567  18.458   5.584 -0.0346 -0.0733 -0.1991
 1223loPI   C3B19567   3.507  18.465   5.971  0.1466  0.1191 -0.1667
 1223loPI   C4B19568   3.375  18.288   6.350  0.0634 -0.0843 -0.1679
 1224loPI    C119569   6.308  17.680   4.461  0.0302 -0.0837 -0.1420
 1224loPI    C219570   6.051  17.409   4.317 -0.0198 -0.1007 -0.0224
 1224loPI    C319571   6.367  17.522   4.098 -0.1537 -0.0452 -0.1900
 1224loPI   PO419572   6.324  17.676   4.753  0.1400 -0.1772  0.3356
 1224loPI   GL119573   6.528  17.486   5.268  0.1142 -0.1324  0.0096
 1224loPI   GL219574   6.135  17.649   5.261 -0.2176  0.1753  0.2437
 1224loPI   C1A19575   6.565  17.340   5.771 -0.0406  0.0638  0.1340
 1224loPI   C2A19576   6.781  17.501   6.188 -0.1782 -0.0976  0.0523
 1224loPI   C3A19577   6.924  17.838   6.486 -0.1400 -0.0502 -0.0340
 1224loPI   C4A19578   6.959  17.903   7.016 -0.1213  0.0127  0.0934
 1224loPI   C5A19579   6.806  18.146   7.363 -0.1142  0.1026 -0.0051
 1224loPI   C6A19580   7.101  18.349   7.630  0.4786  0.1140 -0.2997
 1224loPI   C1B19581   6.141  17.656   5.633  0.0740  0.3789  0.1640
 1224loPI   C2B19582   6.163  17.551   6.072 -0.2533 -0.1624 -0.0406
 1224loPI   C3B19583   6.106  17.324   6.369 -0.0273 -0.1068 -0.1858
 1224loPI   C4B19584   6.153  17.465   6.753  0.3106 -0.1534 -0.0568
 1225loPI    C119585   4.344  15.044   4.562 -0.2965 -0.2067  0.1145
 1225loPI    C219586   4.588  14.762   4.418  0.0545  0.0233  0.2440
 1225loPI    C319587   4.244  14.843   4.232  0.1205 -0.2388  0.0016
 1225loPI   PO419588   4.372  15.057   4.821  0.0455  0.1219  0.0453
 1225loPI   GL119589   4.575  15.383   5.091 -0.1588 -0.3647  0.1988
 1225loPI   GL219590   4.840  15.181   5.259  0.1753 -0.2925  0.2583
 1225loPI   C1A19591   4.390  15.442   5.458 -0.1038 -0.0569 -0.2664
 1225loPI   C2A19592   4.295  15.480   5.836  0.2460 -0.0787  0.1388
 1225loPI   C3A19593   4.155  15.287   6.210  0.1438 -0.0388  0.3214
 1225loPI   C4A19594   4.421  15.398   6.500  0.2226  0.1668 -0.0226
 1225loPI   C5A19595   4.465  15.561   6.888  0.3605  0.2657  0.1440
 1225loPI   C6A19596   4.569  15.912   7.172  0.0517  0.0168 -0.2565
 1225loPI   C1B19597   4.885  15.353   5.591  0.0459 -0.0658 -0.1923
 1225loPI   C2B19598   4.984  15.108   5.843  0.0212 -0.3493 -0.0452
 1225loPI   C3B19599   5.006  14.764   6.015 -0.1110  0.0191 -0.3695
 1225loPI   C4B19600   5.296  14.623   6.334 -0.0522  0.2398 -0.0345
 1226loPI    C119601   9.588  14.194   4.449 -0.1268  0.1013  0.0578
 1226loPI    C219602   9.765  14.549   4.395  0.0465 -0.0092 -0.1148
 1226loPI    C319603   9.922  14.220   4.230 -0.0726 -0.1781  0.1035
 1226loPI   PO419604   9.494  14.221   4.705 -0.1628 -0.0256 -0.0070
 1226loPI   GL119605   9.735  14.265   5.113  0.2647 -0.3457 -0.2165
 1226loPI   GL219606   9.584  14.494   5.113  0.2053  0.1192 -0.0491
 1226loPI   C1A19607   9.908  14.319   5.581 -0.2632 -0.2621 -0.0609
 1226loPI   C2A19608  10.092  14.467   5.986  0.0496 -0.2047  0.0981
 1226loPI   C3A19609  10.154  14.483   6.440  0.0856 -0.0625  0.0574
 1226loPI   C4A19610  10.037  14.524   6.881 -0.0975 -0.2018  0.4615
 1226loPI   C5A19611   9.779  14.315   7.142  0.0593 -0.2713  0.0352
 1226loPI   C6A19612   9.405  14.131   7.427  0.2709  0.0061 -0.2791
 1226loPI   C1B19613   9.733  14.774   5.460  0.3609  0.1667  0.1238
 1226loPI   C2B19614   9.892  14.933   5.893 -0.0783  0.0071 -0.1012
 1226loPI   C3B19615  10.139  15.197   6.167 -0.1224  0.1310 -0.1546
 1226loPI   C4B19616  10.288  15.433   6.495 -0.3297 -0.0332 -0.1284
 1227loPI    C119617   0.168   2.343   4.383  0.0657 -0.1311 -0.0425
 1227loPI    C219618   0.081   2.157   4.040 -0.1400 -0.1794  0.0341
 1227loPI    C319619  -0.111   2.493   4.139  0.0573 -0.0582  0.0116
 1227loPI   PO419620   0.431   2.491   4.376  0.0973 -0.0593 -0.0754
 1227loPI   GL119621   0.508   2.583   4.742  0.0523 -0.1368 -0.2599
 1227loPI   GL219622   0.735   2.744   4.984  0.0916  0.0377  0.3866
 1227loPI   C1A19623   0.243   2.738   5.082 -0.4598  0.1206  0.3296
 1227loPI   C2A19624   0.145   2.812   5.470 -0.0819  0.0687  0.0744
 1227loPI   C3A19625  -0.005   2.845   5.908  0.0256  0.0285 -0.2682
 1227loPI   C4A19626   0.236   2.679   6.248 -0.1262 -0.3920  0.2303
 1227loPI   C5A19627   0.228   2.569   6.610  0.2037 -0.1793 -0.4250
 1227loPI   C6A19628  -0.128   2.390   6.857 -0.1313  0.3368 -0.0797
 1227loPI   C1B19629   0.661   2.527   5.280  0.0402  0.1879  0.2087
 1227loPI   C2B19630   0.773   2.167   5.431 -0.0705 -0.1254  0.1430
 1227loPI   C3B19631   0.922   1.845   5.535  0.0520  0.0664  0.1139
 1227loPI   C4B19632   1.163   1.794   5.889 -0.1695 -0.0898 -0.1262
 1228loPI    C119633  19.650  11.534   4.406 -0.0119  0.1975 -0.1740
 1228loPI    C219634  19.384  11.800   4.542 -0.1387 -0.0925  0.1619
 1228loPI    C319635  19.259  11.464   4.365  0.0127 -0.0883  0.0439
 1228loPI   PO419636  19.854  11.454   4.666  0.2996  0.2980 -0.0220
 1228loPI   GL119637  19.785  11.391   5.059 -0.1761 -0.0695  0.0008
 1228loPI   GL219638  19.543  11.623   5.052  0.1970  0.0756  0.1651
 1228loPI   C1A19639  19.817  11.187   5.480  0.1890  0.1383  0.0330
 1228loPI   C2A19640  19.746  11.187   5.867  0.0952 -0.1543  0.0807
 1228loPI   C3A19641  19.492  11.180   6.256 -0.3801  0.0493  0.0723
 1228loPI   C4A19642  19.365  10.902   6.590  0.3119 -0.1680 -0.0290
 1228loPI   C5A19643  19.232  10.432   6.637  0.0719  0.2863 -0.0493
 1228loPI   C6A19644  18.839  10.217   6.774 -0.3963 -0.1257  0.4480
 1228loPI   C1B19645  19.409  11.589   5.490  0.0186  0.0515  0.0951
 1228loPI   C2B19646  19.402  11.668   5.954  0.1433  0.0159 -0.0135
 1228loPI   C3B19647  19.350  11.639   6.412  0.3046  0.0323  0.0189
 1228loPI   C4B19648  19.278  11.658   6.855  0.0327 -0.4033  0.1366
 1229loPI    C119649   6.966   6.126   4.381  0.1221  0.2102  0.0730
 1229loPI    C219650   6.694   6.325   4.165  0.3719  0.2614 -0.1999
 1229loPI    C319651   6.871   5.999   4.014  0.3258  0.1170  0.0513
 1229loPI   PO419652   6.914   6.035   4.555 -0.0286  0.2769 -0.3362
 1229loPI   GL119653   7.037   5.956   4.992 -0.1716  0.0535  0.2733
 1229loPI   GL219654   6.716   6.092   5.077 -0.1511 -0.0379 -0.1098
 1229loPI   C1A19655   7.019   5.754   5.372 -0.2855  0.4297  0.2090
 1229loPI   C2A19656   7.102   5.573   5.849  0.1381  0.0610 -0.0972
 1229loPI   C3A19657   7.121   5.622   6.187  0.1773 -0.0261 -0.0626
 1229loPI   C4A19658   7.077   5.790   6.595  0.0098 -0.1017 -0.3056
 1229loPI   C5A19659   6.912   5.935   6.999 -0.0316  0.0897  0.0821
 1229loPI   C6A19660   6.527   5.858   7.047  0.1082  0.0750  0.0484
 1229loPI   C1B19661   6.601   6.110   5.457  0.0850 -0.1182 -0.4153
 1229loPI   C2B19662   6.605   6.278   5.825  0.0602  0.0482  0.0380
 1229loPI   C3B19663   6.607   6.671   6.141 -0.0432  0.0626 -0.0178
 1229loPI   C4B19664   6.749   6.814   6.490  0.1625  0.0091  0.0114
 1230loPI    C119665  13.830  18.292   3.879 -0.0505  0.0538  0.0463
 1230loPI    C219666  13.798  18.594   3.619  0.0889 -0.1733 -0.2409
 1230loPI    C319667  13.570  18.268   3.577 -0.0264 -0.1319  0.0389
 1230loPI   PO419668  13.940  18.430   4.074 -0.1975  0.1100 -0.0378
 1230loPI   GL119669  14.076  18.383   4.464  0.3091  0.0552  0.1076
 1230loPI   GL219670  14.086  18.699   4.423 -0.2197  0.2544  0.0741
 1230loPI   C1A19671  14.087  18.138   4.838  0.0917  0.2382  0.1361
 1230loPI   C2A19672  14.134  18.316   5.290 -0.4018  0.0530  0.0353
 1230loPI   C3A19673  13.949  18.588   5.610 -0.0542 -0.1918 -0.0351
 1230loPI   C4A19674  13.683  18.578   6.012  0.1444 -0.0045  0.0407
 1230loPI   C5A19675  13.513  18.886   6.356  0.2553 -0.0718  0.2458
 1230loPI   C6A19676  13.564  18.945   6.873 -0.1321  0.0430 -0.1277
 1230loPI   C1B19677  13.916  18.697   4.842  0.1792  0.0663  0.1686
 1230loPI   C2B19678  13.638  18.671   5.179  0.1387  0.0768  0.2245
 1230loPI   C3B19679  13.522  18.831   5.510 -0.1574  0.1814 -0.1428
 1230loPI   C4B19680  13.513  19.036   5.837  0.0182  0.1519  0.0151
 1231loPI    C119681   0.070  10.360   4.595 -0.1320 -0.1501  0.0308
 1231loPI    C219682   0.313  10.505   4.313  0.1108 -0.0858  0.2693
 1231loPI    C319683  -0.059  10.395   4.218  0.0477  0.3329  0.0071
 1231loPI   PO419684   0.125  10.355   4.886 -0.2824 -0.1414  0.1509
 1231loPI   GL119685   0.010  10.237   5.202  0.0912  0.1156 -0.0642
 1231loPI   GL219686  -0.256   9.982   5.290 -0.1152 -0.1298 -0.0054
 1231loPI   C1A19687   0.223   9.884   5.546  0.4094 -0.0102  0.0175
 1231loPI   C2A19688   0.193   9.482   5.677  0.1527  0.3051  0.0811
 1231loPI   C3A19689   0.430   9.116   5.754  0.0907  0.4759 -0.0098
 1231loPI   C4A19690   0.710   8.927   6.183 -0.2338 -0.1548 -0.0342
 1231loPI   C5A19691   1.042   9.082   6.386 -0.0229 -0.2856  0.0983
 1231loPI   C6A19692   1.079   9.131   6.865 -0.4830  0.2673 -0.0436
 1231loPI   C1B19693  -0.236  10.112   5.606 -0.3933  0.2112  0.2208
 1231loPI   C2B19694  -0.349  10.135   5.933  0.2313 -0.2340 -0.1092
 1231loPI   C3B19695  -0.326  10.028   6.304 -0.0202  0.2390  0.1024
 1231loPI   C4B19696  -0.127  10.306   6.388  0.1116 -0.0062  0.1462
 1232loPI    C119697   7.593   2.905   4.057 -0.1025  0.1916  0.1619
 1232loPI    C219698   7.666   2.764   3.690  0.1099 -0.0624  0.2979
 1232loPI    C319699   7.561   3.147   3.740  0.0037 -0.0450 -0.0329
 1232loPI   PO419700   7.412   2.803   4.229 -0.2139  0.1711 -0.1357
 1232loPI   GL119701   7.223   2.788   4.622 -0.1154  0.1297  0.5858
 1232loPI   GL219702   7.556   2.675   4.771  0.3098  0.0993 -0.2510
 1232loPI   C1A19703   7.041   2.690   4.948 -0.0300  0.1393  0.0348
 1232loPI   C2A19704   7.180   2.536   5.324  0.4188 -0.1567 -0.2302
 1232loPI   C3A19705   7.160   2.518   5.713  0.1275 -0.0674 -0.1196
 1232loPI   C4A19706   6.900   2.393   6.106  0.1231 -0.2075 -0.0266
 1232loPI   C5A19707   6.851   2.337   6.559 -0.2093  0.1760  0.0211
 1232loPI   C6A19708   6.872   2.621   7.005 -0.0080 -0.1646  0.0205
 1232loPI   C1B19709   7.497   2.814   5.111 -0.0776  0.0642 -0.1806
 1232loPI   C2B19710   7.292   2.955   5.547 -0.3663  0.1224 -0.3107
 1232loPI   C3B19711   7.263   2.970   5.968  0.1848 -0.1921 -0.0270
 1232loPI   C4B19712   7.537   2.998   6.347  0.3942 -0.0553 -0.0321
 1233loPI    C119713  18.523  11.902   4.797  0.2362 -0.5504  0.0482
 1233loPI    C219714  18.411  11.650   4.508  0.0847  0.0792 -0.4661
 1233loPI    C319715  18.795  11.754   4.545  0.1276 -0.1197 -0.3349
 1233loPI   PO419716  18.262  11.906   4.915 -0.1016  0.0285 -0.3022
 1233loPI   GL119717  18.247  11.632   5.363  0.0840  0.4785 -0.1271
 1233loPI   GL219718  17.915  11.753   5.287  0.2498 -0.0188  0.1591
 1233loPI   C1A19719  18.418  11.876   5.773 -0.0128 -0.0977  0.1415
 1233loPI   C2A19720  18.780  12.104   5.950 -0.1678 -0.0028  0.1296
 1233loPI   C3A19721  19.148  12.082   6.133  0.3248  0.1095 -0.2858
 1233loPI   C4A19722  19.240  12.146   6.611  0.1620  0.1616  0.0254
 1233loPI   C5A19723  19.263  12.148   7.110  0.0572  0.5875  0.1242
 1233loPI   C6A19724  19.130  12.281   7.583 -0.2452 -0.1386  0.0741
 1233loPI   C1B19725  17.777  11.862   5.693  0.1429 -0.0834  0.1284
 1233loPI   C2B19726  17.855  12.113   6.078  0.0506 -0.0304  0.1233
 1233loPI   C3B19727  17.740  12.188   6.442  0.3596  0.0202 -0.0656
 1233loPI   C4B19728  17.579  12.061   6.922  0.0836 -0.1481  0.3815
 1234loPI    C119729  16.632  18.168   4.022 -0.1016  0.0608 -0.0730
 1234loPI    C219730  16.770  18.515   3.876 -0.0832  0.0932  0.0213
 1234loPI    C319731  16.407  18.383   3.770 -0.0772  0.1254 -0.0398
 1234loPI   PO419732  16.626  18.208   4.278  0.0087  0.0342  0.2082
 1234loPI   GL119733  16.672  17.981   4.697 -0.1470 -0.0861  0.3057
 1234loPI   GL219734  16.881  17.869   4.828 -0.1673 -0.0090 -0.4799
 1234loPI   C1A19735  16.588  18.260   5.083 -0.2086  0.2312 -0.0990
 1234loPI   C2A19736  16.470  18.444   5.578 -0.3619 -0.2723  0.1430
 1234loPI   C3A19737  16.560  18.464   5.907 -0.1198  0.0740 -0.0838
 1234loPI   C4A19738  16.510  18.481   6.363  0.0676 -0.1338 -0.2456
 1234loPI   C5A19739  16.566  18.311   6.708 -0.3754 -0.2295 -0.0131
 1234loPI   C6A19740  16.887  18.524   7.072  0.0889  0.2168  0.2678
 1234loPI   C1B19741  16.477  17.768   5.063  0.0073  0.1791 -0.2034
 1234loPI   C2B19742  16.345  17.839   5.414 -0.1470 -0.2606  0.1461
 1234loPI   C3B19743  16.360  17.848   5.840 -0.0044  0.0448 -0.3747
 1234loPI   C4B19744  16.489  18.059   6.127  0.2329 -0.1083 -0.0493
 1235loPI    C119745  17.037  13.246   4.495 -0.0799  0.0084 -0.0168
 1235loPI    C219746  16.964  13.409   4.137 -0.1199 -0.1556 -0.0843
 1235loPI    C319747  17.324  13.255   4.217 -0.0262  0.1222  0.0416
 1235loPI   PO419748  16.927  13.408   4.637 -0.0665 -0.1136  0.0371
 1235loPI   GL119749  16.807  13.600   4.996 -0.1980 -0.1031  0.0948
 1235loPI   GL219750  17.083  13.854   4.961 -0.3203  0.0284 -0.0503
 1235loPI   C1A19751  16.649  13.259   5.195 -0.0673  0.1742 -0.0469
 1235loPI   C2A19752  16.661  13.047   5.559 -0.0399 -0.2796  0.0973
 1235loPI   C3A19753  16.565  13.111   6.036  0.1442  0.2801 -0.1336
 1235loPI   C4A19754  16.680  13.055   6.501 -0.1551 -0.4982 -0.1144
 1235loPI   C5A19755  16.594  13.093   7.014 -0.2323  0.0592  0.0068
 1235loPI   C6A19756  16.203  13.101   7.223 -0.1085 -0.0102  0.0525
 1235loPI   C1B19757  17.128  13.805   5.441  0.0408  0.0309 -0.0604
 1235loPI   C2B19758  17.088  13.990   5.916  0.3846 -0.1333 -0.0396
 1235loPI   C3B19759  16.932  14.271   6.394  0.2093  0.1551 -0.1506
 1235loPI   C4B19760  17.231  14.304   6.781  0.0482 -0.0302 -0.0449
 1236loPI    C119761   4.929   6.430   4.519  0.0458  0.2064  0.1287
 1236loPI    C219762   5.009   6.640   4.189 -0.0373  0.1049  0.0430
 1236loPI    C319763   4.854   6.273   4.159  0.2693 -0.0404  0.1858
 1236loPI   PO419764   5.095   6.453   4.698 -0.3077 -0.0347 -0.2668
 1236loPI   GL119765   5.139   6.612   5.109 -0.1060 -0.0177 -0.0793
 1236loPI   GL219766   5.423   6.826   5.057 -0.2356  0.1338 -0.0132
 1236loPI   C1A19767   4.908   6.907   5.369 -0.0301 -0.1318  0.0944
 1236loPI   C2A19768   4.761   7.094   5.743 -0.0275 -0.0245  0.0396
 1236loPI   C3A19769   4.550   7.388   6.079 -0.1378  0.1118 -0.0137
 1236loPI   C4A19770   4.503   7.281   6.509  0.0781  0.0118 -0.3963
 1236loPI   C5A19771   4.740   6.949   6.768  0.3483  0.1979 -0.0892
 1236loPI   C6A19772   5.137   6.857   6.759  0.1367  0.0809 -0.1439
 1236loPI   C1B19773   5.450   6.796   5.463  0.2244  0.1624 -0.1996
 1236loPI   C2B19774   5.504   6.785   5.909 -0.1186  0.0045 -0.0455
 1236loPI   C3B19775   5.456   6.691   6.257  0.1221 -0.2723 -0.0490
 1236loPI   C4B19776   5.328   6.396   6.611 -0.1440 -0.1330  0.2086
 1237loPI    C119777   0.095  12.962   4.518  0.1585  0.0709 -0.0782
 1237loPI    C219778   0.338  13.198   4.306  0.1303  0.0883 -0.0914
 1237loPI    C319779   0.036  13.008   4.125  0.1554  0.0390 -0.0815
 1237loPI   PO419780   0.080  13.084   4.810  0.1362 -0.2589 -0.2186
 1237loPI   GL119781  -0.003  13.138   5.241 -0.1801 -0.1569 -0.3785
 1237loPI   GL219782  -0.030  12.803   5.244  0.4762 -0.0497 -0.3316
 1237loPI   C1A19783   0.007  13.147   5.687 -0.0142  0.2829  0.2852
 1237loPI   C2A19784  -0.120  13.042   6.076  0.1320 -0.0779  0.2160
 1237loPI   C3A19785  -0.005  12.995   6.501 -0.0608  0.1888  0.0212
 1237loPI   C4A19786  -0.024  13.218   6.891 -0.2645 -0.5000 -0.1151
 1237loPI   C5A19787   0.060  13.286   7.250 -0.2799  0.0894  0.2781
 1237loPI   C6A19788   0.378  13.236   7.577 -0.1394  0.0121  0.0764
 1237loPI   C1B19789  -0.194  12.649   5.553 -0.1782  0.0592  0.0958
 1237loPI   C2B19790  -0.406  12.617   5.884 -0.2452 -0.2390  0.0286
 1237loPI   C3B19791  -0.376  12.587   6.259 -0.1604 -0.1838 -0.2944
 1237loPI   C4B19792  -0.240  12.507   6.542 -0.0866 -0.4407  0.1707
 1238loPI    C119793  11.455   0.384   3.914  0.0085  0.0656 -0.0322
 1238loPI    C219794  11.329   0.659   3.653  0.1474  0.2287  0.0706
 1238loPI    C319795  11.670   0.461   3.586 -0.0105 -0.0042 -0.0614
 1238loPI   PO419796  11.508   0.472   4.125  0.3959 -0.0581 -0.1107
 1238loPI   GL119797  11.617   0.234   4.470 -0.1150 -0.1330 -0.0974
 1238loPI   GL219798  11.843   0.539   4.541  0.0308 -0.1522 -0.0674
 1238loPI   C1A19799  11.637   0.083   4.912  0.0391  0.0979 -0.5021
 1238loPI   C2A19800  11.677  -0.052   5.362 -0.0860  0.0272  0.0783
 1238loPI   C3A19801  11.891   0.004   5.773 -0.1461  0.0781  0.2457
 1238loPI   C4A19802  11.955  -0.135   6.240  0.1695  0.0115 -0.1401
 1238loPI   C5A19803  11.766  -0.456   6.407 -0.2467  0.0537 -0.0150
 1238loPI   C6A19804  11.350  -0.541   6.570  0.1414 -0.2229 -0.0532
 1238loPI   C1B19805  11.784   0.556   4.975 -0.0936  0.1713 -0.2592
 1238loPI   C2B19806  11.769   0.817   5.329 -0.2611  0.0632  0.1456
 1238loPI   C3B19807  11.580   0.920   5.781 -0.1754 -0.3143  0.1594
 1238loPI   C4B19808  11.437   0.779   6.097  0.4236 -0.1495  0.1959
 1239loPI    C119809   1.382   2.086   4.106 -0.0082  0.0949  0.0316
 1239loPI    C219810   1.597   2.200   4.424 -0.0808  0.1341  0.0670
 1239loPI    C319811   1.719   2.294   4.055  0.0704 -0.0203  0.0763
 1239loPI   PO419812   1.090   2.265   4.220 -0.0602 -0.3243  0.2184
 1239loPI   GL119813   0.913   2.257   4.633  0.0957 -0.0324  0.2598
 1239loPI   GL219814   1.166   2.032   4.627  0.0143  0.0194 -0.2195
 1239loPI   C1A19815   1.126   2.408   5.082  0.1011  0.1080 -0.0024
 1239loPI   C2A19816   1.254   2.231   5.437 -0.2436  0.0126  0.2168
 1239loPI   C3A19817   1.464   2.182   5.823 -0.0639  0.0247  0.2469
 1239loPI   C4A19818   1.535   2.097   6.234  0.2246  0.0820 -0.2824
 1239loPI   C5A19819   1.463   1.799   6.704  0.0481 -0.3399 -0.0111
 1239loPI   C6A19820   1.547   1.548   7.072 -0.0058 -0.1801 -0.2350
 1239loPI   C1B19821   1.295   1.884   5.110  0.1938 -0.2087  0.0278
 1239loPI   C2B19822   1.513   1.678   5.507  0.0549 -0.1167  0.0875
 1239loPI   C3B19823   1.697   1.732   5.873 -0.3139  0.0485  0.0672
 1239loPI   C4B19824   1.696   1.569   6.328 -0.0373 -0.1055  0.0025
 1240loPI    C119825   4.544  15.482   4.480 -0.0183 -0.1596  0.1679
 1240loPI    C219826   4.307  15.421   4.164  0.1235  0.1955 -0.0130
 1240loPI    C319827   4.648  15.216   4.201 -0.0613 -0.0994  0.0941
 1240loPI   PO419828   4.371  15.626   4.613  0.0282 -0.1884 -0.2298
 1240loPI   GL119829   4.357  15.852   5.091  0.0640  0.0389  0.2584
 1240loPI   GL219830   4.042  15.843   4.874 -0.1516 -0.2266 -0.5143
 1240loPI   C1A19831   4.224  15.969   5.472  0.1753 -0.4994  0.1765
 1240loPI   C2A19832   4.242  16.110   5.812 -0.5819 -0.2269 -0.0787
 1240loPI   C3A19833   4.272  15.929   6.113 -0.1553 -0.1434  0.0567
 1240loPI   C4A19834   3.974  15.761   6.314  0.0769 -0.1388 -0.0366
 1240loPI   C5A19835   3.865  15.548   6.785 -0.0108 -0.0250  0.0714
 1240loPI   C6A19836   4.069  15.255   7.091  0.0923  0.0492  0.0310
 1240loPI   C1B19837   3.853  16.212   5.076 -0.0937  0.1831 -0.1333
 1240loPI   C2B19838   3.719  16.195   5.470  0.2660 -0.3015  0.0448
 1240loPI   C3B19839   3.817  15.824   5.852  0.2255 -0.1437 -0.3902
 1240loPI   C4B19840   3.812  15.510   5.878 -0.0101  0.1756  0.1424
 1241loPI    C119841  13.590   1.811   4.034 -0.0904 -0.3271 -0.0219
 1241loPI    C219842  13.800   1.831   3.694 -0.0163 -0.2167  0.0296
 1241loPI    C319843  13.413   1.933   3.696  0.0842  0.1826  0.0613
 1241loPI   PO419844  13.733   1.933   4.178  0.1485  0.2145 -0.3300
 1241loPI   GL119845  13.533   1.995   4.576  0.3136  0.1779  0.2229
 1241loPI   GL219846  13.228   2.235   4.702 -0.0742 -0.2964 -0.0077
 1241loPI   C1A19847  13.426   1.757   4.896 -0.0221  0.0540 -0.2182
 1241loPI   C2A19848  13.462   1.528   5.351  0.1368 -0.1177 -0.2827
 1241loPI   C3A19849  13.464   1.519   5.784 -0.2942 -0.0665  0.1791
 1241loPI   C4A19850  13.453   1.316   6.219  0.0450  0.1727  0.0367
 1241loPI   C5A19851  13.248   1.015   6.407  0.0082  0.0796 -0.0100
 1241loPI   C6A19852  13.121   0.746   6.200 -0.3523 -0.0513  0.2524
 1241loPI   C1B19853  13.543   2.378   5.048 -0.1331 -0.0973  0.0395
 1241loPI   C2B19854  13.435   2.570   5.374  0.2337  0.0461  0.0807
 1241loPI   C3B19855  13.390   2.456   5.889 -0.0463 -0.0252  0.0546
 1241loPI   C4B19856  13.211   2.334   6.284  0.0571  0.0651  0.1080
 1242loPI    C119857   6.740  13.509   4.517  0.2331  0.0450 -0.0037
 1242loPI    C219858   6.825  13.891   4.430  0.3262  0.0207 -0.0211
 1242loPI    C319859   6.923  13.601   4.173  0.3528 -0.0253  0.0404
 1242loPI   PO419860   6.553  13.524   4.688 -0.0166 -0.0548  0.0737
 1242loPI   GL119861   6.600  13.660   5.108 -0.1737 -0.2064  0.2953
 1242loPI   GL219862   6.310  13.872   5.291 -0.0363 -0.0141  0.0248
 1242loPI   C1A19863   6.581  13.496   5.552  0.1089  0.0152 -0.0428
 1242loPI   C2A19864   6.686  13.863   5.776  0.0739 -0.0470  0.1132
 1242loPI   C3A19865   6.722  14.158   6.159 -0.1672  0.0480  0.0843
 1242loPI   C4A19866   7.003  14.164   6.467  0.1442 -0.2790  0.2374
 1242loPI   C5A19867   7.312  13.845   6.556  0.0780  0.1280  0.1233
 1242loPI   C6A19868   7.834  13.656   6.514  0.0548 -0.1274  0.0543
 1242loPI   C1B19869   6.297  14.327   5.468 -0.2481 -0.2219  0.0855
 1242loPI   C2B19870   6.344  14.289   5.893  0.0722 -0.0708  0.1081
 1242loPI   C3B19871   6.285  14.328   6.274  0.0315  0.0499  0.2474
 1242loPI   C4B19872   6.142  14.613   6.608  0.1294 -0.1415 -0.0647
 1243loPI    C119873  15.848  12.739   4.093 -0.0791 -0.1586  0.1226
 1243loPI    C219874  16.045  13.087   4.110  0.2272 -0.3253  0.0451
 1243loPI    C319875  16.054  12.868   3.775  0.2493 -0.5303  0.1780
 1243loPI   PO419876  15.938  12.691   4.475 -0.0407 -0.0837 -0.1150
 1243loPI   GL119877  15.961  12.706   4.816  0.2039  0.0881 -0.0265
 1243loPI   GL219878  16.217  12.846   5.038  0.0363  0.2740 -0.2290
 1243loPI   C1A19879  15.759  12.509   5.220  0.0786  0.0386 -0.0427
 1243loPI   C2A19880  15.879  12.509   5.682 -0.1251  0.0975 -0.0083
 1243loPI   C3A19881  15.671  12.672   6.080  0.0923 -0.4995  0.1516
 1243loPI   C4A19882  15.338  12.816   6.364  0.1415  0.1363 -0.2000
 1243loPI   C5A19883  14.919  12.989   6.606  0.1673  0.2424  0.2282
 1243loPI   C6A19884  14.512  12.930   6.778  0.3481  0.0992  0.1038
 1243loPI   C1B19885  16.222  12.826   5.435 -0.2278 -0.1241  0.0159
 1243loPI   C2B19886  16.357  12.641   5.784 -0.3840 -0.1774  0.0172
 1243loPI   C3B19887  16.439  12.549   6.240 -0.0009  0.2061  0.1931
 1243loPI   C4B19888  16.495  12.503   6.713  0.0945  0.0598  0.0518
 1244loPI    C119889  16.778  12.250   4.365 -0.1910 -0.0930  0.0221
 1244loPI    C219890  16.634  12.186   3.997 -0.1076 -0.3131  0.0267
 1244loPI    C319891  17.029  12.222   4.055 -0.1594  0.5269 -0.0216
 1244loPI   PO419892  16.760  12.474   4.442  0.0181  0.0532  0.0666
 1244loPI   GL119893  16.452  12.511   4.780 -0.3249  0.3262 -0.0001
 1244loPI   GL219894  16.243  12.334   4.952 -0.1197 -0.0776  0.2420
 1244loPI   C1A19895  16.681  12.555   5.232 -0.1191 -0.0692  0.1456
 1244loPI   C2A19896  16.698  12.297   5.555 -0.0388 -0.0505  0.0213
 1244loPI   C3A19897  16.684  12.285   5.917  0.0347 -0.3163  0.1389
 1244loPI   C4A19898  16.887  12.130   6.268  0.0544 -0.0771  0.2041
 1244loPI   C5A19899  16.840  11.831   6.536  0.2375 -0.0860 -0.1702
 1244loPI   C6A19900  16.848  11.429   6.723  0.2472  0.0351 -0.0765
 1244loPI   C1B19901  16.274  12.219   5.380  0.2904 -0.3662 -0.0029
 1244loPI   C2B19902  16.207  12.144   5.827  0.0840  0.1324 -0.3390
 1244loPI   C3B19903  15.974  12.319   6.241 -0.1439  0.2254  0.0687
 1244loPI   C4B19904  16.041  12.135   6.647 -0.0027  0.0908  0.1181
 1245loPI    C119905   0.238  19.288   4.060  0.1198 -0.1648  0.0049
 1245loPI    C219906  -0.007  19.116   3.794 -0.0808  0.1358 -0.0099
 1245loPI    C319907   0.374  19.192   3.697 -0.0766 -0.0115 -0.1110
 1245loPI   PO419908   0.053  19.467   4.143 -0.0858  0.0907 -0.0319
 1245loPI   GL119909  -0.143  19.482   4.516 -0.0192 -0.2123  0.0626
 1245loPI   GL219910  -0.139  19.276   4.748  0.0017  0.0042  0.4306
 1245loPI   C1A19911  -0.387  19.690   4.911 -0.0277  0.5312  0.2002
 1245loPI   C2A19912  -0.428  19.753   5.339 -0.2566 -0.1226 -0.1902
 1245loPI   C3A19913  -0.131  19.749   5.685  0.0183 -0.0668 -0.0632
 1245loPI   C4A19914   0.014  19.832   6.016  0.2914 -0.2543  0.1052
 1245loPI   C5A19915  -0.182  19.994   6.474 -0.0854  0.0118 -0.1247
 1245loPI   C6A19916  -0.132  19.914   6.893  0.2967  0.2446 -0.1761
 1245loPI   C1B19917  -0.189  19.307   5.151  0.3140 -0.0042  0.4107
 1245loPI   C2B19918  -0.424  19.334   5.560  0.0466 -0.3695 -0.2505
 1245loPI   C3B19919  -0.422  19.534   6.023  0.3361  0.0904 -0.1503
 1245loPI   C4B19920  -0.145  19.459   6.343 -0.2546  0.0948  0.2577
 1246loPI    C119921  14.616  13.112   4.477  0.0820 -0.0604 -0.1340
 1246loPI    C219922  14.907  13.076   4.205  0.1372  0.1652 -0.1069
 1246loPI    C319923  14.526  13.101   4.087  0.1197 -0.1943 -0.1395
 1246loPI   PO419924  14.666  13.184   4.651  0.0556  0.0493 -0.1830
 1246loPI   GL119925  14.861  13.087   4.998  0.0893 -0.0672  0.1640
 1246loPI   GL219926  14.842  13.336   5.197 -0.0975 -0.2054 -0.2004
 1246loPI   C1A19927  15.033  12.866   5.295 -0.1690  0.0386  0.1220
 1246loPI   C2A19928  15.074  12.478   5.606 -0.0203  0.1796 -0.1561
 1246loPI   C3A19929  15.149  12.471   6.008 -0.1812  0.0054 -0.0959
 1246loPI   C4A19930  15.098  12.253   6.454 -0.3242 -0.2985  0.0347
 1246loPI   C5A19931  15.031  12.027   6.798  0.3261  0.0008  0.1864
 1246loPI   C6A19932  14.687  12.136   7.076 -0.0127 -0.0818  0.2025
 1246loPI   C1B19933  14.870  13.256   5.661  0.1271  0.0919  0.1450
 1246loPI   C2B19934  15.147  13.355   6.170 -0.0423  0.1135 -0.1225
 1246loPI   C3B19935  15.306  13.267   6.533  0.2396  0.3439  0.3218
 1246loPI   C4B19936  15.281  13.379   6.910 -0.1872 -0.1777  0.0720
 1247loPI    C119937   2.867  13.940   4.660 -0.1616 -0.1777 -0.0244
 1247loPI    C219938   2.534  13.867   4.450 -0.1710 -0.1204 -0.0296
 1247loPI    C319939   2.784  14.158   4.335 -0.0807 -0.2133 -0.0690
 1247loPI   PO419940   2.814  13.976   4.974 -0.2326  0.0312  0.0371
 1247loPI   GL119941   2.712  13.881   5.373  0.2586 -0.1982  0.3936
 1247loPI   GL219942   2.414  13.827   5.396  0.1481 -0.1440  0.1556
 1247loPI   C1A19943   2.873  13.505   5.334 -0.0727 -0.1601 -0.1105
 1247loPI   C2A19944   2.854  13.342   5.766 -0.1279 -0.3159 -0.0140
 1247loPI   C3A19945   2.874  13.093   6.098 -0.2217 -0.0653 -0.2647
 1247loPI   C4A19946   2.695  13.094   6.571  0.1892  0.2520  0.0493
 1247loPI   C5A19947   2.793  12.927   6.838  0.1516  0.0916 -0.3405
 1247loPI   C6A19948   2.761  13.182   7.173  0.0989 -0.3909  0.2307
 1247loPI   C1B19949   2.587  13.806   5.870 -0.0761 -0.2508  0.1654
 1247loPI   C2B19950   2.818  14.103   6.041  0.1990  0.0740  0.0014
 1247loPI   C3B19951   3.027  14.381   5.919 -0.0307 -0.0681  0.0133
 1247loPI   C4B19952   2.963  14.771   5.625 -0.3317 -0.1240  0.0079
 1248loPI    C119953  17.954   5.920   4.490 -0.2877 -0.0605 -0.0696
 1248loPI    C219954  18.048   5.594   4.278 -0.1031 -0.0660  0.0186
 1248loPI    C319955  18.008   5.947   4.095  0.0767 -0.0665 -0.0235
 1248loPI   PO419956  17.800   5.825   4.717 -0.2064 -0.2491  0.0559
 1248loPI   GL119957  17.575   5.583   4.985 -0.2591  0.4820 -0.2010
 1248loPI   GL219958  17.560   5.211   5.049  0.0089 -0.0376 -0.3035
 1248loPI   C1A19959  17.511   5.769   5.421 -0.0673 -0.1228 -0.1794
 1248loPI   C2A19960  17.605   6.010   5.809  0.3039 -0.1138  0.1087
 1248loPI   C3A19961  17.386   6.240   6.125  0.0313  0.0912 -0.1512
 1248loPI   C4A19962  17.228   6.259   6.588  0.2817  0.0088 -0.1018
 1248loPI   C5A19963  17.438   6.497   6.925  0.2511  0.0731 -0.0106
 1248loPI   C6A19964  17.332   6.784   7.226  0.0705 -0.1520 -0.0308
 1248loPI   C1B19965  17.658   5.289   5.492  0.1726  0.0785  0.2133
 1248loPI   C2B19966  17.689   5.523   5.828  0.0715  0.1796  0.0546
 1248loPI   C3B19967  17.400   5.601   6.211  0.2016  0.0521 -0.3386
 1248loPI   C4B19968  17.470   5.743   6.535  0.0064 -0.3290 -0.2950
 1249loPI    C119969   3.197   2.489   4.527 -0.1102  0.1084 -0.0943
 1249loPI    C219970   3.538   2.688   4.592 -0.0192 -0.0619 -0.0428
 1249loPI    C319971   3.351   2.721   4.239  0.1941 -0.1779 -0.1689
 1249loPI   PO419972   3.244   2.180   4.540  0.2294 -0.2947  0.1087
 1249loPI   GL119973   3.089   1.859   4.775 -0.1552  0.2013  0.0011
 1249loPI   GL219974   2.782   2.050   4.882 -0.0662 -0.3805  0.1476
 1249loPI   C1A19975   3.269   1.638   5.079  0.2437 -0.0399 -0.0467
 1249loPI   C2A19976   3.449   1.678   5.434 -0.3938 -0.0785 -0.0291
 1249loPI   C3A19977   3.649   1.670   5.830  0.0021 -0.2103 -0.2309
 1249loPI   C4A19978   4.013   1.674   5.918  0.5603  0.2871 -0.1069
 1249loPI   C5A19979   4.366   1.358   6.161  0.3248  0.1803 -0.3667
 1249loPI   C6A19980   4.216   1.266   6.647 -0.1817 -0.1054  0.1432
 1249loPI   C1B19981   3.011   2.061   5.289 -0.2011 -0.0367  0.1219
 1249loPI   C2B19982   3.129   2.264   5.628 -0.0322  0.0070  0.2640
 1249loPI   C3B19983   3.463   2.628   5.642  0.2417  0.0942 -0.1463
 1249loPI   C4B19984   3.858   2.893   5.818  0.0558  0.2038 -0.2731
 1250loPI    C119985  13.737  14.075   4.673  0.0027 -0.5279  0.0018
 1250loPI    C219986  13.374  13.988   4.530 -0.0601  0.1651 -0.2981
 1250loPI    C319987  13.674  14.067   4.278  0.1908  0.0312 -0.0477
 1250loPI   PO419988  13.734  14.018   4.868 -0.2039 -0.1586 -0.0184
 1250loPI   GL119989  13.705  14.003   5.233 -0.0787 -0.1779  0.1687
 1250loPI   GL219990  13.593  13.755   5.266  0.4071  0.0433 -0.0161
 1250loPI   C1A19991  13.763  14.019   5.621 -0.0631  0.1972 -0.2194
 1250loPI   C2A19992  13.735  14.074   6.108 -0.2756  0.1728  0.0200
 1250loPI   C3A19993  13.596  14.098   6.580 -0.2708  0.1430 -0.1404
 1250loPI   C4A19994  13.527  14.369   6.874  0.4412 -0.2308  0.2987
 1250loPI   C5A19995  13.645  14.415   7.304  0.1796  0.0165 -0.1477
 1250loPI   C6A19996  13.877  14.317   7.611  0.3896 -0.1343 -0.0787
 1250loPI   C1B19997  13.648  13.501   5.617 -0.0063 -0.2316 -0.0470
 1250loPI   C2B19998  13.547  13.536   6.064  0.0724 -0.1296 -0.0609
 1250loPI   C3B19999  13.227  13.260   6.188  0.2548 -0.4578 -0.1603
 1250loPI   C4B20000  12.983  13.158   6.466 -0.0055 -0.0797 -0.0892
 1251loPI    C120001  12.430  18.860   3.958 -0.0075 -0.1189 -0.3092
 1251loPI    C220002  12.060  18.983   4.044 -0.0466 -0.2020 -0.3568
 1251loPI    C320003  12.243  19.115   3.714  0.1863  0.2871 -0.0446
 1251loPI   PO420004  12.441  18.643   4.184 -0.1750 -0.0792  0.1788
 1251loPI   GL120005  12.463  18.702   4.647 -0.2497  0.0378 -0.0035
 1251loPI   GL220006  12.734  18.509   4.620  0.1654 -0.1345 -0.3483
 1251loPI   C1A20007  12.735  18.995   4.955  0.0518  0.1806 -0.1027
 1251loPI   C2A20008  12.989  19.057   5.254  0.0534  0.0057 -0.2144
 1251loPI   C3A20009  13.052  18.922   5.680 -0.1311  0.2076  0.0531
 1251loPI   C4A20010  13.049  18.753   6.061 -0.0689  0.1361 -0.3067
 1251loPI   C5A20011  13.227  18.492   6.244 -0.0318 -0.3201 -0.0566
 1251loPI   C6A20012  13.372  18.030   6.066 -0.0386  0.0511  0.0028
 1251loPI   C1B20013  12.721  18.398   4.993  0.4181 -0.0540  0.0349
 1251loPI   C2B20014  12.658  18.022   5.267  0.0025  0.0328 -0.0610
 1251loPI   C3B20015  12.470  17.673   5.282 -0.1352 -0.1051 -0.3067
 1251loPI   C4B20016  12.194  17.802   5.562  0.1286 -0.1084  0.0267
 1252loPI    C120017   9.102  15.710   4.613  0.1278 -0.0627  0.2473
 1252loPI    C220018   8.779  15.872   4.783  0.1404  0.1071  0.1123
 1252loPI    C320019   8.857  15.940   4.397  0.1382 -0.2343  0.0485
 1252loPI   PO420020   9.333  15.726   4.760 -0.2751  0.1356  0.2110
 1252loPI   GL120021   9.323  15.559   5.173 -0.0577  0.0908  0.1834
 1252loPI   GL220022   9.080  15.849   5.202 -0.1300 -0.0959 -0.2971
 1252loPI   C1A20023   9.273  15.650   5.677  0.1045  0.1665  0.0776
 1252loPI   C2A20024   9.254  15.689   6.139  0.0704  0.0779 -0.1607
 1252loPI   C3A20025   9.345  15.595   6.533  0.2197 -0.0036  0.0624
 1252loPI   C4A20026   9.718  15.757   6.690  0.0631 -0.0520 -0.2385
 1252loPI   C5A20027  10.045  15.412   6.946 -0.0230  0.0586  0.0783
 1252loPI   C6A20028   9.819  15.017   6.981  0.0009 -0.2607  0.2958
 1252loPI   C1B20029   8.838  15.874   5.605  0.1309  0.1584  0.5843
 1252loPI   C2B20030   8.878  16.027   6.032  0.0661 -0.1617  0.1455
 1252loPI   C3B20031   8.804  15.785   6.361  0.0518  0.2409 -0.0726
 1252loPI   C4B20032   8.851  15.365   6.523  0.2387  0.0176  0.1649
 1253loPI    C120033  13.202   5.408   4.311 -0.0616  0.1489 -0.1594
 1253loPI    C220034  13.278   5.362   3.921 -0.1594 -0.2671 -0.1337
 1253loPI    C320035  13.086   5.075   4.123 -0.1837 -0.0190  0.2044
 1253loPI   PO420036  13.073   5.640   4.364 -0.3117  0.1141  0.0208
 1253loPI   GL120037  12.696   5.605   4.603  0.0439  0.2434 -0.1691
 1253loPI   GL220038  12.620   5.767   4.858 -0.0665  0.2772 -0.0421
 1253loPI   C1A20039  12.551   5.258   5.002 -0.0115  0.0168 -0.1484
 1253loPI   C2A20040  12.458   5.372   5.486 -0.1012  0.1124  0.0923
 1253loPI   C3A20041  12.309   5.245   5.853  0.1475 -0.1337 -0.1435
 1253loPI   C4A20042  12.397   4.935   6.205 -0.1306  0.4205  0.0803
 1253loPI   C5A20043  12.378   4.571   6.512 -0.1099 -0.0648  0.0965
 1253loPI   C6A20044  12.213   4.234   6.578  0.0459 -0.0052 -0.1909
 1253loPI   C1B20045  12.579   5.834   5.288  0.2453 -0.2080  0.0477
 1253loPI   C2B20046  12.555   5.797   5.718 -0.3891  0.0929  0.0395
 1253loPI   C3B20047  12.635   5.592   6.014 -0.1812 -0.1490  0.0319
 1253loPI   C4B20048  12.760   5.239   6.362 -0.1968  0.0245  0.5352
 1254loPI    C120049   4.904  17.875   4.495  0.5551  0.0782  0.1972
 1254loPI    C220050   5.190  17.920   4.218  0.0899  0.0205 -0.3108
 1254loPI    C320051   4.816  17.833   4.107 -0.0876 -0.1247  0.3531
 1254loPI   PO420052   4.994  17.820   4.750 -0.1232 -0.1393  0.1446
 1254loPI   GL120053   5.191  18.092   5.024 -0.1065  0.1972 -0.3284
 1254loPI   GL220054   5.024  17.982   5.181  0.1684 -0.0466 -0.2777
 1254loPI   C1A20055   5.328  18.261   5.469 -0.0378 -0.0542 -0.1597
 1254loPI   C2A20056   5.103  18.462   5.862  0.2418  0.1618  0.1376
 1254loPI   C3A20057   5.063  18.805   5.973 -0.0027  0.1597  0.1969
 1254loPI   C4A20058   5.276  19.030   6.252 -0.4443  0.0107  0.2778
 1254loPI   C5A20059   5.411  19.218   6.639  0.1211  0.6931 -0.2364
 1254loPI   C6A20060   5.231  19.264   7.003  0.0697  0.1258  0.1443
 1254loPI   C1B20061   4.872  18.438   5.263 -0.1365 -0.0656 -0.0143
 1254loPI   C2B20062   4.481  18.581   5.181  0.4284 -0.3157  0.1219
 1254loPI   C3B20063   4.052  18.822   5.120 -0.2357 -0.0988  0.2276
 1254loPI   C4B20064   3.989  19.166   5.208 -0.0577  0.1035  0.2158
 1255loPI    C120065  18.072   3.845   4.623 -0.0551 -0.0534 -0.1216
 1255loPI    C220066  17.909   4.075   4.340  0.1533  0.0046 -0.1963
 1255loPI    C320067  18.202   3.819   4.246 -0.2433 -0.4774 -0.1634
 1255loPI   PO420068  17.882   3.736   4.832  0.0075  0.0868  0.1384
 1255loPI   GL120069  17.575   3.883   5.167 -0.1348 -0.2460  0.3839
 1255loPI   GL220070  17.887   3.995   5.246  0.0376  0.3998 -0.1978
 1255loPI   C1A20071  17.694   3.835   5.718  0.1487 -0.2958  0.3218
 1255loPI   C2A20072  17.784   3.590   6.105  0.0235 -0.0691  0.0695
 1255loPI   C3A20073  17.689   3.679   6.510  0.0733  0.3775  0.0682
 1255loPI   C4A20074  17.838   3.842   6.953  0.1397  0.0084  0.1327
 1255loPI   C5A20075  18.198   3.811   7.156  0.1662 -0.3836  0.0073
 1255loPI   C6A20076  18.132   3.639   7.502  0.2317 -0.0862  0.1391
 1255loPI   C1B20077  17.733   4.282   5.538 -0.4191  0.0410  0.0433
 1255loPI   C2B20078  17.645   4.357   5.946  0.4408  0.0222 -0.0214
 1255loPI   C3B20079  17.350   4.425   6.235  0.0753  0.0600  0.1365
 1255loPI   C4B20080  16.885   4.289   6.212  0.0843 -0.0025 -0.1928
 1256loPI    C120081   0.888  16.545   4.677 -0.1711  0.1323 -0.0815
 1256loPI    C220082   1.140  16.252   4.780 -0.3231  0.0499  0.0604
 1256loPI    C320083   1.109  16.364   4.398 -0.1357  0.0014  0.0301
 1256loPI   PO420084   0.716  16.549   4.743  0.1367  0.3696  0.1071
 1256loPI   GL120085   0.596  16.668   5.120  0.1244 -0.1466 -0.3563
 1256loPI   GL220086   0.329  16.727   5.161  0.0545  0.1236 -0.0157
 1256loPI   C1A20087   0.654  17.039   5.364 -0.3028 -0.0143  0.0610
 1256loPI   C2A20088   0.587  17.211   5.676 -0.1644 -0.0706  0.1198
 1256loPI   C3A20089   0.540  17.198   6.084 -0.0245 -0.3240 -0.1779
 1256loPI   C4A20090   0.487  17.328   6.500  0.1197  0.0525 -0.0658
 1256loPI   C5A20091   0.331  17.134   6.833  0.1322 -0.3014  0.0375
 1256loPI   C6A20092  -0.186  17.174   6.941  0.0144 -0.2515  0.3276
 1256loPI   C1B20093   0.253  16.837   5.576 -0.1387 -0.0981  0.0773
 1256loPI   C2B20094   0.103  16.815   5.933  0.1580  0.3999 -0.1075
 1256loPI   C3B20095   0.066  17.108   6.337  0.0963  0.5150  0.2498
 1256loPI   C4B20096  -0.126  17.336   5.977  0.0322  0.2754 -0.0958
 1257loPI    C120097  15.809   1.754   4.295  0.0687  0.3063  0.0722
 1257loPI    C220098  15.576   1.665   3.983  0.0814  0.0006  0.1471
 1257loPI    C320099  15.974   1.640   3.949  0.0907  0.1704  0.1267
 1257loPI   PO420100  15.657   1.696   4.510  0.2587 -0.0764 -0.2868
 1257loPI   GL120101  15.525   1.604   4.910 -0.1700  0.2142  0.1343
 1257loPI   GL220102  15.541   1.917   4.974  0.0622 -0.0753 -0.0909
 1257loPI   C1A20103  15.592   1.324   5.265  0.4869 -0.0718  0.0184
 1257loPI   C2A20104  15.694   1.259   5.662 -0.0982  0.0307 -0.1197
 1257loPI   C3A20105  15.518   1.354   6.050  0.1354 -0.3974  0.0078
 1257loPI   C4A20106  15.313   1.431   6.455  0.3377  0.0790 -0.1599
 1257loPI   C5A20107  15.166   1.391   6.856  0.0093 -0.3020 -0.0017
 1257loPI   C6A20108  14.984   0.992   7.067 -0.0733 -0.0638  0.0167
 1257loPI   C1B20109  15.828   1.769   5.339 -0.0826  0.0800 -0.0092
 1257loPI   C2B20110  16.151   1.834   5.715  0.2425  0.1351 -0.0815
 1257loPI   C3B20111  16.104   1.737   6.184  0.3720 -0.0284 -0.2262
 1257loPI   C4B20112  15.900   1.467   6.366 -0.1649  0.1025  0.0873
 1258loPI    C120113   4.993  10.862   4.501  0.2069 -0.2661  0.1092
 1258loPI    C220114   4.707  10.583   4.503 -0.0958  0.0353 -0.0515
 1258loPI    C320115   5.066  10.500   4.347 -0.0380 -0.3944  0.2882
 1258loPI   PO420116   4.968  10.976   4.761  0.2060  0.2081  0.0842
 1258loPI   GL120117   4.665  10.893   4.968  0.0367  0.1322 -0.2883
 1258loPI   GL220118   4.484  10.777   5.289 -0.0291  0.0693 -0.1296
 1258loPI   C1A20119   4.884  11.110   5.403 -0.1356  0.2711 -0.2336
 1258loPI   C2A20120   5.066  11.216   5.696 -0.1057 -0.0205 -0.1464
 1258loPI   C3A20121   5.076  11.354   6.183 -0.1541  0.2347  0.0553
 1258loPI   C4A20122   5.308  11.205   6.529  0.2041 -0.1656 -0.0394
 1258loPI   C5A20123   5.565  10.919   6.789 -0.0094  0.0573  0.0616
 1258loPI   C6A20124   5.839  10.706   7.019 -0.1320 -0.2996  0.1931
 1258loPI   C1B20125   4.645  10.644   5.684  0.2321  0.0835 -0.0289
 1258loPI   C2B20126   4.654  10.509   6.184 -0.0979 -0.0724  0.1310
 1258loPI   C3B20127   4.889  10.347   6.546  0.1072 -0.0441  0.1891
 1258loPI   C4B20128   4.750  10.387   6.915 -0.1741  0.1318  0.1045
 1259loPI    C120129  12.174   4.985   3.958 -0.1569  0.1538 -0.2065
 1259loPI    C220130  12.006   4.892   3.607  0.0606 -0.3689 -0.1823
 1259loPI    C320131  12.404   4.888   3.645  0.0505 -0.0295 -0.0017
 1259loPI   PO420132  12.052   5.134   4.062  0.2084  0.2792  0.2002
 1259loPI   GL120133  12.026   5.160   4.500 -0.1093  0.0393 -0.2816
 1259loPI   GL220134  12.332   5.085   4.526  0.1881  0.1168  0.0764
 1259loPI   C1A20135  11.717   5.052   4.859  0.1120  0.1654 -0.0116
 1259loPI   C2A20136  11.465   5.181   5.194 -0.1104  0.2090 -0.0004
 1259loPI   C3A20137  11.420   5.171   5.615 -0.1719 -0.2247  0.0029
 1259loPI   C4A20138  11.234   5.084   6.015 -0.0800 -0.0118  0.2339
 1259loPI   C5A20139  11.055   5.326   6.335 -0.3610 -0.1408  0.0497
 1259loPI   C6A20140  11.122   5.693   6.666 -0.0513  0.2603  0.2967
 1259loPI   C1B20141  12.227   4.831   4.907 -0.0494  0.1280  0.0372
 1259loPI   C2B20142  12.154   4.789   5.302  0.0489  0.1449  0.1831
 1259loPI   C3B20143  12.101   4.813   5.805 -0.3230  0.0767  0.0641
 1259loPI   C4B20144  11.929   4.651   6.194 -0.2928 -0.2785 -0.0731
 1260loPI    C120145  15.475  10.017   4.349  0.1424  0.0216 -0.0770
 1260loPI    C220146  15.121   9.831   4.332  0.0374  0.2160 -0.0494
 1260loPI    C320147  15.459   9.617   4.347 -0.0998  0.0185  0.4724
 1260loPI   PO420148  15.415  10.174   4.554  0.3671  0.0328  0.1659
 1260loPI   GL120149  15.633  10.216   4.942  0.4173 -0.1519  0.3365
 1260loPI   GL220150  15.687  10.462   4.931 -0.0269 -0.0244  0.0541
 1260loPI   C1A20151  15.472   9.958   5.239 -0.3102 -0.1159  0.1265
 1260loPI   C2A20152  15.415  10.041   5.598  0.0553 -0.2353 -0.2184
 1260loPI   C3A20153  15.618  10.014   6.023 -0.0891 -0.0559 -0.2294
 1260loPI   C4A20154  15.564  10.156   6.407  0.0452 -0.1385  0.1587
 1260loPI   C5A20155  15.516   9.968   6.721  0.0415 -0.0472  0.2511
 1260loPI   C6A20156  15.321   9.996   7.111 -0.0697  0.2175  0.1862
 1260loPI   C1B20157  15.401  10.500   5.302  0.2488 -0.0818  0.0745
 1260loPI   C2B20158  15.293  10.732   5.639  0.1336 -0.1362  0.2038
 1260loPI   C3B20159  15.161  10.947   6.034  0.1940  0.2014 -0.0280
 1260loPI   C4B20160  14.745  11.096   6.172  0.1422  0.2540 -0.1455
 1261loPI    C120161   8.269   6.795   4.588  0.0979 -0.1238  0.2369
 1261loPI    C220162   8.638   6.663   4.509  0.1158  0.0957 -0.0685
 1261loPI    C320163   8.322   6.429   4.435  0.1717  0.0534 -0.1765
 1261loPI   PO420164   8.249   6.911   4.891  0.1091 -0.3542  0.0182
 1261loPI   GL120165   8.218   7.034   5.323  0.1700 -0.0966 -0.0521
 1261loPI   GL220166   8.449   6.794   5.367  0.1358 -0.0207  0.1174
 1261loPI   C1A20167   7.863   7.139   5.620 -0.3892 -0.0334 -0.2136
 1261loPI   C2A20168   7.974   7.320   6.028  0.0644 -0.1111  0.0357
 1261loPI   C3A20169   7.915   7.136   6.420  0.1359 -0.3816  0.0849
 1261loPI   C4A20170   8.007   7.301   6.763 -0.2655 -0.1618  0.2402
 1261loPI   C5A20171   7.795   7.457   7.005  0.3170 -0.0509  0.0360
 1261loPI   C6A20172   7.680   7.679   7.357  0.1171  0.1188 -0.1080
 1261loPI   C1B20173   8.464   6.427   5.521 -0.1032  0.2329  0.2296
 1261loPI   C2B20174   8.716   6.183   5.702 -0.2166  0.2637 -0.3808
 1261loPI   C3B20175   8.608   5.878   5.996  0.1816  0.2843 -0.0146
 1261loPI   C4B20176   8.871   5.707   6.199  0.0374  0.0339  0.0875
 1262loPI    C120177  19.649   9.354   4.535  0.0091  0.0993  0.0065
 1262loPI    C220178  19.872   9.036   4.440 -0.0661  0.0940 -0.1557
 1262loPI    C320179  19.539   9.116   4.233 -0.1425  0.1788 -0.0021
 1262loPI   PO420180  19.677   9.364   4.835 -0.2265  0.2327 -0.0154
 1262loPI   GL120181  19.633   9.370   5.230  0.0438 -0.2817  0.1133
 1262loPI   GL220182  19.775   9.542   5.282 -0.0121 -0.2092  0.2347
 1262loPI   C1A20183  19.586   9.179   5.547  0.1298 -0.1500 -0.0892
 1262loPI   C2A20184  19.744   8.964   5.856 -0.0595  0.0542  0.1472
 1262loPI   C3A20185  19.944   8.903   6.246  0.3387 -0.1163  0.0799
 1262loPI   C4A20186  19.924   8.705   6.643  0.3158  0.4444 -0.2266
 1262loPI   C5A20187  19.899   8.751   7.027  0.2119  0.2735 -0.2633
 1262loPI   C6A20188  19.846   8.940   7.450  0.0984  0.1432  0.1388
 1262loPI   C1B20189  19.481   9.633   5.664  0.0247 -0.1740  0.0328
 1262loPI   C2B20190  19.603   9.482   6.036 -0.1679 -0.1013 -0.1638
 1262loPI   C3B20191  19.744   9.334   6.370  0.0766  0.0075 -0.0383
 1262loPI   C4B20192  19.546   9.064   6.706 -0.1321 -0.0074 -0.1976
 1263loPI    C120193  19.637   3.076   4.326  0.0709 -0.0600 -0.0598
 1263loPI    C220194  19.827   3.139   3.980  0.0095 -0.2031 -0.1205
 1263loPI    C320195  19.484   2.935   3.985 -0.1639  0.0850 -0.0165
 1263loPI   PO420196  19.612   3.240   4.462 -0.0475 -0.3032  0.0699
 1263loPI   GL120197  19.601   3.213   4.819 -0.0707 -0.0617  0.2475
 1263loPI   GL220198  19.989   3.185   4.912  0.0947 -0.1636 -0.0697
 1263loPI   C1A20199  19.489   3.000   5.196  0.0761  0.1449  0.2193
 1263loPI   C2A20200  19.312   2.868   5.565 -0.1799  0.1593  0.2141
 1263loPI   C3A20201  19.257   2.610   5.910  0.2130  0.2539 -0.1569
 1263loPI   C4A20202  18.952   2.429   6.293  0.0015 -0.1183 -0.0162
 1263loPI   C5A20203  18.724   2.096   6.575 -0.0521  0.2210  0.0013
 1263loPI   C6A20204  18.447   1.723   6.581 -0.3548  0.1842  0.2052
 1263loPI   C1B20205  19.984   3.333   5.409 -0.1047  0.0768  0.4074
 1263loPI   C2B20206  20.061   3.299   5.787 -0.1418  0.1742  0.1164
 1263loPI   C3B20207  20.185   3.214   6.151  0.1388 -0.1790  0.4164
 1263loPI   C4B20208  20.157   3.018   6.616 -0.1330  0.1609 -0.0102
 1264loPI    C120209   3.335   3.898   4.738  0.1762 -0.0819  0.0564
 1264loPI    C220210   3.478   4.049   4.396 -0.0415 -0.1041 -0.0467
 1264loPI    C320211   3.297   3.693   4.397 -0.0017 -0.1248  0.1009
 1264loPI   PO420212   3.525   3.915   4.943  0.1421  0.2853  0.0833
 1264loPI   GL120213   3.566   3.853   5.419 -0.1682  0.3341  0.1104
 1264loPI   GL220214   3.443   4.165   5.418  0.1778  0.2038  0.1370
 1264loPI   C1A20215   3.293   3.537   5.646  0.0635 -0.2140  0.5186
 1264loPI   C2A20216   3.200   3.621   6.095 -0.1547  0.1374 -0.1611
 1264loPI   C3A20217   3.325   3.563   6.514  0.0459  0.0576 -0.2304
 1264loPI   C4A20218   3.482   3.640   6.916  0.1439 -0.2086  0.1901
 1264loPI   C5A20219   3.343   3.925   7.222  0.0714  0.1771  0.0304
 1264loPI   C6A20220   3.446   4.217   7.436 -0.1703  0.0017 -0.0869
 1264loPI   C1B20221   3.301   4.441   5.852 -0.0720  0.3219  0.2245
 1264loPI   C2B20222   3.486   4.598   6.307 -0.1367 -0.0514 -0.0730
 1264loPI   C3B20223   3.596   4.669   6.729  0.2670 -0.0589  0.0849
 1264loPI   C4B20224   3.701   4.584   7.191 -0.0611 -0.1766  0.0526
 1265loPI    C120225  17.984  15.906   4.688  0.3158 -0.0508  0.1134
 1265loPI    C220226  18.295  15.907   4.437  0.1256  0.1427 -0.1262
 1265loPI    C320227  17.947  15.743   4.325  0.0556  0.1808  0.0320
 1265loPI   PO420228  18.151  15.923   4.872 -0.0586  0.2642 -0.3946
 1265loPI   GL120229  18.148  15.717   5.182 -0.3983 -0.3549  0.1708
 1265loPI   GL220230  18.502  15.849   5.226  0.1796 -0.0264  0.1161
 1265loPI   C1A20231  18.033  15.543   5.518 -0.2026 -0.3788  0.2881
 1265loPI   C2A20232  17.788  15.365   5.811 -0.0127  0.0286 -0.0616
 1265loPI   C3A20233  17.469  15.324   6.114 -0.0546  0.3225 -0.1243
 1265loPI   C4A20234  17.275  15.230   6.417 -0.3974 -0.1553  0.3115
 1265loPI   C5A20235  16.843  15.047   6.664 -0.0779  0.2068  0.2499
 1265loPI   C6A20236  16.742  14.700   6.783  0.1957  0.1430 -0.2811
 1265loPI   C1B20237  18.497  15.849   5.681  0.0156 -0.1703 -0.0366
 1265loPI   C2B20238  18.520  16.107   6.078 -0.2233  0.0559  0.0885
 1265loPI   C3B20239  18.683  16.272   6.511 -0.0471  0.0979  0.1772
 1265loPI   C4B20240  18.589  16.238   6.992 -0.0725  0.0278  0.1517
 1266loPI    C120241  14.516  17.480   3.930  0.0525 -0.0307  0.0302
 1266loPI    C220242  14.193  17.556   3.707  0.0522 -0.0796  0.0137
 1266loPI    C320243  14.440  17.258   3.606  0.0567 -0.0965  0.0739
 1266loPI   PO420244  14.407  17.418   4.168  0.3435 -0.1145  0.2000
 1266loPI   GL120245  14.462  17.672   4.597  0.1617  0.1070 -0.4030
 1266loPI   GL220246  14.215  17.505   4.729 -0.1639 -0.0549 -0.0012
 1266loPI   C1A20247  14.501  17.892   4.923  0.1271  0.1498 -0.0665
 1266loPI   C2A20248  14.537  18.014   5.360  0.2714  0.1007  0.5826
 1266loPI   C3A20249  14.348  18.169   5.726  0.2724  0.2048  0.0205
 1266loPI   C4A20250  14.173  18.364   6.068 -0.2259  0.1835 -0.1310
 1266loPI   C5A20251  13.843  18.212   6.368 -0.0671 -0.0491 -0.0505
 1266loPI   C6A20252  13.485  18.058   6.560 -0.2260  0.2293  0.0373
 1266loPI   C1B20253  14.158  17.614   5.122 -0.0994  0.1136 -0.1367
 1266loPI   C2B20254  14.037  17.753   5.541 -0.1563  0.2427 -0.0050
 1266loPI   C3B20255  13.799  17.480   5.891 -0.2164 -0.1367  0.0106
 1266loPI   C4B20256  13.683  17.681   6.274  0.0682  0.1500 -0.1931
 1267loPI    C120257   1.909  14.190   4.452 -0.1233 -0.2535 -0.0675
 1267loPI    C220258   1.673  13.986   4.200 -0.1026 -0.2167 -0.1167
 1267loPI    C320259   1.762  14.369   4.126  0.0149 -0.2452 -0.1257
 1267loPI   PO420260   1.798  14.037   4.683 -0.2483 -0.2249 -0.0524
 1267loPI   GL120261   1.985  14.096   5.118 -0.1475 -0.0203  0.0923
 1267loPI   GL220262   1.723  13.966   5.239  0.2111 -0.0775  0.0237
 1267loPI   C1A20263   1.728  14.388   5.470 -0.2826  0.0059  0.1033
 1267loPI   C2A20264   1.630  14.621   5.803  0.0533  0.0794  0.0691
 1267loPI   C3A20265   1.675  14.516   6.280  0.0794  0.0518 -0.1263
 1267loPI   C4A20266   1.749  14.519   6.686  0.1543 -0.2392 -0.0069
 1267loPI   C5A20267   1.944  14.855   7.048 -0.0779  0.3373  0.0609
 1267loPI   C6A20268   2.216  15.115   7.319 -0.2557 -0.1274 -0.1396
 1267loPI   C1B20269   1.982  14.005   5.665 -0.2512 -0.1221 -0.0540
 1267loPI   C2B20270   2.185  14.228   6.004 -0.0699 -0.0552  0.0614
 1267loPI   C3B20271   2.208  14.498   6.479  0.1274  0.1372  0.0930
 1267loPI   C4B20272   2.358  14.608   6.812 -0.1042 -0.1514 -0.0219
 1268loPI    C120273  17.807   2.502   4.321  0.1221  0.3509  0.0840
 1268loPI    C220274  17.754   2.640   3.949  0.2099 -0.1854 -0.1360
 1268loPI    C320275  17.825   2.251   4.010 -0.1051 -0.1602  0.4687
 1268loPI   PO420276  17.613   2.534   4.505 -0.0166  0.0183 -0.0068
 1268loPI   GL120277  17.666   2.486   4.916 -0.1220  0.2611 -0.3468
 1268loPI   GL220278  17.781   2.259   4.880  0.1444 -0.3233  0.2775
 1268loPI   C1A20279  17.706   2.391   5.326 -0.0460 -0.0453 -0.0084
 1268loPI   C2A20280  18.025   2.278   5.702  0.0176 -0.0735 -0.0040
 1268loPI   C3A20281  18.110   2.419   6.018 -0.0672 -0.0404  0.0996
 1268loPI   C4A20282  17.800   2.492   6.369 -0.0533  0.0083  0.0729
 1268loPI   C5A20283  17.771   2.233   6.725  0.0524  0.0581 -0.2555
 1268loPI   C6A20284  17.657   2.027   7.047  0.2059 -0.2894 -0.2084
 1268loPI   C1B20285  18.099   2.057   5.082  0.3394  0.0143 -0.3224
 1268loPI   C2B20286  17.872   1.815   5.412 -0.0968  0.0364  0.0750
 1268loPI   C3B20287  17.694   1.547   5.736 -0.0973  0.2718 -0.3557
 1268loPI   C4B20288  17.475   1.667   5.982  0.1368  0.0762 -0.0489
 1269loPI    C120289  15.211  19.430   3.894 -0.1096 -0.0041 -0.0206
 1269loPI    C220290  15.522  19.183   3.943  0.0065  0.1514  0.0341
 1269loPI    C320291  15.299  19.161   3.612 -0.1474 -0.2059  0.1571
 1269loPI   PO420292  15.296  19.718   4.050  0.2367  0.4394  0.1086
 1269loPI   GL120293  15.230  19.797   4.522 -0.1491 -0.1294 -0.1041
 1269loPI   GL220294  15.494  19.817   4.585 -0.0409  0.0562 -0.2572
 1269loPI   C1A20295  15.034  20.129   4.805 -0.1933  0.2158  0.3419
 1269loPI   C2A20296  14.881  20.216   5.254 -0.1355 -0.2758 -0.0092
 1269loPI   C3A20297  14.903  20.172   5.729  0.0897 -0.1377  0.1036
 1269loPI   C4A20298  14.922  20.047   6.186  0.0070 -0.0125  0.1164
 1269loPI   C5A20299  15.024  20.315   6.558 -0.0040  0.2346  0.3212
 1269loPI   C6A20300  14.668  20.479   6.665 -0.1448 -0.0914  0.0261
 1269loPI   C1B20301  15.261  19.721   4.975 -0.4009  0.2150 -0.1623
 1269loPI   C2B20302  15.262  19.853   5.399  0.2595  0.2231  0.1851
 1269loPI   C3B20303  15.252  19.709   5.793 -0.0637 -0.2488  0.1800
 1269loPI   C4B20304  15.163  19.637   6.203  0.0075  0.1060  0.3386
 1270loPI    C120305  17.820   7.207   4.379  0.0140 -0.4042 -0.1122
 1270loPI    C220306  18.116   7.435   4.236 -0.1809 -0.0709  0.0058
 1270loPI    C320307  18.112   7.042   4.160  0.1721 -0.0425 -0.1804
 1270loPI   PO420308  17.788   7.245   4.628 -0.0454 -0.0501 -0.0320
 1270loPI   GL120309  17.784   7.082   5.062  0.1811 -0.1234 -0.0364
 1270loPI   GL220310  17.660   7.452   5.064 -0.2180  0.1017  0.1338
 1270loPI   C1A20311  17.644   7.014   5.458 -0.0270 -0.0367  0.1765
 1270loPI   C2A20312  17.407   6.854   5.826 -0.1873 -0.0672 -0.1244
 1270loPI   C3A20313  17.243   6.711   6.247  0.0287  0.1302  0.0623
 1270loPI   C4A20314  17.224   6.834   6.656  0.1055 -0.0495 -0.0220
 1270loPI   C5A20315  17.134   7.106   6.923 -0.2992  0.1763 -0.0963
 1270loPI   C6A20316  17.231   7.279   7.292 -0.1656  0.0833 -0.0255
 1270loPI   C1B20317  17.814   7.484   5.520  0.1021 -0.0030 -0.2249
 1270loPI   C2B20318  18.021   7.608   5.874  0.2708 -0.2166 -0.0352
 1270loPI   C3B20319  17.890   7.571   6.256 -0.2583  0.4095  0.1481
 1270loPI   C4B20320  17.998   7.365   6.497 -0.1667 -0.0980 -0.1116
 1271loPI    C120321  18.578  13.029   4.698  0.2003  0.1647  0.0971
 1271loPI    C220322  18.287  13.304   4.681 -0.1941 -0.2577 -0.2433
 1271loPI    C320323  18.645  13.380   4.519 -0.2050  0.1558 -0.0835
 1271loPI   PO420324  18.624  12.961   4.912  0.2356 -0.0842  0.0827
 1271loPI   GL120325  18.500  12.723   5.324 -0.1787  0.2480 -0.0275
 1271loPI   GL220326  18.309  12.930   5.580 -0.1914 -0.0997  0.0470
 1271loPI   C1A20327  18.567  12.425   5.649 -0.1881  0.0185  0.2441
 1271loPI   C2A20328  18.316  12.303   6.042 -0.2776 -0.0459  0.1187
 1271loPI   C3A20329  18.223  12.169   6.425  0.1597 -0.0952 -0.0349
 1271loPI   C4A20330  18.035  12.020   6.746 -0.0571  0.1936  0.2138
 1271loPI   C5A20331  17.914  11.700   6.978  0.3217 -0.1386 -0.1172
 1271loPI   C6A20332  17.783  11.334   7.020 -0.0720  0.3840  0.0313
 1271loPI   C1B20333  18.415  12.856   6.081  0.0447  0.1074 -0.3296
 1271loPI   C2B20334  18.322  12.639   6.457  0.0290 -0.0308  0.0753
 1271loPI   C3B20335  18.456  12.510   6.827 -0.0047 -0.1083 -0.0144
 1271loPI   C4B20336  18.399  12.818   7.205  0.1663  0.2012  0.0740
 1272loPI    C120337   6.834   4.630   4.005 -0.2340 -0.0137  0.0197
 1272loPI    C220338   7.177   4.469   3.877 -0.1969  0.0936 -0.0168
 1272loPI    C320339   6.827   4.302   3.776 -0.1547 -0.0361  0.0492
 1272loPI   PO420340   6.878   4.642   4.305  0.0006 -0.3123  0.3810
 1272loPI   GL120341   6.767   4.401   4.604 -0.2974 -0.1422  0.1780
 1272loPI   GL220342   7.141   4.485   4.788  0.2132  0.1255 -0.2348
 1272loPI   C1A20343   6.718   4.065   4.889 -0.0229 -0.1948 -0.1760
 1272loPI   C2A20344   6.635   3.818   5.161  0.0957 -0.0369 -0.1608
 1272loPI   C3A20345   6.535   3.672   5.572  0.0543 -0.1055 -0.0898
 1272loPI   C4A20346   6.503   3.736   5.929  0.2782 -0.0216  0.0645
 1272loPI   C5A20347   6.658   3.729   6.343  0.0456  0.2331  0.0562
 1272loPI   C6A20348   6.967   3.777   6.597 -0.0214  0.4569  0.0557
 1272loPI   C1B20349   7.196   4.182   5.044  0.1348  0.2557  0.0102
 1272loPI   C2B20350   7.092   3.895   5.420 -0.0612 -0.4962 -0.0131
 1272loPI   C3B20351   7.034   3.876   5.830  0.1312  0.1535 -0.0365
 1272loPI   C4B20352   7.225   3.769   6.147 -0.4166  0.0161 -0.0187
 1273loPI    C120353  16.884  16.698   4.326  0.0983 -0.0960 -0.1962
 1273loPI    C220354  16.853  16.736   3.929  0.0825 -0.1670 -0.2020
 1273loPI    C320355  16.796  16.379   4.100 -0.0500 -0.1086 -0.1223
 1273loPI   PO420356  16.716  16.918   4.465 -0.2639 -0.0682 -0.3064
 1273loPI   GL120357  16.874  17.107   4.811 -0.0519  0.0971 -0.0084
 1273loPI   GL220358  16.896  17.388   4.912 -0.1341 -0.0870 -0.0469
 1273loPI   C1A20359  16.784  16.943   5.152  0.0853  0.0392  0.2672
 1273loPI   C2A20360  16.757  16.919   5.571 -0.2516 -0.2041  0.1583
 1273loPI   C3A20361  16.750  16.995   5.992 -0.0500 -0.2546 -0.0857
 1273loPI   C4A20362  16.717  16.840   6.398  0.1753  0.0487 -0.0251
 1273loPI   C5A20363  16.549  16.893   6.768  0.2248  0.0104  0.1656
 1273loPI   C6A20364  16.463  16.645   7.242  0.0913 -0.1119  0.0261
 1273loPI   C1B20365  16.734  17.474   5.316  0.0490  0.5457 -0.0500
 1273loPI   C2B20366  16.807  17.475   5.735 -0.3519 -0.0077 -0.1384
 1273loPI   C3B20367  16.710  17.609   6.149 -0.0007  0.0330  0.1409
 1273loPI   C4B20368  16.606  17.848   6.541 -0.1425 -0.1115  0.3941
 1274loPI    C120369  19.417  15.131   4.572  0.1867  0.1174  0.3405
 1274loPI    C220370  19.538  15.463   4.387 -0.1643  0.0578 -0.0103
 1274loPI    C320371  19.753  15.127   4.355 -0.0562  0.1294 -0.0454
 1274loPI   PO420372  19.356  15.154   4.816  0.0309 -0.3587 -0.2619
 1274loPI   GL120373  19.337  14.933   5.173  0.0958 -0.3843 -0.1813
 1274loPI   GL220374  19.111  15.091   5.392 -0.0996  0.1055 -0.0428
 1274loPI   C1A20375  19.632  14.969   5.565 -0.2576 -0.3887 -0.0042
 1274loPI   C2A20376  19.636  15.041   5.947  0.0884 -0.0216  0.1806
 1274loPI   C3A20377  19.610  15.188   6.483 -0.0637 -0.0288 -0.1690
 1274loPI   C4A20378  19.493  15.489   6.873  0.0477  0.0331 -0.0961
 1274loPI   C5A20379  19.532  15.764   7.016  0.3112  0.0066  0.1347
 1274loPI   C6A20380  19.856  16.178   7.186  0.2105  0.3409 -0.1141
 1274loPI   C1B20381  19.180  15.129   5.823  0.0955 -0.0018 -0.4680
 1274loPI   C2B20382  19.094  15.312   6.155 -0.0716  0.1435  0.0044
 1274loPI   C3B20383  18.980  15.354   6.570  0.0954 -0.1277  0.0358
 1274loPI   C4B20384  18.664  15.111   6.845  0.2559 -0.1258  0.0028
 1275loPI    C120385   9.208  11.075   4.670  0.1558  0.0814 -0.0527
 1275loPI    C220386   9.051  10.827   4.397  0.1118  0.0209  0.0271
 1275loPI    C320387   8.821  11.104   4.573  0.2024  0.2407 -0.1949
 1275loPI   PO420388   9.356  10.880   4.825  0.1416  0.0643  0.0589
 1275loPI   GL120389   9.319  10.685   5.241 -0.1857  0.1494  0.0541
 1275loPI   GL220390   9.303  10.920   5.389 -0.1370  0.1915  0.0136
 1275loPI   C1A20391   9.411  10.364   5.644  0.3520  0.0209 -0.2803
 1275loPI   C2A20392   9.344  10.477   6.046  0.2726 -0.6504 -0.1702
 1275loPI   C3A20393   9.386  10.542   6.514 -0.0265 -0.0803  0.0324
 1275loPI   C4A20394   9.505  10.671   6.939  0.1811 -0.2276  0.1914
 1275loPI   C5A20395   9.822  11.027   7.054  0.1474  0.1290  0.0481
 1275loPI   C6A20396  10.172  11.148   7.167 -0.0880  0.1098  0.0116
 1275loPI   C1B20397   9.382  11.030   5.790  0.1029  0.3798  0.2779
 1275loPI   C2B20398   9.523  10.943   6.208 -0.0743  0.0880 -0.0902
 1275loPI   C3B20399   9.706  10.978   6.585 -0.3101  0.0197 -0.1501
 1275loPI   C4B20400  10.096  10.788   6.707 -0.3335 -0.0970  0.0684
 1276loPI    C120401   2.209   5.997   4.871 -0.0789  0.1243  0.1006
 1276loPI    C220402   2.240   5.857   4.497 -0.1292  0.1169  0.0992
 1276loPI    C320403   1.903   6.036   4.617 -0.1738 -0.0265  0.1905
 1276loPI   PO420404   2.346   5.800   5.048 -0.0986 -0.1225  0.3272
 1276loPI   GL120405   2.476   5.866   5.454 -0.1276  0.0274 -0.0251
 1276loPI   GL220406   2.308   5.576   5.513 -0.0537  0.0026  0.1646
 1276loPI   C1A20407   2.370   5.964   5.892 -0.2812 -0.1005 -0.1811
 1276loPI   C2A20408   2.430   6.020   6.327  0.1166 -0.0912  0.0129
 1276loPI   C3A20409   2.505   6.110   6.741 -0.0251  0.4372 -0.1636
 1276loPI   C4A20410   2.558   6.093   7.135 -0.0371  0.1482  0.4645
 1276loPI   C5A20411   2.532   5.718   7.420 -0.0365 -0.1157  0.3570
 1276loPI   C6A20412   2.760   5.487   7.233 -0.0202 -0.0954  0.0656
 1276loPI   C1B20413   2.075   5.452   5.930 -0.0049 -0.2689  0.0207
 1276loPI   C2B20414   2.093   5.633   6.308 -0.0461  0.0463  0.0969
 1276loPI   C3B20415   1.927   5.425   6.661  0.1374 -0.1861  0.1940
 1276loPI   C4B20416   1.815   5.208   7.017  0.1859 -0.1525 -0.1674
 1277loPI    C120417  12.362  16.659   4.293  0.0289  0.1277  0.1687
 1277loPI    C220418  12.285  16.720   3.905 -0.3417 -0.1626  0.1900
 1277loPI    C320419  12.221  17.012   4.170  0.3794  0.2079 -0.0162
 1277loPI   PO420420  12.242  16.424   4.373 -0.0844  0.1664 -0.0420
 1277loPI   GL120421  12.219  16.287   4.753  0.3524 -0.3138  0.0995
 1277loPI   GL220422  12.252  16.577   4.946  0.0755  0.1972 -0.0186
 1277loPI   C1A20423  12.162  15.969   5.068  0.1277  0.0207  0.0639
 1277loPI   C2A20424  12.117  15.855   5.462  0.0601  0.4445  0.0848
 1277loPI   C3A20425  12.112  15.807   5.921  0.2763  0.2574 -0.0465
 1277loPI   C4A20426  12.094  15.639   6.291  0.2154 -0.1661  0.1063
 1277loPI   C5A20427  12.040  15.662   6.760  0.1477  0.0175  0.0726
 1277loPI   C6A20428  12.078  15.794   7.116 -0.2634 -0.1418  0.1176
 1277loPI   C1B20429  12.281  16.439   5.279  0.0615 -0.2933 -0.2745
 1277loPI   C2B20430  12.503  16.682   5.578  0.1054 -0.5660 -0.1891
 1277loPI   C3B20431  12.667  17.019   5.922  0.3028 -0.1135  0.1308
 1277loPI   C4B20432  12.525  17.138   6.348  0.0394 -0.2814  0.0740
 1278loPI    C120433  15.727   6.562   4.825 -0.1636  0.0398  0.0915
 1278loPI    C220434  15.585   6.229   4.655  0.0701  0.0251 -0.0799
 1278loPI    C320435  15.966   6.338   4.595  0.0962  0.1348  0.2630
 1278loPI   PO420436  15.558   6.735   4.718 -0.2714 -0.0687 -0.0178
 1278loPI   GL120437  15.257   7.047   4.713  0.2923  0.0044 -0.1385
 1278loPI   GL220438  15.064   7.261   4.707 -0.1484  0.0561  0.0274
 1278loPI   C1A20439  15.103   7.021   5.183 -0.1323  0.0253 -0.0380
 1278loPI   C2A20440  15.183   6.969   5.607 -0.0341  0.7679 -0.2088
 1278loPI   C3A20441  15.094   7.045   6.034  0.2399 -0.0576 -0.0437
 1278loPI   C4A20442  15.135   7.046   6.484 -0.0303  0.0455  0.0773
 1278loPI   C5A20443  14.953   6.784   6.853  0.3330 -0.1215 -0.0809
 1278loPI   C6A20444  14.767   6.548   7.238 -0.0327  0.3770  0.2985
 1278loPI   C1B20445  15.286   7.474   5.003 -0.3639 -0.0638 -0.1406
 1278loPI   C2B20446  15.333   7.419   5.474 -0.1003  0.0866  0.1398
 1278loPI   C3B20447  15.139   7.507   5.840 -0.1311  0.3009 -0.0093
 1278loPI   C4B20448  14.732   7.774   5.919  0.2090 -0.1948 -0.0824
 1279loPI    C120449  11.582  16.097   4.416 -0.0814 -0.1686  0.0808
 1279loPI    C220450  11.714  15.962   4.064  0.0183 -0.1344  0.1047
 1279loPI    C320451  11.384  16.187   4.081  0.0597 -0.0668  0.0238
 1279loPI   PO420452  11.757  16.299   4.533 -0.2126 -0.0345 -0.0864
 1279loPI   GL120453  11.716  16.506   4.919 -0.0162 -0.0359  0.3248
 1279loPI   GL220454  11.635  16.231   5.146 -0.2953 -0.0019 -0.3275
 1279loPI   C1A20455  11.862  16.809   5.296 -0.1788 -0.0614 -0.0897
 1279loPI   C2A20456  12.030  16.924   5.635  0.0238 -0.1322  0.0652
 1279loPI   C3A20457  12.134  16.949   6.046 -0.2746 -0.3357 -0.1500
 1279loPI   C4A20458  12.089  16.877   6.562 -0.2005 -0.0727  0.0012
 1279loPI   C5A20459  11.957  16.705   6.926  0.0241  0.1834  0.1729
 1279loPI   C6A20460  11.883  16.401   7.203 -0.1262  0.1290  0.0550
 1279loPI   C1B20461  11.864  16.315   5.495 -0.0067 -0.1662  0.0676
 1279loPI   C2B20462  12.131  16.390   5.818  0.0760  0.0303 -0.2369
 1279loPI   C3B20463  12.467  16.571   6.044  0.1180 -0.0235  0.2270
 1279loPI   C4B20464  12.551  16.555   6.517  0.0516 -0.0672  0.1005
 1280loPI    C120465   1.851  17.827   4.552  0.2631  0.0914 -0.0681
 1280loPI    C220466   1.898  17.431   4.514  0.0442  0.0590 -0.0159
 1280loPI    C320467   1.929  17.667   4.193  0.1212 -0.0058 -0.0565
 1280loPI   PO420468   1.615  17.817   4.823  0.1103  0.0498 -0.0842
 1280loPI   GL120469   1.231  17.983   5.169 -0.1772  0.0590  0.0769
 1280loPI   GL220470   0.914  17.996   5.113  0.1582 -0.1060  0.3377
 1280loPI   C1A20471   1.471  17.801   5.527  0.0935  0.1614  0.0775
 1280loPI   C2A20472   1.729  17.884   5.870 -0.1855  0.0094  0.0534
 1280loPI   C3A20473   1.731  17.952   6.295 -0.2870  0.0470 -0.2608
 1280loPI   C4A20474   1.706  17.884   6.742 -0.1883  0.0928  0.1385
 1280loPI   C5A20475   1.574  17.704   7.105  0.0965 -0.1424 -0.1248
 1280loPI   C6A20476   1.583  17.227   7.310  0.1261  0.0506  0.0784
 1280loPI   C1B20477   0.949  18.124   5.555 -0.2069  0.0500  0.0466
 1280loPI   C2B20478   0.842  18.529   5.696 -0.2446  0.2431  0.0613
 1280loPI   C3B20479   0.938  18.813   6.060  0.1022 -0.2742  0.1764
 1280loPI   C4B20480   0.895  18.898   6.478  0.1728 -0.1241  0.1269
 1281loPI    C120481  11.878  17.302   4.286 -0.1184 -0.0687 -0.0370
 1281loPI    C220482  11.599  17.307   3.998 -0.1815 -0.0307  0.0246
 1281loPI    C320483  11.977  17.408   3.913 -0.1969 -0.0343 -0.0484
 1281loPI   PO420484  11.575  17.423   4.528  0.0582  0.1758 -0.0312
 1281loPI   GL120485  11.551  17.855   4.693 -0.3156 -0.1164  0.0527
 1281loPI   GL220486  11.780  17.768   4.906 -0.2942  0.1945  0.2502
 1281loPI   C1A20487  11.473  18.199   4.890 -0.1326  0.2587 -0.4873
 1281loPI   C2A20488  11.421  18.352   5.227 -0.0814  0.1850  0.0464
 1281loPI   C3A20489  11.435  18.429   5.675  0.3907  0.0114  0.0472
 1281loPI   C4A20490  11.443  18.399   6.091  0.2525 -0.5578 -0.1290
 1281loPI   C5A20491  11.561  18.376   6.502  0.2594 -0.7163 -0.3537
 1281loPI   C6A20492  11.582  17.999   6.628 -0.1992  0.2408  0.0594
 1281loPI   C1B20493  11.770  17.911   5.206 -0.2085 -0.0488 -0.3986
 1281loPI   C2B20494  11.595  17.917   5.577  0.2584 -0.2005 -0.3325
 1281loPI   C3B20495  11.617  18.000   5.936 -0.0397 -0.0487 -0.3732
 1281loPI   C4B20496  11.774  17.789   6.260 -0.3027  0.2680  0.3963
 1282loPI    C120497  10.464   5.521   4.496 -0.1202 -0.1197 -0.2980
 1282loPI    C220498  10.383   5.477   4.107 -0.0023  0.0355 -0.3413
 1282loPI    C320499  10.426   5.843   4.263  0.0163 -0.0279 -0.1955
 1282loPI   PO420500  10.244   5.370   4.567  0.5572 -0.1868  0.2016
 1282loPI   GL120501  10.248   5.185   4.906  0.0946  0.2815 -0.2929
 1282loPI   GL220502  10.424   4.872   4.962  0.0594 -0.0753  0.1024
 1282loPI   C1A20503  10.092   5.162   5.329 -0.0379  0.0845 -0.1504
 1282loPI   C2A20504  10.006   4.732   5.547  0.1614  0.3645 -0.0754
 1282loPI   C3A20505  10.041   4.425   5.673 -0.1132  0.0149 -0.2481
 1282loPI   C4A20506  10.302   4.065   5.863 -0.1569 -0.0506  0.0247
 1282loPI   C5A20507  10.447   4.036   6.246 -0.4536 -0.0369 -0.1456
 1282loPI   C6A20508  10.831   3.968   6.389  0.1770 -0.3907  0.1076
 1282loPI   C1B20509  10.488   4.818   5.384 -0.0611  0.0703 -0.4708
 1282loPI   C2B20510  10.540   4.594   5.601  0.1193 -0.0468  0.1623
 1282loPI   C3B20511  10.525   4.515   6.098  0.0337  0.1722 -0.2303
 1282loPI   C4B20512  10.672   4.449   6.400  0.0315 -0.1242  0.1586
 1283loPI    C120513   0.344  14.137   4.559 -0.1347 -0.0959 -0.1221
 1283loPI    C220514   0.218  14.149   4.180 -0.0608 -0.3195 -0.1555
 1283loPI    C320515   0.582  14.286   4.274 -0.1536 -0.0845 -0.1320
 1283loPI   PO420516   0.223  14.305   4.894 -0.1122 -0.3279 -0.0956
 1283loPI   GL120517   0.419  14.386   5.232 -0.0984 -0.0736 -0.1160
 1283loPI   GL220518   0.320  14.215   5.466  0.1038 -0.0114  0.3071
 1283loPI   C1A20519   0.478  14.642   5.520  0.0320  0.0636 -0.0038
 1283loPI   C2A20520   0.342  14.875   5.789 -0.3067  0.1966 -0.2661
 1283loPI   C3A20521   0.271  15.036   6.326 -0.1892 -0.2509  0.0156
 1283loPI   C4A20522   0.342  15.225   6.653  0.4419  0.1517  0.0304
 1283loPI   C5A20523   0.608  15.315   6.939  0.0121  0.1148 -0.0407
 1283loPI   C6A20524   1.109  15.316   6.922  0.1313 -0.1240 -0.0609
 1283loPI   C1B20525   0.274  14.018   5.769  0.2021 -0.5395  0.0170
 1283loPI   C2B20526   0.342  13.945   6.163  0.1135  0.1003 -0.2237
 1283loPI   C3B20527   0.275  14.061   6.582 -0.0569  0.3409 -0.3617
 1283loPI   C4B20528   0.082  14.387   6.912  0.1170 -0.3272 -0.0848
 1284loPI    C120529  10.503  15.419   4.518  0.0770 -0.1052  0.1551
 1284loPI    C220530  10.845  15.346   4.325  0.0952  0.0369  0.1325
 1284loPI    C320531  10.522  15.465   4.122  0.0619  0.0060  0.1671
 1284loPI   PO420532  10.601  15.569   4.804  0.0359  0.1476 -0.2573
 1284loPI   GL120533  10.792  15.689   5.245  0.1509 -0.3403  0.2741
 1284loPI   GL220534  10.383  15.822   5.139 -0.2326  0.1767 -0.2520
 1284loPI   C1A20535  10.856  15.919   5.600  0.1838  0.1230 -0.2088
 1284loPI   C2A20536  10.747  15.980   6.147 -0.1130 -0.1312 -0.3903
 1284loPI   C3A20537  10.787  15.776   6.453 -0.0473  0.3014  0.2205
 1284loPI   C4A20538  10.544  15.775   6.899  0.4579  0.2689 -0.1650
 1284loPI   C5A20539  10.359  15.753   7.259 -0.0893  0.3251  0.0713
 1284loPI   C6A20540  10.100  15.907   7.639 -0.1216 -0.3905  0.0321
 1284loPI   C1B20541  10.263  15.801   5.562  0.0504  0.1520  0.2974
 1284loPI   C2B20542  10.301  16.005   5.968  0.1437  0.0442  0.0300
 1284loPI   C3B20543  10.328  16.344   6.235  0.2291  0.1705  0.0734
 1284loPI   C4B20544  10.557  16.682   6.202 -0.1485 -0.0297  0.1329
 1285loPI    C120545   5.196  12.491   4.700  0.0739  0.0756  0.0870
 1285loPI    C220546   4.991  12.377   4.376  0.0005 -0.1432  0.2085
 1285loPI    C320547   4.995  12.762   4.485 -0.0779 -0.0880  0.0203
 1285loPI   PO420548   5.403  12.315   4.723  0.0513 -0.2278  0.2176
 1285loPI   GL120549   5.378  12.119   5.053  0.2616 -0.2458  0.0926
 1285loPI   GL220550   5.159  11.950   5.154  0.0867 -0.0321  0.1043
 1285loPI   C1A20551   5.001  12.471   5.272 -0.1641 -0.3125 -0.1930
 1285loPI   C2A20552   4.812  12.517   5.659  0.0172 -0.3444  0.0042
 1285loPI   C3A20553   4.439  12.582   5.744 -0.2262 -0.1283  0.2347
 1285loPI   C4A20554   4.233  12.574   6.187 -0.0376  0.2943  0.0547
 1285loPI   C5A20555   4.236  12.525   6.640 -0.4046  0.4120 -0.1399
 1285loPI   C6A20556   4.447  12.519   7.044  0.1508  0.1281  0.1521
 1285loPI   C1B20557   5.044  12.052   5.533 -0.1640  0.2134 -0.0213
 1285loPI   C2B20558   5.181  12.226   5.977  0.4023  0.0473 -0.2613
 1285loPI   C3B20559   4.992  12.158   6.459 -0.1715  0.0840 -0.0384
 1285loPI   C4B20560   5.031  12.465   6.929  0.0940  0.1291 -0.2020
 1286loPI    C120561   5.686  17.003   4.650 -0.1500  0.1819 -0.1066
 1286loPI    C220562   5.438  16.847   4.377 -0.2787  0.3702 -0.0989
 1286loPI    C320563   5.604  17.205   4.315 -0.1085  0.3017 -0.0449
 1286loPI   PO420564   5.576  16.970   4.882  0.1124  0.0117  0.1205
 1286loPI   GL120565   5.352  17.001   5.157  0.1042 -0.2251 -0.0220
 1286loPI   GL220566   5.229  16.781   5.259 -0.1690  0.3515  0.2076
 1286loPI   C1A20567   5.392  17.209   5.599 -0.0318 -0.0190 -0.0776
 1286loPI   C2A20568   5.120  17.390   5.899 -0.1354  0.1065 -0.0174
 1286loPI   C3A20569   4.760  17.531   6.121 -0.4624  0.2174 -0.4042
 1286loPI   C4A20570   4.623  17.709   6.474  0.0485 -0.0180  0.0772
 1286loPI   C5A20571   4.549  17.944   6.704  0.0143  0.0745 -0.1265
 1286loPI   C6A20572   4.555  18.434   6.849 -0.0738  0.0482  0.0301
 1286loPI   C1B20573   5.277  16.644   5.640  0.3043  0.1700  0.1108
 1286loPI   C2B20574   5.000  16.535   6.073 -0.1332 -0.4006  0.0724
 1286loPI   C3B20575   5.072  16.583   6.428 -0.0091  0.0773  0.0149
 1286loPI   C4B20576   5.014  16.615   6.843  0.1332 -0.0597  0.1922
 1287loPI    C120577  14.975  18.970   3.926  0.0391  0.0774 -0.0453
 1287loPI    C220578  14.730  18.678   3.804  0.1594  0.0370 -0.1934
 1287loPI    C320579  14.763  19.015   3.590  0.0889  0.1225 -0.0711
 1287loPI   PO420580  15.076  18.908   4.152 -0.1723 -0.0163  0.2631
 1287loPI   GL120581  15.133  18.685   4.600 -0.3218 -0.4326  0.3275
 1287loPI   GL220582  14.932  19.004   4.596 -0.2413  0.0361 -0.0130
 1287loPI   C1A20583  15.127  18.613   5.058  0.1841  0.1128 -0.0679
 1287loPI   C2A20584  15.106  18.803   5.378  0.3807  0.1126 -0.1396
 1287loPI   C3A20585  15.014  18.686   5.885 -0.3594 -0.2843  0.0193
 1287loPI   C4A20586  14.922  18.816   6.314  0.2014  0.0904 -0.1330
 1287loPI   C5A20587  14.746  19.056   6.693  0.3286  0.0585  0.1937
 1287loPI   C6A20588  14.453  18.929   6.966  0.3358  0.0021  0.2473
 1287loPI   C1B20589  14.780  19.053   4.946  0.1528  0.0749  0.2022
 1287loPI   C2B20590  14.665  19.224   5.363  0.0403  0.2281  0.3930
 1287loPI   C3B20591  14.717  19.131   5.756 -0.0893  0.2086 -0.2684
 1287loPI   C4B20592  14.719  19.231   6.143 -0.1171 -0.2404  0.1639
 1288loPI    C120593   7.953   8.399   4.836  0.0526  0.0932  0.1081
 1288loPI    C220594   8.176   8.196   4.573 -0.1478  0.0659 -0.0425
 1288loPI    C320595   7.938   8.492   4.447 -0.0632  0.2141  0.1410
 1288loPI   PO420596   8.032   8.434   5.083  0.3401 -0.0670  0.1207
 1288loPI   GL120597   7.896   8.408   5.467 -0.0323  0.0103 -0.0903
 1288loPI   GL220598   7.526   8.381   5.514 -0.1174 -0.0384  0.0745
 1288loPI   C1A20599   7.977   8.309   5.856 -0.1057  0.0256  0.2563
 1288loPI   C2A20600   8.079   8.433   6.236 -0.2878 -0.0891 -0.0578
 1288loPI   C3A20601   8.399   8.427   6.576 -0.2923 -0.1568  0.3637
 1288loPI   C4A20602   8.476   8.170   6.955  0.0605  0.0838  0.0310
 1288loPI   C5A20603   8.735   7.957   7.302  0.0539 -0.0616  0.2608
 1288loPI   C6A20604   8.873   7.730   7.749  0.0899  0.2384 -0.3483
 1288loPI   C1B20605   7.509   8.345   5.976  0.1583 -0.1603 -0.1956
 1288loPI   C2B20606   7.539   8.596   6.372  0.1193  0.2568 -0.1119
 1288loPI   C3B20607   7.817   8.606   6.770 -0.2095  0.1140  0.0084
 1288loPI   C4B20608   8.076   8.522   7.017  0.0701 -0.1307  0.5544
 1289loPI    C120609  16.297  11.760   4.012  0.1400 -0.0851  0.0651
 1289loPI    C220610  16.373  11.395   3.868  0.0122 -0.0223 -0.1660
 1289loPI    C320611  16.578  11.710   3.732  0.1207 -0.0061  0.0315
 1289loPI   PO420612  16.188  11.786   4.232 -0.2854  0.1563 -0.1184
 1289loPI   GL120613  16.036  11.842   4.701 -0.0931  0.2115 -0.1970
 1289loPI   GL220614  16.481  11.860   4.675  0.1909 -0.3809 -0.3986
 1289loPI   C1A20615  15.869  11.923   5.122  0.0025  0.2384  0.1122
 1289loPI   C2A20616  15.979  11.811   5.556 -0.1404 -0.2146  0.0210
 1289loPI   C3A20617  16.160  11.578   5.964 -0.0562 -0.1899  0.1413
 1289loPI   C4A20618  16.025  11.236   6.277  0.0916 -0.1516  0.3109
 1289loPI   C5A20619  15.621  11.375   6.615  0.4236  0.1041  0.2717
 1289loPI   C6A20620  15.306  11.530   6.833  0.2018  0.5015 -0.3043
 1289loPI   C1B20621  16.324  11.721   5.229  0.0563  0.0210 -0.0318
 1289loPI   C2B20622  16.556  11.820   5.563 -0.1774 -0.4456 -0.0730
 1289loPI   C3B20623  16.669  11.788   5.966  0.0410 -0.3038  0.0380
 1289loPI   C4B20624  16.335  11.940   6.312  0.2491 -0.0310 -0.0054
 1290loPI    C120625  17.920   3.391   4.332  0.2572  0.2804 -0.1209
 1290loPI    C220626  17.581   3.600   4.372  0.0507 -0.0824  0.0779
 1290loPI    C320627  17.673   3.433   4.020  0.0236  0.0173  0.0233
 1290loPI   PO420628  17.865   3.281   4.581 -0.3235 -0.1435 -0.3085
 1290loPI   GL120629  17.877   3.251   5.032 -0.2740 -0.0110  0.1740
 1290loPI   GL220630  17.800   3.424   5.332 -0.2957  0.0066  0.1857
 1290loPI   C1A20631  17.736   2.923   5.275 -0.3176  0.0638 -0.0845
 1290loPI   C2A20632  17.872   2.780   5.614 -0.0837  0.1067 -0.1424
 1290loPI   C3A20633  17.592   2.543   5.875  0.0141 -0.2448 -0.1799
 1290loPI   C4A20634  17.310   2.375   6.203 -0.0516 -0.2239  0.0967
 1290loPI   C5A20635  16.961   2.114   6.361  0.0374  0.1136  0.1995
 1290loPI   C6A20636  16.448   2.004   6.484  0.0041 -0.1402  0.0191
 1290loPI   C1B20637  17.818   3.298   5.762  0.3348  0.3123  0.1293
 1290loPI   C2B20638  18.047   2.893   6.058 -0.0526 -0.1685  0.0035
 1290loPI   C3B20639  18.187   2.943   6.524 -0.1237 -0.0673  0.1873
 1290loPI   C4B20640  18.213   2.667   6.967  0.0236 -0.0912  0.0186
 1291loPI    C120641   9.089  12.715   4.809 -0.1297  0.1492 -0.1420
 1291loPI    C220642   9.266  12.853   4.479 -0.0576 -0.0405 -0.1843
 1291loPI    C320643   9.140  12.474   4.494  0.2853 -0.1477  0.1410
 1291loPI   PO420644   8.844  12.884   4.844  0.0760 -0.4418 -0.1175
 1291loPI   GL120645   8.651  12.897   5.281 -0.0080 -0.3761 -0.0676
 1291loPI   GL220646   8.470  12.767   5.385  0.1339  0.1220 -0.2392
 1291loPI   C1A20647   8.214  13.150   5.475 -0.1844  0.0138  0.0251
 1291loPI   C2A20648   8.069  13.250   5.830 -0.0055 -0.1591  0.0243
 1291loPI   C3A20649   7.911  13.245   6.190 -0.1538 -0.0520 -0.0948
 1291loPI   C4A20650   7.731  12.965   6.529 -0.2911 -0.0233 -0.1092
 1291loPI   C5A20651   7.534  12.859   6.827 -0.5386  0.1271  0.0731
 1291loPI   C6A20652   7.252  12.905   7.185 -0.2904 -0.1512 -0.1876
 1291loPI   C1B20653   8.667  12.835   5.822  0.0682 -0.1725  0.1617
 1291loPI   C2B20654   8.587  12.879   6.327  0.2657 -0.0430  0.0351
 1291loPI   C3B20655   8.648  12.873   6.773  0.1315 -0.1524 -0.0937
 1291loPI   C4B20656   8.582  13.113   7.020 -0.2848  0.1995 -0.1679
 1292loPI    C120657  12.146   9.569   4.351 -0.0919  0.0215  0.1847
 1292loPI    C220658  11.747   9.546   4.326 -0.1000  0.2813  0.0394
 1292loPI    C320659  11.961   9.663   4.009  0.1001  0.0657  0.0918
 1292loPI   PO420660  12.149   9.430   4.575  0.1134 -0.1150 -0.0694
 1292loPI   GL120661  12.402   9.427   4.985 -0.0971 -0.0826  0.1319
 1292loPI   GL220662  12.578   9.618   5.099 -0.0667  0.1762  0.1800
 1292loPI   C1A20663  12.314   9.143   5.296 -0.2101  0.3654 -0.1019
 1292loPI   C2A20664  12.193   9.113   5.629  0.1534  0.2675 -0.1104
 1292loPI   C3A20665  11.957   8.777   5.895 -0.0470 -0.2147 -0.2940
 1292loPI   C4A20666  12.144   8.679   6.306  0.1150  0.1179  0.3121
 1292loPI   C5A20667  12.113   8.564   6.775 -0.0516 -0.0926 -0.0195
 1292loPI   C6A20668  11.917   8.220   6.987  0.1591 -0.1797  0.2826
 1292loPI   C1B20669  12.730   9.417   5.410  0.2563 -0.1998  0.2173
 1292loPI   C2B20670  12.670   9.087   5.699  0.3328  0.4557 -0.3891
 1292loPI   C3B20671  12.393   9.082   6.103  0.1379  0.0274 -0.1451
 1292loPI   C4B20672  12.349   9.462   6.315  0.0293 -0.2389 -0.0474
 1293loPI    C120673   5.458  18.982   4.749  0.1268  0.1954 -0.1146
 1293loPI    C220674   5.337  19.363   4.734 -0.3177  0.0642 -0.0065
 1293loPI    C320675   5.250  19.114   4.433  0.0469  0.0651 -0.1172
 1293loPI   PO420676   5.751  18.983   4.723 -0.2023 -0.0175  0.0427
 1293loPI   GL120677   5.946  18.956   5.103  0.1183  0.1244 -0.3433
 1293loPI   GL220678   6.187  19.121   4.968 -0.1437  0.0750  0.0460
 1293loPI   C1A20679   5.745  18.841   5.486  0.1184  0.2225 -0.3598
 1293loPI   C2A20680   5.645  19.035   5.852  0.0886 -0.1642  0.2181
 1293loPI   C3A20681   5.807  19.090   6.245 -0.1048  0.1248  0.1903
 1293loPI   C4A20682   6.138  18.917   6.544 -0.4301 -0.2481 -0.2902
 1293loPI   C5A20683   6.328  18.932   6.906 -0.1217 -0.1143  0.0208
 1293loPI   C6A20684   6.660  18.953   7.130  0.0831  0.1074  0.0849
 1293loPI   C1B20685   6.413  19.136   5.287 -0.2677  0.0317 -0.0947
 1293loPI   C2B20686   6.539  19.031   5.782  0.1140  0.0436  0.3564
 1293loPI   C3B20687   6.605  19.024   6.272 -0.2848 -0.2686  0.2231
 1293loPI   C4B20688   6.615  18.713   6.611 -0.0695 -0.0874 -0.1391
 1294loPI    C120689  12.956   9.259   4.592  0.0199 -0.0975 -0.0781
 1294loPI    C220690  12.616   9.176   4.398 -0.0991  0.2561 -0.0283
 1294loPI    C320691  12.936   9.302   4.195 -0.0420  0.0661 -0.0581
 1294loPI   PO420692  12.977   9.443   4.779  0.2595 -0.1500  0.0000
 1294loPI   GL120693  13.170   9.351   5.184  0.0430 -0.0286  0.0939
 1294loPI   GL220694  13.421   9.515   5.320  0.1726  0.3150  0.1326
 1294loPI   C1A20695  13.164   9.125   5.489  0.3188 -0.0622 -0.1454
 1294loPI   C2A20696  13.324   9.139   5.952 -0.0153 -0.1184  0.0380
 1294loPI   C3A20697  13.331   9.187   6.347  0.3245  0.4264  0.1853
 1294loPI   C4A20698  13.147   9.109   6.703  0.1620  0.0266  0.1638
 1294loPI   C5A20699  13.029   9.048   7.182 -0.1808 -0.0227  0.0803
 1294loPI   C6A20700  12.697   9.224   7.298  0.3367 -0.1779  0.2912
 1294loPI   C1B20701  13.441   9.781   5.708  0.1166 -0.2063 -0.2978
 1294loPI   C2B20702  13.340   9.609   6.144  0.0337  0.0404 -0.0285
 1294loPI   C3B20703  13.135   9.588   6.511 -0.4057  0.0215  0.4360
 1294loPI   C4B20704  13.230   9.733   6.881  0.3328  0.0101  0.1146
 1295loPI    C120705  14.704  19.375   3.958  0.1446  0.2452 -0.0390
 1295loPI    C220706  14.442  19.667   3.883  0.2386  0.3081 -0.1265
 1295loPI    C320707  14.364  19.293   3.765 -0.0687  0.2163  0.3399
 1295loPI   PO420708  14.772  19.382   4.200  0.4487  0.0393 -0.1499
 1295loPI   GL120709  14.581  19.319   4.584 -0.0270 -0.2478  0.1699
 1295loPI   GL220710  14.877  19.498   4.710 -0.0488 -0.0529  0.2671
 1295loPI   C1A20711  14.404  19.408   4.974 -0.2162 -0.1305 -0.2180
 1295loPI   C2A20712  14.224  19.481   5.375 -0.1070  0.0030  0.2710
 1295loPI   C3A20713  14.344  19.480   5.725 -0.2533 -0.3280 -0.1920
 1295loPI   C4A20714  14.217  19.479   6.113 -0.1373  0.4071  0.1306
 1295loPI   C5A20715  14.367  19.316   6.553  0.0931  0.1469  0.0482
 1295loPI   C6A20716  14.381  19.496   6.896 -0.0697 -0.0864 -0.1198
 1295loPI   C1B20717  14.835  19.688   5.166  0.3519 -0.0538  0.3109
 1295loPI   C2B20718  14.820  19.644   5.589  0.3286  0.1751  0.0928
 1295loPI   C3B20719  14.706  19.689   5.960  0.0815  0.1248  0.0008
 1295loPI   C4B20720  14.759  19.590   6.458 -0.3292  0.0474  0.0925
 1296loPI    C120721  14.504  14.067   4.704 -0.3057 -0.0785 -0.1309
 1296loPI    C220722  14.468  14.296   5.030  0.0098  0.2262 -0.3034
 1296loPI    C320723  14.202  14.005   4.959 -0.0823  0.1774  0.2040
 1296loPI   PO420724  14.695  14.069   4.702 -0.1179 -0.0567  0.1604
 1296loPI   GL120725  15.000  14.346   5.045  0.3574  0.2925 -0.1568
 1296loPI   GL220726  15.225  14.094   5.105  0.0293 -0.2443 -0.0242
 1296loPI   C1A20727  14.933  14.413   5.543  0.2411 -0.1311  0.0158
 1296loPI   C2A20728  14.832  14.745   5.907 -0.2925 -0.3033  0.1766
 1296loPI   C3A20729  14.691  14.858   6.414  0.2431 -0.1416  0.1326
 1296loPI   C4A20730  14.843  15.008   6.817  0.2251 -0.0040 -0.0472
 1296loPI   C5A20731  15.128  14.824   6.964 -0.2045  0.0881 -0.0905
 1296loPI   C6A20732  15.517  14.632   7.140 -0.1641  0.0849  0.3246
 1296loPI   C1B20733  15.423  14.216   5.481  0.0255 -0.2812 -0.1258
 1296loPI   C2B20734  15.641  14.180   5.835  0.1893  0.1665  0.1786
 1296loPI   C3B20735  15.741  14.391   6.273  0.0205 -0.2295 -0.1179
 1296loPI   C4B20736  15.571  14.618   6.635  0.0853 -0.2619  0.0365
 1297loPI    C120737  11.671   0.046   3.326 -0.0352 -0.0612  0.2759
 1297loPI    C220738  11.427   0.302   3.139  0.0496 -0.0077  0.2378
 1297loPI    C320739  11.550  -0.031   2.953  0.1128  0.0323  0.2075
 1297loPI   PO420740  11.526  -0.028   3.697 -0.0509 -0.2030  0.2638
 1297loPI   GL120741  11.445  -0.173   4.142 -0.0018  0.1729  0.0788
 1297loPI   GL220742  11.135   0.039   4.214  0.1157  0.2173  0.1062
 1297loPI   C1A20743  11.800  -0.254   4.554  0.4139 -0.0707 -0.2715
 1297loPI   C2A20744  11.915  -0.321   4.988  0.2963 -0.0760 -0.0883
 1297loPI   C3A20745  11.987  -0.386   5.462  0.0523  0.2047  0.0919
 1297loPI   C4A20746  12.056  -0.543   5.910  0.4234  0.2268  0.2418
 1297loPI   C5A20747  12.267  -0.653   6.365 -0.2192  0.4984  0.2384
 1297loPI   C6A20748  12.093  -0.686   6.730  0.6372  0.2729  0.0406
 1297loPI   C1B20749  11.060  -0.072   4.594  0.2786 -0.0590 -0.1563
 1297loPI   C2B20750  11.094  -0.090   5.026 -0.1858 -0.2511  0.0501
 1297loPI   C3B20751  11.147  -0.007   5.346  0.0687  0.1309  0.0731
 1297loPI   C4B20752  11.274  -0.095   5.680  0.2301  0.1230 -0.2654
 1298loPI    C120753  19.077   2.614   4.048 -0.2549  0.0336 -0.1032
 1298loPI    C220754  18.905   2.398   3.759 -0.2387 -0.0054 -0.0838
 1298loPI    C320755  19.056   2.759   3.676  0.1300 -0.1850 -0.2146
 1298loPI   PO420756  19.221   2.370   4.236 -0.0571  0.0715  0.0613
 1298loPI   GL120757  19.399   2.395   4.642 -0.2640 -0.0148 -0.1092
 1298loPI   GL220758  19.556   2.142   4.774  0.1276  0.1659 -0.0509
 1298loPI   C1A20759  19.496   2.521   5.080 -0.0496  0.0331 -0.0011
 1298loPI   C2A20760  19.568   2.471   5.531  0.0628 -0.1955 -0.1628
 1298loPI   C3A20761  19.729   2.311   5.951  0.5691 -0.0342  0.0338
 1298loPI   C4A20762  19.610   2.462   6.331  0.0553  0.1195 -0.1855
 1298loPI   C5A20763  19.244   2.655   6.585 -0.2058  0.1158 -0.0975
 1298loPI   C6A20764  19.109   3.012   6.840 -0.3344  0.0691 -0.3323
 1298loPI   C1B20765  19.889   2.188   5.014  0.2469 -0.0336 -0.0034
 1298loPI   C2B20766  20.000   2.289   5.426  0.0977 -0.2422  0.0317
 1298loPI   C3B20767  20.200   2.477   5.769 -0.1324 -0.1649 -0.0107
 1298loPI   C4B20768  20.255   2.237   6.038  0.0360 -0.1909 -0.3634
 1299loPI    C120769   1.456  13.371   4.690  0.0700 -0.0779  0.4106
 1299loPI    C220770   1.812  13.532   4.777  0.1485 -0.2575  0.4272
 1299loPI    C320771   1.787  13.235   4.511 -0.1044  0.3905 -0.3140
 1299loPI   PO420772   1.331  13.402   4.963 -0.0924 -0.2222  0.1229
 1299loPI   GL120773   1.348  13.255   5.365  0.1035  0.0411  0.0087
 1299loPI   GL220774   1.572  13.502   5.405  0.0067 -0.1408 -0.1896
 1299loPI   C1A20775   1.417  13.068   5.711 -0.1589 -0.1642 -0.3197
 1299loPI   C2A20776   1.434  13.208   6.038 -0.2077 -0.2442 -0.0479
 1299loPI   C3A20777   1.682  13.413   6.283 -0.0527 -0.1978  0.1322
 1299loPI   C4A20778   1.776  13.478   6.673  0.0439  0.0584  0.2840
 1299loPI   C5A20779   1.840  13.452   7.026 -0.1930  0.1097  0.2083
 1299loPI   C6A20780   2.184  13.562   7.260  0.1665  0.2091 -0.2670
 1299loPI   C1B20781   1.732  13.510   5.804 -0.1313 -0.1619 -0.0014
 1299loPI   C2B20782   2.078  13.692   6.173 -0.2881  0.1762 -0.3474
 1299loPI   C3B20783   2.474  14.067   6.355  0.0365  0.1640  0.2040
 1299loPI   C4B20784   2.871  14.402   6.411  0.1498 -0.3042 -0.3420
 1300loPI    C120785  12.306  10.184   4.662 -0.1005  0.0007  0.0087
 1300loPI    C220786  12.424  10.099   4.289  0.2604 -0.3219  0.1895
 1300loPI    C320787  12.424  10.478   4.417  0.2140 -0.2186 -0.1091
 1300loPI   PO420788  12.463  10.034   4.812  0.1705 -0.2859  0.0622
 1300loPI   GL120789  12.565  10.071   5.204  0.0915 -0.0292 -0.0047
 1300loPI   GL220790  12.880  10.071   5.175  0.2530  0.2508  0.2119
 1300loPI   C1A20791  12.447  10.151   5.620 -0.2488 -0.0091 -0.1301
 1300loPI   C2A20792  12.595  10.511   5.809  0.1810  0.0983  0.1732
 1300loPI   C3A20793  12.592  10.771   6.140  0.0205  0.3778  0.0157
 1300loPI   C4A20794  12.972  10.950   6.391 -0.3400 -0.0160 -0.0353
 1300loPI   C5A20795  13.195  11.362   6.499  0.3426  0.0779  0.0627
 1300loPI   C6A20796  13.536  11.739   6.472 -0.0699  0.1373  0.1234
 1300loPI   C1B20797  13.003   9.835   5.496  0.2404  0.2452 -0.1379
 1300loPI   C2B20798  12.975   9.542   5.832 -0.1837  0.1130  0.0873
 1300loPI   C3B20799  12.802   9.320   6.239 -0.5169  0.2263  0.1130
 1300loPI   C4B20800  12.691   9.287   6.706  0.2245  0.2615 -0.0460
 1301loPI    C120801  16.311   8.674   3.998  0.2328  0.0204  0.1801
 1301loPI    C220802  16.679   8.829   3.976  0.3056 -0.1484  0.1883
 1301loPI    C320803  16.610   8.459   3.841  0.0912 -0.0364 -0.0155
 1301loPI   PO420804  16.222   8.846   4.288 -0.2813  0.2693  0.0478
 1301loPI   GL120805  16.208   8.896   4.680  0.0773  0.0978 -0.3967
 1301loPI   GL220806  15.911   8.756   4.765  0.0741 -0.2940 -0.1155
 1301loPI   C1A20807  16.400   8.896   4.977 -0.0517 -0.1372 -0.0077
 1301loPI   C2A20808  16.408   8.748   5.295 -0.1949  0.0237 -0.1059
 1301loPI   C3A20809  16.421   8.516   5.732 -0.1898  0.0590  0.0785
 1301loPI   C4A20810  16.210   8.502   6.024 -0.0257 -0.0451 -0.2031
 1301loPI   C5A20811  16.205   8.553   6.433  0.1098 -0.1570  0.0799
 1301loPI   C6A20812  16.353   8.333   6.778 -0.0806 -0.2323 -0.0675
 1301loPI   C1B20813  15.924   8.819   5.208 -0.0754 -0.2073  0.1887
 1301loPI   C2B20814  15.856   8.741   5.685 -0.1166 -0.0133  0.0424
 1301loPI   C3B20815  15.764   8.673   6.145  0.1052 -0.2411  0.0237
 1301loPI   C4B20816  15.692   8.680   6.576 -0.2812  0.1189  0.0085
 1302loPI    C120817  19.139  15.974   4.643  0.1201 -0.2130 -0.0108
 1302loPI    C220818  18.792  15.968   4.445  0.0943  0.1356  0.0181
 1302loPI    C320819  19.100  16.180   4.302  0.2544 -0.0650  0.0617
 1302loPI   PO420820  19.048  15.974   4.887  0.0471  0.2151 -0.2033
 1302loPI   GL120821  19.026  16.014   5.374 -0.0927 -0.1240 -0.0877
 1302loPI   GL220822  19.356  15.892   5.323  0.0496 -0.2982 -0.1289
 1302loPI   C1A20823  18.664  16.271   5.505  0.0863  0.0939 -0.0442
 1302loPI   C2A20824  18.577  16.592   5.783 -0.3248  0.2029  0.1841
 1302loPI   C3A20825  18.520  16.696   6.197 -0.2075 -0.0779  0.2541
 1302loPI   C4A20826  18.290  17.098   6.434  0.0095 -0.0520  0.0651
 1302loPI   C5A20827  17.889  17.291   6.628  0.0993 -0.1434  0.4974
 1302loPI   C6A20828  17.690  17.444   7.061  0.0510 -0.0949 -0.0032
 1302loPI   C1B20829  19.449  16.040   5.664 -0.2370  0.1892 -0.0842
 1302loPI   C2B20830  19.613  16.313   6.021 -0.1990  0.2046 -0.0996
 1302loPI   C3B20831  19.865  16.405   6.393 -0.1179 -0.1176  0.0907
 1302loPI   C4B20832  20.105  16.312   6.702  0.0667 -0.1675  0.1831
 1303loPI    C120833   4.606   5.722   4.751 -0.0726  0.0263  0.0062
 1303loPI    C220834   4.300   5.723   4.493 -0.0907  0.1485  0.0275
 1303loPI    C320835   4.525   6.051   4.539  0.0791  0.0416 -0.0295
 1303loPI   PO420836   4.506   5.665   4.939  0.1426 -0.1887 -0.0318
 1303loPI   GL120837   4.731   5.703   5.240 -0.2079 -0.0244  0.3848
 1303loPI   GL220838   4.973   5.533   5.334 -0.2563  0.2539 -0.0223
 1303loPI   C1A20839   4.633   5.734   5.619  0.0445 -0.0209  0.1482
 1303loPI   C2A20840   4.651   5.712   6.115 -0.1780 -0.0985 -0.1623
 1303loPI   C3A20841   4.827   5.406   6.309  0.2171 -0.0693  0.0440
 1303loPI   C4A20842   4.769   5.219   6.564  0.0155  0.0023 -0.1166
 1303loPI   C5A20843   4.872   5.106   6.915  0.0575 -0.4069  0.4005
 1303loPI   C6A20844   5.236   5.075   7.024  0.2380  0.2545 -0.0912
 1303loPI   C1B20845   5.000   5.383   5.794  0.0586  0.1911 -0.1410
 1303loPI   C2B20846   4.808   4.972   5.965  0.1256 -0.0057  0.2672
 1303loPI   C3B20847   4.890   4.735   6.357  0.1257  0.2416 -0.0462
 1303loPI   C4B20848   5.235   4.649   6.703 -0.0449  0.0479 -0.2728
 1304loPI    C120849  14.600  14.579   4.106  0.1889  0.0003 -0.1863
 1304loPI    C220850  14.240  14.613   3.934  0.0611 -0.1729  0.0422
 1304loPI    C320851  14.555  14.501   3.716 -0.0190 -0.0037 -0.1631
 1304loPI   PO420852  14.656  14.878   4.223  0.0012  0.3061 -0.0575
 1304loPI   GL120853  14.698  15.127   4.547 -0.2251  0.0483 -0.2308
 1304loPI   GL220854  14.614  15.460   4.616 -0.1946  0.0296 -0.2393
 1304loPI   C1A20855  14.791  15.233   5.041 -0.0999  0.1426  0.0829
 1304loPI   C2A20856  15.147  15.333   5.321  0.1764 -0.1319  0.0137
 1304loPI   C3A20857  15.207  15.371   5.679 -0.1801  0.2806  0.4778
 1304loPI   C4A20858  15.057  15.231   6.060  0.1881  0.2033  0.0169
 1304loPI   C5A20859  15.154  14.811   6.311  0.0387 -0.2444  0.1428
 1304loPI   C6A20860  14.896  14.372   6.383  0.0050 -0.1262  0.0370
 1304loPI   C1B20861  14.699  15.744   5.074  0.0051  0.1079  0.3018
 1304loPI   C2B20862  14.836  15.660   5.472 -0.4255  0.0249  0.1353
 1304loPI   C3B20863  14.705  15.550   5.873 -0.0430 -0.2055 -0.2087
 1304loPI   C4B20864  14.563  15.206   6.013 -0.0552 -0.0175 -0.1772
 1305loPI    C120865   8.094   2.966   4.057 -0.0220  0.0537  0.0512
 1305loPI    C220866   8.380   2.889   3.788 -0.0143  0.1332  0.0365
 1305loPI    C320867   8.044   3.076   3.676 -0.1268 -0.0712  0.0280
 1305loPI   PO420868   8.180   3.034   4.301  0.2841 -0.1065 -0.0539
 1305loPI   GL120869   8.082   2.898   4.706 -0.0906  0.1539  0.0915
 1305loPI   GL220870   8.219   3.165   4.727 -0.0547  0.1230 -0.1736
 1305loPI   C1A20871   7.976   2.907   5.090 -0.0956 -0.0345 -0.1640
 1305loPI   C2A20872   8.220   3.200   5.484 -0.0169  0.2008 -0.1227
 1305loPI   C3A20873   8.264   3.411   5.768  0.1537 -0.0500  0.0782
 1305loPI   C4A20874   8.293   3.432   6.226 -0.3078  0.1023 -0.0023
 1305loPI   C5A20875   8.202   3.678   6.638 -0.0535 -0.1192 -0.0313
 1305loPI   C6A20876   8.467   4.052   6.787 -0.1415  0.1327 -0.0213
 1305loPI   C1B20877   8.466   3.351   5.094  0.0324  0.3621  0.1326
 1305loPI   C2B20878   8.578   3.629   5.326  0.0222 -0.1475 -0.0501
 1305loPI   C3B20879   8.690   3.792   5.783 -0.0484  0.0090  0.3201
 1305loPI   C4B20880   8.629   3.794   6.211 -0.2850  0.1584 -0.2004
 1306loPI    C120881   8.356   1.364   3.917 -0.0602 -0.0486 -0.0470
 1306loPI    C220882   8.237   0.983   3.952 -0.0786 -0.0259  0.1494
 1306loPI    C320883   8.106   1.207   3.647 -0.1705 -0.1383  0.1057
 1306loPI   PO420884   8.304   1.425   4.216 -0.0559 -0.0779 -0.2618
 1306loPI   GL120885   8.454   1.438   4.625 -0.0717  0.0546 -0.0217
 1306loPI   GL220886   8.174   1.545   4.818 -0.0001 -0.0532  0.1104
 1306loPI   C1A20887   8.672   1.223   4.976 -0.3876 -0.1313  0.0232
 1306loPI   C2A20888   8.748   1.332   5.440  0.2609 -0.3058 -0.3331
 1306loPI   C3A20889   8.918   1.643   5.660  0.1042  0.1230  0.0772
 1306loPI   C4A20890   8.689   1.897   5.891 -0.0363  0.0954  0.0156
 1306loPI   C5A20891   8.296   2.009   6.001 -0.2975  0.2779  0.0821
 1306loPI   C6A20892   7.954   1.780   5.950  0.0823  0.0900 -0.0141
 1306loPI   C1B20893   8.261   1.471   5.112  0.1984 -0.1806  0.1254
 1306loPI   C2B20894   8.261   1.562   5.603  0.1748 -0.1425 -0.0729
 1306loPI   C3B20895   8.318   1.412   5.960 -0.3043 -0.0465  0.4431
 1306loPI   C4B20896   8.488   1.190   6.301  0.2922  0.1483 -0.1200
 1307loPI    C120897   5.247  16.119   4.672 -0.1444 -0.0390  0.1514
 1307loPI    C220898   5.184  15.964   4.309 -0.2822  0.1178  0.1072
 1307loPI    C320899   5.320  16.338   4.345  0.1960 -0.0587  0.2104
 1307loPI   PO420900   5.334  15.955   4.844  0.0136  0.1682 -0.1213
 1307loPI   GL120901   5.198  15.684   5.257 -0.2452 -0.0139 -0.1811
 1307loPI   GL220902   4.881  15.855   5.236  0.0256 -0.0621 -0.1760
 1307loPI   C1A20903   5.219  15.686   5.739 -0.0915 -0.2092  0.1783
 1307loPI   C2A20904   5.216  15.664   6.252  0.0209  0.1511  0.0197
 1307loPI   C3A20905   5.412  15.511   6.608 -0.0688  0.0024 -0.2023
 1307loPI   C4A20906   5.655  15.619   6.952  0.1747  0.2681 -0.0898
 1307loPI   C5A20907   5.666  15.787   7.356  0.1681 -0.2103 -0.5664
 1307loPI   C6A20908   5.242  15.815   7.717 -0.0059  0.3031 -0.0513
 1307loPI   C1B20909   4.648  15.787   5.693  0.2349  0.1454 -0.0518
 1307loPI   C2B20910   4.756  15.480   6.074 -0.1200 -0.0040 -0.0081
 1307loPI   C3B20911   4.899  15.315   6.402  0.0271 -0.2895  0.0932
 1307loPI   C4B20912   4.872  15.239   6.976 -0.1322  0.2910  0.3639
 1308loPI    C120913   7.739  10.120   4.819  0.1407  0.0225  0.1494
 1308loPI    C220914   7.805  10.322   4.480 -0.1721 -0.1245 -0.0028
 1308loPI    C320915   7.723   9.930   4.467  0.1638 -0.2081  0.2707
 1308loPI   PO420916   7.660  10.252   4.965 -0.4444 -0.2380  0.0935
 1308loPI   GL120917   7.365  10.137   5.244 -0.3160  0.0635  0.2644
 1308loPI   GL220918   7.576   9.954   5.359  0.3402 -0.2824 -0.3209
 1308loPI   C1A20919   7.186  10.159   5.699  0.0076  0.0113 -0.0403
 1308loPI   C2A20920   7.092  10.016   6.145 -0.1979 -0.1136  0.0198
 1308loPI   C3A20921   7.149   9.838   6.649  0.1012 -0.0868  0.2189
 1308loPI   C4A20922   7.155   9.672   6.995 -0.2072  0.0014 -0.3055
 1308loPI   C5A20923   7.312   9.999   7.278 -0.0300 -0.0866  0.0437
 1308loPI   C6A20924   7.629  10.304   7.193  0.2854  0.0826 -0.0979
 1308loPI   C1B20925   7.543   9.736   5.720 -0.1827 -0.2718  0.1894
 1308loPI   C2B20926   7.549   9.699   6.273  0.1581 -0.1405 -0.3930
 1308loPI   C3B20927   7.474   9.402   6.608 -0.2206  0.0956 -0.3272
 1308loPI   C4B20928   7.299   8.900   6.735  0.0850  0.0846 -0.2133
 1309loPI    C120929  17.433   4.034   4.555 -0.2350  0.0285  0.1514
 1309loPI    C220930  17.118   4.203   4.375 -0.1558  0.0222  0.0059
 1309loPI    C320931  17.396   4.015   4.157 -0.1201 -0.0888  0.1456
 1309loPI   PO420932  17.310   3.977   4.799  0.2127 -0.2602 -0.2007
 1309loPI   GL120933  16.993   3.903   5.178 -0.1607 -0.1877 -0.1448
 1309loPI   GL220934  17.046   3.574   5.123  0.0335  0.1328 -0.0393
 1309loPI   C1A20935  16.796   3.765   5.714 -0.1793 -0.0202  0.5038
 1309loPI   C2A20936  16.849   3.751   6.161 -0.0635 -0.0223 -0.0986
 1309loPI   C3A20937  16.939   3.735   6.556 -0.1578 -0.0119 -0.1850
 1309loPI   C4A20938  16.666   3.594   6.966 -0.2159  0.2477 -0.1350
 1309loPI   C5A20939  16.369   3.256   7.020 -0.1982 -0.3203 -0.1797
 1309loPI   C6A20940  16.328   2.776   7.218 -0.0358  0.0567 -0.2714
 1309loPI   C1B20941  17.246   3.630   5.522  0.1814  0.0623 -0.0732
 1309loPI   C2B20942  17.300   3.457   5.857 -0.0106 -0.0358 -0.2109
 1309loPI   C3B20943  17.267   3.469   6.328 -0.1697  0.1806 -0.0785
 1309loPI   C4B20944  17.296   3.397   6.655  0.1496 -0.0156  0.0005
 1310loPI    C120945   1.764   6.582   4.861  0.1950 -0.1041  0.0024
 1310loPI    C220946   2.110   6.530   4.667  0.2946  0.0758  0.1284
 1310loPI    C320947   1.989   6.899   4.764 -0.1126  0.0475 -0.2374
 1310loPI   PO420948   1.808   6.307   5.040  0.1288 -0.0925  0.1901
 1310loPI   GL120949   1.938   5.955   5.320 -0.1331 -0.1411 -0.0542
 1310loPI   GL220950   1.702   5.732   5.375 -0.2928  0.0657  0.4275
 1310loPI   C1A20951   1.804   5.967   5.778  0.0931  0.1093  0.2438
 1310loPI   C2A20952   1.954   6.127   6.233  0.1349  0.0437  0.1491
 1310loPI   C3A20953   2.048   6.014   6.704 -0.1354  0.1300  0.0552
 1310loPI   C4A20954   2.116   5.763   7.181 -0.1129 -0.1602  0.1865
 1310loPI   C5A20955   2.018   5.932   7.601  0.1211 -0.0691 -0.1391
 1310loPI   C6A20956   1.805   5.987   7.914  0.0442  0.0581  0.0530
 1310loPI   C1B20957   1.635   5.319   5.822  0.2355 -0.0457 -0.1086
 1310loPI   C2B20958   1.637   5.326   6.266  0.0062 -0.0215  0.4837
 1310loPI   C3B20959   1.542   4.997   6.632 -0.1379  0.0591  0.0214
 1310loPI   C4B20960   1.621   4.525   6.577 -0.0901 -0.0016 -0.1590
 1311loPI    C120961  16.907   7.460   4.174 -0.1975 -0.0420  0.0376
 1311loPI    C220962  17.104   7.666   3.893  0.0265 -0.1804  0.0909
 1311loPI    C320963  16.827   7.398   3.787 -0.1024 -0.0181  0.0137
 1311loPI   PO420964  16.987   7.671   4.437  0.1675  0.0087 -0.1178
 1311loPI   GL120965  16.802   7.675   4.810  0.0383 -0.0698 -0.0982
 1311loPI   GL220966  16.652   7.398   4.795 -0.3005  0.3440 -0.1788
 1311loPI   C1A20967  16.662   7.779   5.201 -0.2279 -0.0063 -0.0095
 1311loPI   C2A20968  16.647   7.536   5.587  0.0080  0.0617  0.0442
 1311loPI   C3A20969  16.664   7.486   6.103 -0.2973 -0.6530  0.1517
 1311loPI   C4A20970  16.752   7.538   6.551 -0.2662 -0.1062  0.3850
 1311loPI   C5A20971  16.364   7.707   6.702 -0.5091  0.1495 -0.2478
 1311loPI   C6A20972  16.419   7.788   7.137  0.0689  0.2183  0.2076
 1311loPI   C1B20973  16.813   7.226   5.201 -0.3345 -0.0664 -0.2495
 1311loPI   C2B20974  16.872   7.093   5.601  0.1334 -0.2852 -0.0475
 1311loPI   C3B20975  16.843   6.957   6.049 -0.0221  0.0816  0.0576
 1311loPI   C4B20976  16.767   6.773   6.471 -0.2277 -0.0425  0.1828
 1312loPI    C120977  11.211  11.122   4.984  0.1160 -0.0252 -0.0447
 1312loPI    C220978  11.234  10.925   4.636  0.0158 -0.0005 -0.0655
 1312loPI    C320979  11.208  11.325   4.639 -0.1950 -0.0134 -0.0378
 1312loPI   PO420980  11.432  11.093   5.160  0.1344  0.2134  0.3929
 1312loPI   GL120981  11.541  10.959   5.414  0.2704 -0.0110  0.2279
 1312loPI   GL220982  11.647  10.784   5.687  0.0270 -0.4374  0.0126
 1312loPI   C1A20983  11.496  11.248   5.790  0.2500  0.4193  0.1455
 1312loPI   C2A20984  11.605  11.280   6.231  0.0550  0.0903 -0.1183
 1312loPI   C3A20985  11.490  11.216   6.628 -0.0171  0.0555 -0.2622
 1312loPI   C4A20986  11.584  11.219   7.003 -0.1355  0.1960 -0.0360
 1312loPI   C5A20987  11.672  10.880   7.307  0.1590  0.0819  0.1089
 1312loPI   C6A20988  11.908  10.694   7.569  0.0341 -0.2720 -0.0686
 1312loPI   C1B20989  11.583  10.814   6.218  0.0753 -0.0250  0.1289
 1312loPI   C2B20990  11.241  10.751   6.540 -0.1908 -0.1112  0.0051
 1312loPI   C3B20991  11.284  10.861   7.033  0.2379  0.2424 -0.2110
 1312loPI   C4B20992  11.257  11.112   7.355 -0.1639  0.0431  0.0770
 1313loPI    C120993   6.643  11.144   4.796 -0.1114 -0.1417 -0.0301
 1313loPI    C220994   6.317  10.912   4.798 -0.0534 -0.2231  0.0494
 1313loPI    C320995   6.586  10.876   4.504 -0.1580 -0.0958 -0.0634
 1313loPI   PO420996   6.692  11.062   5.096  0.0559  0.3533  0.0108
 1313loPI   GL120997   6.478  11.098   5.467  0.2763 -0.1256 -0.1806
 1313loPI   GL220998   6.837  11.234   5.528 -0.0584 -0.0965 -0.0197
 1313loPI   C1A20999   6.299  11.224   5.850  0.0394  0.2411  0.0417
 1313loPI   C2A21000   6.150  11.315   6.303 -0.0966  0.0628 -0.2387
 1313loPI   C3A21001   6.248  11.622   6.783  0.2472 -0.2484  0.0431
 1313loPI   C4A21002   6.183  11.739   7.163  0.0766 -0.0567 -0.0356
 1313loPI   C5A21003   5.993  11.606   7.477 -0.1279  0.1488 -0.0389
 1313loPI   C6A21004   6.278  11.374   7.723 -0.1122  0.0123 -0.1269
 1313loPI   C1B21005   7.012  11.118   5.942  0.3537  0.0045 -0.1305
 1313loPI   C2B21006   6.909  11.190   6.463  0.0189 -0.1458 -0.0204
 1313loPI   C3B21007   6.507  11.247   6.763  0.0390  0.2701  0.1387
 1313loPI   C4B21008   6.271  11.289   7.174  0.2134  0.1425 -0.1965
 1314loPI    C121009   7.670  11.806   4.916  0.2966 -0.0872  0.0551
 1314loPI    C221010   7.867  12.129   4.787 -0.0242  0.0761 -0.0352
 1314loPI    C321011   7.665  11.901   4.527  0.0273 -0.0781  0.0589
 1314loPI   PO421012   7.757  11.676   5.102  0.1487 -0.2621 -0.0516
 1314loPI   GL121013   7.787  11.744   5.507 -0.3234  0.0218 -0.4548
 1314loPI   GL221014   7.835  12.120   5.601  0.1343 -0.1186  0.1727
 1314loPI   C1A21015   7.619  11.789   5.968 -0.2772  0.1456 -0.2385
 1314loPI   C2A21016   7.657  11.796   6.445  0.0859 -0.2522  0.1572
 1314loPI   C3A21017   7.965  11.727   6.781 -0.2361  0.2271 -0.2888
 1314loPI   C4A21018   8.267  11.710   7.045 -0.3665  0.3049 -0.2382
 1314loPI   C5A21019   8.424  11.670   7.469  0.1840  0.0750 -0.0925
 1314loPI   C6A21020   8.906  11.845   7.668  0.3464 -0.4064  0.3119
 1314loPI   C1B21021   7.975  12.318   5.996 -0.1703  0.0735 -0.2149
 1314loPI   C2B21022   8.161  12.117   6.372  0.1264  0.2665 -0.0176
 1314loPI   C3B21023   8.380  12.011   6.671 -0.0342 -0.2930 -0.0606
 1314loPI   C4B21024   8.671  11.775   6.835 -0.5690 -0.2343  0.3607
 1315loPI    C121025  10.456   4.141   4.238  0.2494  0.2256  0.0581
 1315loPI    C221026  10.130   4.370   4.277  0.1057  0.0330  0.0026
 1315loPI    C321027  10.451   4.509   4.081  0.0390  0.2048  0.0138
 1315loPI   PO421028  10.457   4.036   4.493  0.0338 -0.2360  0.2864
 1315loPI   GL121029  10.491   3.765   4.849  0.0077  0.1512  0.3378
 1315loPI   GL221030  10.594   4.097   4.968 -0.2520  0.2806 -0.2527
 1315loPI   C1A21031  10.405   3.681   5.229  0.0786 -0.4108  0.0653
 1315loPI   C2A21032  10.247   3.637   5.620  0.1614 -0.3321 -0.0779
 1315loPI   C3A21033  10.120   3.511   6.018 -0.0953  0.0056 -0.2822
 1315loPI   C4A21034  10.083   3.627   6.545  0.0918 -0.0520 -0.1450
 1315loPI   C5A21035  10.260   3.592   6.952 -0.1309  0.3170  0.0031
 1315loPI   C6A21036  10.417   3.673   7.343  0.0627  0.0229  0.1377
 1315loPI   C1B21037  10.485   4.132   5.403 -0.3078 -0.2617 -0.1144
 1315loPI   C2B21038  10.758   4.129   5.693 -0.1016  0.0473 -0.2945
 1315loPI   C3B21039  11.142   3.882   5.919  0.0331 -0.1205 -0.1842
 1315loPI   C4B21040  11.394   3.711   6.261 -0.1928 -0.3250  0.2678
 1316loPI    C121041  14.162   3.019   4.297 -0.0775 -0.2736  0.0378
 1316loPI    C221042  13.866   3.122   4.048 -0.0673 -0.1028  0.0954
 1316loPI    C321043  13.816   2.818   4.303 -0.1945 -0.0731  0.1066
 1316loPI   PO421044  14.292   3.269   4.546  0.1975  0.3269  0.2240
 1316loPI   GL121045  14.616   3.143   4.893  0.0844 -0.0161  0.0327
 1316loPI   GL221046  14.540   2.843   5.122 -0.0067  0.3092  0.3711
 1316loPI   C1A21047  14.358   3.282   5.228 -0.0883 -0.5134 -0.0318
 1316loPI   C2A21048  14.204   3.608   5.546 -0.0862 -0.2244 -0.3326
 1316loPI   C3A21049  14.206   3.612   6.006 -0.0857  0.1784  0.0103
 1316loPI   C4A21050  14.213   3.277   6.297  0.1489  0.0777 -0.2464
 1316loPI   C5A21051  14.443   2.909   6.534  0.2052  0.1099 -0.1068
 1316loPI   C6A21052  14.687   2.478   6.562 -0.3629 -0.0753  0.0879
 1316loPI   C1B21053  14.445   2.644   5.447  0.0686 -0.2579 -0.0624
 1316loPI   C2B21054  14.492   2.406   5.762  0.1362 -0.2236  0.0730
 1316loPI   C3B21055  14.579   2.104   6.206 -0.2953  0.0331  0.0696
 1316loPI   C4B21056  15.046   1.991   6.169  0.0272 -0.0669 -0.1565
 1317loPI    C121057   7.365   4.613   4.407  0.1028 -0.0868 -0.0946
 1317loPI    C221058   7.614   4.707   4.108 -0.0467  0.1992 -0.1323
 1317loPI    C321059   7.264   4.897   4.144 -0.1236  0.0177  0.1023
 1317loPI   PO421060   7.576   4.711   4.719  0.1833 -0.0102 -0.0148
 1317loPI   GL121061   7.472   4.923   5.084  0.0702 -0.4162  0.0099
 1317loPI   GL221062   7.470   5.127   5.313  0.2432  0.2531  0.2985
 1317loPI   C1A21063   7.340   4.583   5.303  0.0861  0.3691 -0.4672
 1317loPI   C2A21064   7.406   4.213   5.646 -0.0742  0.2982 -0.1039
 1317loPI   C3A21065   7.286   4.277   6.201 -0.0061  0.2143 -0.0795
 1317loPI   C4A21066   7.284   4.138   6.760  0.2681  0.3025  0.3409
 1317loPI   C5A21067   7.488   4.313   7.185  0.2385 -0.2382  0.1100
 1317loPI   C6A21068   7.438   4.047   7.520  0.1452  0.1053 -0.1137
 1317loPI   C1B21069   7.328   5.150   5.703  0.0948 -0.1561  0.1367
 1317loPI   C2B21070   7.251   5.146   6.158  0.0925 -0.0040 -0.3399
 1317loPI   C3B21071   7.351   5.346   6.492 -0.0437 -0.3270  0.0417
 1317loPI   C4B21072   7.461   5.559   6.749 -0.0793  0.2873  0.0867
 1318loPI    C121073  13.022  17.732   4.253  0.1140  0.0093  0.0193
 1318loPI    C221074  12.891  17.405   4.063  0.1780  0.0019 -0.0126
 1318loPI    C321075  13.149  17.652   3.882 -0.0878  0.2211 -0.0979
 1318loPI   PO421076  12.886  17.698   4.502  0.0750 -0.2577 -0.1586
 1318loPI   GL121077  12.827  17.578   4.928  0.0618  0.1251  0.0550
 1318loPI   GL221078  12.924  17.232   4.847 -0.2953  0.0587 -0.2401
 1318loPI   C1A21079  12.970  17.425   5.277 -0.2580 -0.1931 -0.1392
 1318loPI   C2A21080  12.854  17.423   5.664 -0.0126 -0.0346 -0.0221
 1318loPI   C3A21081  13.009  17.697   6.014  0.3562 -0.3147 -0.2391
 1318loPI   C4A21082  13.117  17.771   6.433 -0.1255  0.0142 -0.3890
 1318loPI   C5A21083  13.346  17.594   6.805 -0.1237 -0.1198  0.2272
 1318loPI   C6A21084  13.403  17.708   7.200 -0.1338 -0.2397  0.2384
 1318loPI   C1B21085  12.733  16.941   5.145  0.2541  0.2601  0.0892
 1318loPI   C2B21086  12.952  16.943   5.441  0.1000  0.1962 -0.1876
 1318loPI   C3B21087  13.236  16.714   5.800 -0.1560 -0.0219 -0.2365
 1318loPI   C4B21088  13.415  16.529   6.187  0.0155 -0.1269 -0.0469
 1319loPI    C121089  12.145  10.825   4.583 -0.1746 -0.0641  0.2340
 1319loPI    C221090  12.185  11.222   4.597  0.1940 -0.0856 -0.0505
 1319loPI    C321091  12.179  11.034   4.244  0.2156 -0.3505  0.0878
 1319loPI   PO421092  12.220  10.747   4.822 -0.1079 -0.1757 -0.2766
 1319loPI   GL121093  12.161  10.916   5.286  0.0469 -0.2204  0.3362
 1319loPI   GL221094  12.309  10.588   5.406 -0.0737 -0.1681 -0.1825
 1319loPI   C1A21095  12.450  10.968   5.642  0.0233  0.3395  0.2984
 1319loPI   C2A21096  12.545  11.230   5.932 -0.0077 -0.2591 -0.0911
 1319loPI   C3A21097  12.700  11.342   6.383 -0.0783 -0.2252 -0.0386
 1319loPI   C4A21098  12.734  11.267   6.811  0.0246 -0.1265  0.1294
 1319loPI   C5A21099  12.692  11.486   7.224  0.0129  0.2229  0.2233
 1319loPI   C6A21100  12.872  11.337   7.613 -0.1508 -0.1912  0.0073
 1319loPI   C1B21101  12.105  10.585   5.793 -0.0151  0.0376  0.1225
 1319loPI   C2B21102  11.872  10.377   5.994  0.2005 -0.0531  0.1278
 1319loPI   C3B21103  11.762  10.349   6.423 -0.1644 -0.2081  0.3407
 1319loPI   C4B21104  11.791  10.097   6.766 -0.1765 -0.0676 -0.0800
 1320loPI    C121105  12.537  13.559   4.773 -0.0794  0.0149  0.2605
 1320loPI    C221106  12.204  13.768   4.848 -0.2140 -0.1558  0.1474
 1320loPI    C321107  12.261  13.606   4.487  0.1176  0.0969  0.0810
 1320loPI   PO421108  12.694  13.720   4.886 -0.0257  0.0351  0.0340
 1320loPI   GL121109  12.704  13.851   5.328  0.1141 -0.1075 -0.0361
 1320loPI   GL221110  12.342  13.717   5.316 -0.2829 -0.2398  0.1101
 1320loPI   C1A21111  12.521  13.903   5.774  0.0224 -0.0309 -0.1356
 1320loPI   C2A21112  12.591  14.083   6.095  0.0388 -0.0800 -0.1086
 1320loPI   C3A21113  12.285  14.362   6.348  0.4146 -0.5155 -0.1798
 1320loPI   C4A21114  12.144  14.383   6.706 -0.0209  0.1171  0.2274
 1320loPI   C5A21115  12.258  14.647   6.940  0.2903  0.1591 -0.2336
 1320loPI   C6A21116  12.473  14.727   7.362 -0.2183  0.3894 -0.1141
 1320loPI   C1B21117  12.182  13.498   5.628  0.0198  0.2960 -0.2655
 1320loPI   C2B21118  12.333  13.248   5.976 -0.2104 -0.2722 -0.0715
 1320loPI   C3B21119  12.482  13.175   6.380  0.3287  0.0105 -0.3038
 1320loPI   C4B21120  12.593  13.105   6.810 -0.1173 -0.0212 -0.1787
 1321loPI    C121121   1.740   4.721   4.537  0.1493 -0.1470 -0.0025
 1321loPI    C221122   1.967   4.659   4.214  0.0213  0.0147 -0.1258
 1321loPI    C321123   1.577   4.572   4.204  0.0083  0.0600 -0.0284
 1321loPI   PO421124   1.826   4.486   4.727 -0.3246  0.0433  0.1997
 1321loPI   GL121125   1.758   4.335   5.254  0.1713  0.0030 -0.2132
 1321loPI   GL221126   2.034   4.412   5.242 -0.1385  0.1243 -0.0119
 1321loPI   C1A21127   1.699   4.113   5.625  0.2042 -0.3398 -0.3700
 1321loPI   C2A21128   2.001   3.942   6.029  0.0494  0.0136  0.3439
 1321loPI   C3A21129   2.266   4.031   6.312  0.0962 -0.1372 -0.0856
 1321loPI   C4A21130   2.515   3.900   6.657 -0.2036 -0.1355 -0.1793
 1321loPI   C5A21131   2.529   3.819   7.024 -0.1672  0.0579 -0.1342
 1321loPI   C6A21132   2.681   3.955   7.341  0.0639 -0.0053  0.1815
 1321loPI   C1B21133   1.837   4.681   5.542 -0.1642  0.0063 -0.2047
 1321loPI   C2B21134   1.866   4.849   5.967 -0.3560  0.2225 -0.1196
 1321loPI   C3B21135   2.023   5.042   6.364  0.1769 -0.0082 -0.2304
 1321loPI   C4B21136   2.266   5.018   6.812 -0.0145 -0.3261  0.1855
 1322loPI    C121137  10.017   6.134   4.154  0.0027 -0.0922  0.0115
 1322loPI    C221138  10.289   6.240   3.880  0.0576 -0.1781  0.0324
 1322loPI    C321139  10.127   5.875   3.870  0.1511 -0.2250  0.1873
 1322loPI   PO421140  10.133   6.189   4.343 -0.0630  0.0699 -0.0230
 1322loPI   GL121141  10.156   5.924   4.711 -0.1504  0.1704 -0.0052
 1322loPI   GL221142  10.252   6.089   4.894  0.1661  0.0149 -0.0573
 1322loPI   C1A21143  10.076   5.642   5.098 -0.1144  0.0056  0.0059
 1322loPI   C2A21144   9.769   5.508   5.268 -0.1396 -0.0026  0.0710
 1322loPI   C3A21145   9.606   5.196   5.624 -0.3098  0.1024  0.2827
 1322loPI   C4A21146   9.607   4.868   5.946 -0.0955 -0.2526  0.1856
 1322loPI   C5A21147   9.610   4.839   6.332 -0.1621  0.4092 -0.0094
 1322loPI   C6A21148   9.743   4.711   6.711  0.0129 -0.0441 -0.3272
 1322loPI   C1B21149  10.146   6.060   5.337  0.2137  0.0999 -0.3937
 1322loPI   C2B21150  10.241   6.107   5.846  0.0333  0.1272  0.5303
 1322loPI   C3B21151  10.284   5.798   6.123  0.5646 -0.2960  0.1989
 1322loPI   C4B21152  10.488   6.024   6.545 -0.1664  0.2471  0.0813
 1323loPI    C121153   4.544   5.309   4.303  0.0121  0.0994  0.0217
 1323loPI    C221154   4.796   5.126   4.052  0.0817  0.1990  0.0186
 1323loPI    C321155   4.553   5.413   3.917 -0.0969  0.0425  0.0033
 1323loPI   PO421156   4.691   5.268   4.573  0.0437 -0.0956  0.0242
 1323loPI   GL121157   4.585   5.145   5.054  0.2106  0.1277 -0.0987
 1323loPI   GL221158   4.854   5.071   5.256 -0.1219 -0.3348  0.1588
 1323loPI   C1A21159   4.499   5.145   5.578 -0.3175 -0.3214  0.1432
 1323loPI   C2A21160   4.438   5.261   5.969 -0.2348  0.2141  0.2657
 1323loPI   C3A21161   4.290   5.295   6.354  0.1200  0.2885  0.0777
 1323loPI   C4A21162   4.157   5.786   6.603 -0.1116  0.2049  0.2446
 1323loPI   C5A21163   4.146   5.780   7.025  0.4187  0.0712  0.0262
 1323loPI   C6A21164   3.792   5.817   7.340  0.0411 -0.0899 -0.0899
 1323loPI   C1B21165   4.928   4.769   5.435 -0.0127 -0.2288  0.0184
 1323loPI   C2B21166   4.904   4.502   5.841  0.1134  0.0697 -0.0801
 1323loPI   C3B21167   4.919   4.280   6.162  0.0126 -0.0779  0.2003
 1323loPI   C4B21168   5.309   4.249   6.420 -0.0775  0.0151 -0.2943
 1324loPI    C121169   2.245   2.913   4.371  0.1355 -0.1436  0.2279
 1324loPI    C221170   1.858   3.004   4.414  0.1438 -0.1759  0.3769
 1324loPI    C321171   1.973   2.750   4.127  0.0992  0.1285  0.0828
 1324loPI   PO421172   2.361   2.762   4.550  0.1999  0.1100  0.0345
 1324loPI   GL121173   2.502   2.817   5.023  0.1576  0.1829  0.1516
 1324loPI   GL221174   2.309   3.123   4.975 -0.0261  0.2584  0.0111
 1324loPI   C1A21175   2.517   2.938   5.550 -0.3004  0.3726 -0.1085
 1324loPI   C2A21176   2.337   2.778   5.975 -0.0514 -0.3572  0.0066
 1324loPI   C3A21177   2.228   3.048   6.259  0.0204 -0.2862  0.1453
 1324loPI   C4A21178   2.338   3.255   6.569 -0.0558 -0.1844  0.4390
 1324loPI   C5A21179   2.209   3.531   6.802 -0.1524 -0.2397  0.1190
 1324loPI   C6A21180   2.029   3.588   7.091  0.1015 -0.0394  0.2115
 1324loPI   C1B21181   2.192   3.208   5.345  0.1301 -0.0922 -0.0518
 1324loPI   C2B21182   2.265   3.294   5.805 -0.0523  0.3121 -0.1859
 1324loPI   C3B21183   2.194   3.538   6.168 -0.1958 -0.3140  0.1250
 1324loPI   C4B21184   1.905   3.617   6.466  0.3438 -0.5117 -0.2031
 1325loPI    C121185  15.903  10.192   4.386 -0.1288 -0.2949  0.1240
 1325loPI    C221186  16.208  10.108   4.141  0.0282 -0.0898  0.2465
 1325loPI    C321187  15.832  10.036   4.024  0.1079 -0.1033 -0.0078
 1325loPI   PO421188  16.020  10.146   4.679  0.0023  0.0737  0.0481
 1325loPI   GL121189  16.150  10.145   5.034 -0.1992 -0.1592  0.0744
 1325loPI   GL221190  15.995  10.246   5.260 -0.2025 -0.3980 -0.0107
 1325loPI   C1A21191  16.397   9.825   5.299  0.1627  0.0723  0.0577
 1325loPI   C2A21192  16.340   9.552   5.673 -0.0104 -0.0376  0.0761
 1325loPI   C3A21193  16.400   9.424   6.017 -0.1013  0.1366 -0.1191
 1325loPI   C4A21194  16.422   9.637   6.385 -0.3422  0.1019  0.0447
 1325loPI   C5A21195  16.426   9.966   6.639 -0.2661  0.0304  0.0562
 1325loPI   C6A21196  16.082  10.362   6.714 -0.3394 -0.0015 -0.1611
 1325loPI   C1B21197  16.247  10.241   5.576  0.1002 -0.0993  0.0357
 1325loPI   C2B21198  16.419  10.322   5.989 -0.1704  0.1401  0.2110
 1325loPI   C3B21199  16.506  10.448   6.356  0.0217 -0.3482  0.2935
 1325loPI   C4B21200  16.556  10.515   6.777 -0.2002 -0.1882 -0.0183
 1326loPI    C121201   9.573   4.919   4.038 -0.0271 -0.2869 -0.0401
 1326loPI    C221202   9.702   5.274   4.168  0.1567 -0.3326 -0.0941
 1326loPI    C321203   9.561   5.237   3.796 -0.2697 -0.2250  0.0499
 1326loPI   PO421204   9.781   4.775   4.330  0.1766 -0.0300 -0.0943
 1326loPI   GL121205   9.740   4.564   4.755  0.1036  0.2372 -0.3651
 1326loPI   GL221206   9.900   4.778   5.003  0.4233  0.1468 -0.1242
 1326loPI   C1A21207   9.737   4.348   5.252 -0.0619  0.0778  0.0852
 1326loPI   C2A21208   9.581   4.373   5.684  0.2612  0.2640 -0.0929
 1326loPI   C3A21209   9.443   4.325   6.071  0.0528 -0.0754  0.0501
 1326loPI   C4A21210   9.404   4.371   6.536  0.1042  0.0167  0.0675
 1326loPI   C5A21211   9.223   4.701   6.756 -0.1783  0.1836  0.1404
 1326loPI   C6A21212   8.965   4.753   7.053 -0.1581 -0.2955  0.1470
 1326loPI   C1B21213   9.634   4.860   5.251  0.1513 -0.1729 -0.1875
 1326loPI   C2B21214   9.276   4.889   5.390 -0.2632 -0.4810  0.0114
 1326loPI   C3B21215   9.113   4.668   5.771  0.0523 -0.2371  0.0036
 1326loPI   C4B21216   9.104   4.730   6.225  0.4852 -0.0758 -0.0840
 1327loPI    C121217   2.130   9.035   5.172  0.1631 -0.0725 -0.2300
 1327loPI    C221218   2.012   8.947   4.799 -0.0793 -0.0645 -0.1571
 1327loPI    C321219   2.023   9.328   4.921 -0.0419 -0.0703 -0.1421
 1327loPI   PO421220   2.040   8.798   5.404  0.1692  0.0439  0.1240
 1327loPI   GL121221   2.305   8.429   5.462  0.0638 -0.2284 -0.1106
 1327loPI   GL221222   2.555   8.349   5.391 -0.3909  0.0869 -0.3978
 1327loPI   C1A21223   2.248   8.448   5.927 -0.1239 -0.0708 -0.1335
 1327loPI   C2A21224   2.171   8.625   6.381 -0.1337  0.2540  0.1496
 1327loPI   C3A21225   2.006   8.868   6.740 -0.0622 -0.2324 -0.0032
 1327loPI   C4A21226   1.975   8.972   7.264 -0.0737  0.0307  0.0996
 1327loPI   C5A21227   1.661   8.774   7.543 -0.2309  0.1803 -0.1115
 1327loPI   C6A21228   1.428   8.504   7.655  0.1508 -0.4761 -0.1869
 1327loPI   C1B21229   2.732   8.320   5.735 -0.1306 -0.0375 -0.0742
 1327loPI   C2B21230   2.741   8.352   6.168 -0.1451  0.0595  0.1507
 1327loPI   C3B21231   2.595   8.434   6.558 -0.2821  0.0362  0.0353
 1327loPI   C4B21232   2.347   8.309   6.901 -0.1075  0.2298  0.2987
 1328loPI    C121233   2.630   1.699   4.472 -0.0935  0.2469 -0.0451
 1328loPI    C221234   2.543   1.900   4.137  0.0489  0.3339 -0.0307
 1328loPI    C321235   2.918   1.895   4.276  0.0108  0.2107  0.0705
 1328loPI   PO421236   2.357   1.903   4.639  0.1536  0.0458  0.1581
 1328loPI   GL121237   2.310   2.366   4.869 -0.0054 -0.0107 -0.1321
 1328loPI   GL221238   2.203   2.136   5.077  0.0833  0.1002 -0.2554
 1328loPI   C1A21239   2.359   2.429   5.415  0.3056 -0.1425 -0.3587
 1328loPI   C2A21240   2.676   2.427   5.770  0.3774 -0.1511 -0.1502
 1328loPI   C3A21241   2.926   2.255   6.180 -0.0058  0.2454 -0.0356
 1328loPI   C4A21242   3.391   2.036   6.077 -0.0008  0.0611  0.1903
 1328loPI   C5A21243   3.621   1.887   6.346  0.2560 -0.0722  0.1068
 1328loPI   C6A21244   4.054   1.717   6.388  0.2498 -0.0092  0.2324
 1328loPI   C1B21245   2.468   1.918   5.235 -0.0152  0.0373 -0.2022
 1328loPI   C2B21246   2.594   1.917   5.671 -0.0612  0.0527  0.1129
 1328loPI   C3B21247   2.665   1.844   6.088  0.1568  0.0089 -0.0974
 1328loPI   C4B21248   2.626   1.906   6.482  0.2141 -0.2680 -0.0611
 1329loPI    C121249   2.325  18.237   4.346  0.1363 -0.0091 -0.1963
 1329loPI    C221250   2.087  18.503   4.165  0.0978  0.0233 -0.0990
 1329loPI    C321251   2.483  18.520   4.111  0.0946  0.0940 -0.1012
 1329loPI   PO421252   2.196  18.241   4.610 -0.0493  0.1899  0.1761
 1329loPI   GL121253   2.120  18.057   4.955 -0.1177  0.0683  0.0641
 1329loPI   GL221254   2.055  17.626   5.000  0.2496 -0.4191  0.0616
 1329loPI   C1A21255   2.351  17.767   5.363 -0.1442  0.0802  0.2107
 1329loPI   C2A21256   2.386  17.613   5.787  0.3096 -0.0877 -0.1745
 1329loPI   C3A21257   2.508  17.618   6.212  0.0067  0.2109 -0.0910
 1329loPI   C4A21258   2.479  17.544   6.683  0.0029 -0.0631  0.0646
 1329loPI   C5A21259   2.306  17.224   7.029 -0.0504  0.0655  0.2166
 1329loPI   C6A21260   2.068  17.109   7.426 -0.0334  0.2327  0.0820
 1329loPI   C1B21261   1.944  17.561   5.509  0.2343  0.0486  0.1876
 1329loPI   C2B21262   1.943  17.471   5.996 -0.2501  0.0409  0.1211
 1329loPI   C3B21263   1.861  17.500   6.486  0.0069  0.1819  0.2594
 1329loPI   C4B21264   1.914  17.460   6.934 -0.3947 -0.0012 -0.2008
 1330loPI    C121265   2.516   0.455   4.056  0.1078 -0.0109 -0.0582
 1330loPI    C221266   2.676   0.461   3.690  0.0501 -0.1839 -0.0870
 1330loPI    C321267   2.284   0.399   3.735  0.0195  0.0589 -0.0070
 1330loPI   PO421268   2.769   0.297   4.222  0.0225 -0.2639  0.2785
 1330loPI   GL121269   2.976   0.354   4.650  0.3510 -0.4113  0.2605
 1330loPI   GL221270   3.197   0.624   4.619 -0.1637  0.4427 -0.1290
 1330loPI   C1A21271   2.632   0.385   4.953 -0.1512 -0.0676  0.0883
 1330loPI   C2A21272   2.536   0.468   5.439 -0.2533 -0.3573 -0.3711
 1330loPI   C3A21273   2.350   0.035   5.593 -0.0323  0.4443  0.1528
 1330loPI   C4A21274   2.014  -0.009   5.844 -0.2776 -0.0779  0.0322
 1330loPI   C5A21275   1.705  -0.273   5.965  0.0645  0.2011  0.1088
 1330loPI   C6A21276   1.448  -0.491   6.290  0.0791  0.0959  0.1203
 1330loPI   C1B21277   3.210   0.598   5.079 -0.2706 -0.1066  0.2920
 1330loPI   C2B21278   3.137   0.619   5.527  0.1027  0.0035  0.1065
 1330loPI   C3B21279   3.303   0.712   5.828  0.3585  0.0437 -0.3496
 1330loPI   C4B21280   3.472   0.805   6.159 -0.0902 -0.1839 -0.0991
 1331loPI    C121281   5.494   9.622   4.728 -0.0164  0.0138 -0.0003
 1331loPI    C221282   5.226   9.861   4.551 -0.0285 -0.1777 -0.2463
 1331loPI    C321283   5.590   9.817   4.392  0.0654 -0.1144 -0.0521
 1331loPI   PO421284   5.551   9.680   4.919  0.1683  0.2664 -0.1867
 1331loPI   GL121285   5.875   9.804   5.233  0.0266 -0.1185 -0.0865
 1331loPI   GL221286   6.018   9.467   5.390  0.4193 -0.2893  0.1719
 1331loPI   C1A21287   6.178   9.847   5.620  0.3249  0.3897  0.0125
 1331loPI   C2A21288   6.131   9.740   6.086 -0.0474  0.2398  0.3421
 1331loPI   C3A21289   6.260   9.845   6.520 -0.0914 -0.2358  0.3797
 1331loPI   C4A21290   6.087   9.889   6.935 -0.0491 -0.0913  0.1573
 1331loPI   C5A21291   5.817   9.785   7.387  0.0381  0.1495  0.0398
 1331loPI   C6A21292   5.759   9.591   7.790 -0.0922 -0.0340  0.2234
 1331loPI   C1B21293   5.755   9.598   5.754 -0.3014 -0.0101  0.0008
 1331loPI   C2B21294   5.557   9.637   6.116  0.1005 -0.2703 -0.1105
 1331loPI   C3B21295   5.728   9.868   6.472  0.1499 -0.0226 -0.3526
 1331loPI   C4B21296   5.609   9.957   6.909  0.0475  0.2365  0.1157
 1332loPI    C121297  13.696  16.884   4.136 -0.0608 -0.0146 -0.2287
 1332loPI    C221298  13.505  16.534   4.108  0.0594 -0.1085  0.0861
 1332loPI    C321299  13.869  16.576   3.948 -0.0473 -0.0568 -0.1478
 1332loPI   PO421300  13.588  17.013   4.338 -0.0842  0.2835 -0.0140
 1332loPI   GL121301  13.716  17.039   4.762 -0.2474 -0.1486 -0.0233
 1332loPI   GL221302  13.485  17.184   4.910 -0.3854 -0.0687 -0.0287
 1332loPI   C1A21303  14.015  17.098   5.061 -0.0548 -0.1075  0.0387
 1332loPI   C2A21304  13.995  17.216   5.385  0.1378 -0.0997 -0.1702
 1332loPI   C3A21305  14.159  17.205   5.722 -0.1344  0.2944 -0.1068
 1332loPI   C4A21306  14.057  17.064   6.177 -0.2704 -0.2208 -0.0016
 1332loPI   C5A21307  13.896  17.180   6.472 -0.0517  0.1004 -0.2128
 1332loPI   C6A21308  13.861  17.479   6.731  0.1297  0.0521 -0.2289
 1332loPI   C1B21309  13.567  17.006   5.272  0.0217 -0.1978  0.2188
 1332loPI   C2B21310  13.650  17.006   5.734  0.0205 -0.0871 -0.1158
 1332loPI   C3B21311  13.558  16.994   6.085 -0.2993  0.0766  0.1580
 1332loPI   C4B21312  13.428  17.250   6.414 -0.1727 -0.0308 -0.1677
 1333loPI    C121313   0.568  16.392   4.334 -0.2216  0.0188  0.1885
 1333loPI    C221314   0.752  16.186   4.044  0.2137  0.3682  0.2060
 1333loPI    C321315   0.480  16.464   3.950  0.0120  0.1583  0.1592
 1333loPI   PO421316   0.501  16.132   4.533 -0.2710 -0.2972 -0.0277
 1333loPI   GL121317   0.584  16.077   4.929  0.2096  0.1957 -0.1097
 1333loPI   GL221318   0.471  15.804   5.061 -0.0331 -0.1126 -0.2249
 1333loPI   C1A21319   0.849  16.196   5.328 -0.3197  0.3059  0.0781
 1333loPI   C2A21320   0.841  16.182   5.840 -0.1173  0.0978 -0.3671
 1333loPI   C3A21321   0.804  16.238   6.344  0.0080  0.2212  0.1653
 1333loPI   C4A21322   0.770  16.166   6.748 -0.3180  0.0493 -0.2673
 1333loPI   C5A21323   0.583  16.381   7.171  0.0563 -0.2550 -0.0782
 1333loPI   C6A21324   0.276  16.502   7.485 -0.0749 -0.0417  0.2203
 1333loPI   C1B21325   0.495  15.856   5.511  0.0102 -0.3443  0.0041
 1333loPI   C2B21326   0.659  15.678   5.930 -0.0897 -0.1517  0.1561
 1333loPI   C3B21327   0.587  15.508   6.288 -0.0983  0.1298  0.0727
 1333loPI   C4B21328   0.920  15.178   6.474 -0.0698 -0.1270 -0.0923
 1334loPI    C121329   1.055  19.127   4.151  0.0475  0.0220  0.0983
 1334loPI    C221330   1.097  18.732   4.111 -0.1554  0.0151 -0.0624
 1334loPI    C321331   1.322  18.979   3.892 -0.0659 -0.0116 -0.0008
 1334loPI   PO421332   0.783  19.136   4.383 -0.2521  0.4123 -0.0203
 1334loPI   GL121333   0.709  19.325   4.748 -0.1316 -0.3719 -0.2091
 1334loPI   GL221334   0.813  19.691   4.981  0.0774  0.0318  0.0598
 1334loPI   C1A21335   0.376  19.320   5.157  0.1420 -0.1042  0.1678
 1334loPI   C2A21336   0.200  19.295   5.570  0.0262  0.0396 -0.0559
 1334loPI   C3A21337  -0.033  19.216   5.865  0.0621  0.0633 -0.2361
 1334loPI   C4A21338  -0.395  19.083   6.090 -0.3393  0.2172 -0.1887
 1334loPI   C5A21339  -0.578  19.179   6.535  0.0527 -0.0306  0.1516
 1334loPI   C6A21340  -0.336  19.407   6.791 -0.0568  0.0476  0.2042
 1334loPI   C1B21341   0.863  19.467   5.370  0.2797 -0.2302 -0.2243
 1334loPI   C2B21342   0.661  19.193   5.684 -0.0849  0.1325 -0.1028
 1334loPI   C3B21343   0.416  19.077   6.022 -0.1283  0.2470 -0.0482
 1334loPI   C4B21344   0.417  19.064   6.463 -0.2351 -0.7201 -0.2637
 1335loPI    C121345  14.688  11.173   4.103  0.1413  0.1406 -0.0156
 1335loPI    C221346  14.538  10.856   3.909  0.0779  0.0101  0.2420
 1335loPI    C321347  14.684  11.167   3.703 -0.1384 -0.0542 -0.0125
 1335loPI   PO421348  14.837  11.094   4.349  0.3034 -0.2403 -0.0900
 1335loPI   GL121349  15.014  11.084   4.698  0.0262 -0.1747  0.0521
 1335loPI   GL221350  14.980  10.821   4.897  0.1334  0.2197 -0.1164
 1335loPI   C1A21351  15.244  11.506   4.951 -0.2938 -0.2448 -0.1443
 1335loPI   C2A21352  15.403  11.770   5.257 -0.0321 -0.1231  0.1629
 1335loPI   C3A21353  15.168  11.942   5.675 -0.0305  0.1553 -0.1003
 1335loPI   C4A21354  15.008  11.873   6.044  0.1186  0.0327  0.0615
 1335loPI   C5A21355  14.909  11.611   6.521 -0.0461 -0.1249  0.1900
 1335loPI   C6A21356  14.941  11.063   6.625 -0.2107  0.0929  0.2342
 1335loPI   C1B21357  14.874  10.680   5.318 -0.0920 -0.0593  0.2499
 1335loPI   C2B21358  14.726  10.626   5.706  0.1673 -0.2008  0.0728
 1335loPI   C3B21359  14.435  10.713   5.945 -0.1524  0.3334 -0.0727
 1335loPI   C4B21360  14.394  10.446   6.297 -0.1164  0.0788 -0.2239
 1336loPI    C121361   9.907   8.810   4.677  0.0191  0.3240 -0.1188
 1336loPI    C221362   9.716   8.570   4.420  0.0737  0.0497  0.0923
 1336loPI    C321363  10.065   8.737   4.316  0.0277  0.0516 -0.0617
 1336loPI   PO421364   9.963   8.796   4.950 -0.2202  0.0431  0.0986
 1336loPI   GL121365  10.076   8.555   5.349 -0.0857 -0.0964 -0.3264
 1336loPI   GL221366   9.870   8.241   5.448  0.2194  0.4209  0.1570
 1336loPI   C1A21367  10.215   8.757   5.617  0.2016  0.0754 -0.5485
 1336loPI   C2A21368  10.130   8.865   6.030 -0.0388 -0.1208  0.0834
 1336loPI   C3A21369   9.985   8.875   6.473 -0.2991 -0.1130  0.1259
 1336loPI   C4A21370   9.763   8.742   6.847  0.2170 -0.1294 -0.0752
 1336loPI   C5A21371   9.651   8.658   7.290  0.1121 -0.1350 -0.0901
 1336loPI   C6A21372   9.505   8.530   7.790 -0.0654 -0.1025 -0.2267
 1336loPI   C1B21373   9.807   7.913   5.904  0.2960  0.2110 -0.0409
 1336loPI   C2B21374   9.810   7.874   6.339 -0.0102  0.0739  0.1352
 1336loPI   C3B21375   9.707   7.700   6.769 -0.0324 -0.1145  0.1293
 1336loPI   C4B21376   9.729   7.822   7.154  0.0514 -0.2152  0.1220
 1337loPI    C121377   6.770   7.147   4.544 -0.0428  0.1412  0.0964
 1337loPI    C221378   6.706   6.803   4.351  0.1212  0.0127  0.2673
 1337loPI    C321379   6.518   7.136   4.234  0.0806 -0.1009  0.0024
 1337loPI   PO421380   6.874   7.063   4.759 -0.1483 -0.2464 -0.0459
 1337loPI   GL121381   6.924   7.093   5.244 -0.0801  0.0047  0.0972
 1337loPI   GL221382   6.834   6.726   5.127  0.1996  0.2297  0.0897
 1337loPI   C1A21383   7.095   7.139   5.674  0.1307  0.0319  0.0184
 1337loPI   C2A21384   6.904   7.110   6.105  0.2852 -0.0502 -0.0292
 1337loPI   C3A21385   6.766   7.307   6.474  0.0455 -0.1568 -0.0083
 1337loPI   C4A21386   6.821   7.517   6.895  0.3088  0.0914  0.1850
 1337loPI   C5A21387   6.699   7.650   7.329  0.0321 -0.0286 -0.3880
 1337loPI   C6A21388   6.619   8.028   7.545 -0.0974  0.2732  0.0547
 1337loPI   C1B21389   6.804   6.680   5.593  0.1592 -0.0066 -0.0755
 1337loPI   C2B21390   7.061   6.529   5.935 -0.2502  0.1379 -0.2307
 1337loPI   C3B21391   7.219   6.467   6.435  0.0251  0.2095 -0.1433
 1337loPI   C4B21392   7.111   6.458   6.861  0.1877  0.2020  0.1378
 1338loPI    C121393   9.226   3.123   4.653  0.0062  0.2315  0.1645
 1338loPI    C221394   9.189   3.065   4.259  0.2161  0.3098  0.1322
 1338loPI    C321395   9.510   2.925   4.453  0.0137  0.0894  0.3140
 1338loPI   PO421396   9.054   3.399   4.662  0.0930  0.3120 -0.1524
 1338loPI   GL121397   9.010   3.712   4.978  0.0004  0.1603  0.0795
 1338loPI   GL221398   8.918   4.027   5.005 -0.0952 -0.0104  0.0069
 1338loPI   C1A21399   9.077   3.600   5.414 -0.2053  0.1647  0.1608
 1338loPI   C2A21400   9.197   3.464   5.785 -0.1724  0.2218 -0.0750
 1338loPI   C3A21401   9.280   3.271   6.228  0.2606 -0.1311 -0.0749
 1338loPI   C4A21402   9.500   3.506   6.567  0.0625  0.1333  0.0912
 1338loPI   C5A21403   9.740   3.653   6.931 -0.1094  0.0093  0.0779
 1338loPI   C6A21404   9.947   3.856   7.234  0.1543  0.2788 -0.0489
 1338loPI   C1B21405   8.627   4.243   5.353  0.3005  0.0685 -0.0229
 1338loPI   C2B21406   8.534   4.345   5.824  0.1181 -0.1327  0.1322
 1338loPI   C3B21407   8.442   4.614   6.126 -0.0346 -0.0387 -0.0992
 1338loPI   C4B21408   8.096   4.829   6.264 -0.3313 -0.1122  0.0794
 1339loPI    C121409  11.902   9.915   4.706 -0.3390  0.2427  0.3215
 1339loPI    C221410  11.568   9.944   4.488 -0.0955  0.1469 -0.0767
 1339loPI    C321411  11.919  10.053   4.331  0.1387 -0.2642  0.1406
 1339loPI   PO421412  11.862   9.757   4.881 -0.0347  0.0320  0.0958
 1339loPI   GL121413  11.914   9.775   5.291  0.1543  0.0850  0.3323
 1339loPI   GL221414  11.751   9.419   5.376  0.0662 -0.0189 -0.1615
 1339loPI   C1A21415  12.241   9.595   5.461  0.1141  0.1506 -0.0924
 1339loPI   C2A21416  12.487   9.686   5.844 -0.0642 -0.2073  0.1705
 1339loPI   C3A21417  12.320  10.000   6.092  0.0033  0.3299 -0.3152
 1339loPI   C4A21418  12.330  10.371   6.349  0.1646  0.1565  0.0023
 1339loPI   C5A21419  12.417  10.729   6.644 -0.1091 -0.6564  0.1036
 1339loPI   C6A21420  12.268  11.128   6.561  0.1473 -0.1972 -0.1054
 1339loPI   C1B21421  11.691   9.069   5.597  0.1960  0.0771 -0.1577
 1339loPI   C2B21422  11.501   9.003   6.011 -0.1381  0.1648  0.2509
 1339loPI   C3B21423  11.593   8.908   6.443  0.0502  0.0560  0.0442
 1339loPI   C4B21424  11.623   8.492   6.653  0.0031 -0.1538  0.0288
 1340loPI    C121425  12.764  18.525   3.722  0.1245 -0.1372  0.0561
 1340loPI    C221426  12.706  18.883   3.555  0.0459 -0.1927 -0.0370
 1340loPI    C321427  12.773  18.564   3.324  0.0923 -0.2424  0.0447
 1340loPI   PO421428  12.997  18.566   3.957  0.2613  0.0244  0.0380
 1340loPI   GL121429  13.194  18.574   4.425  0.1754 -0.0624 -0.2386
 1340loPI   GL221430  13.529  18.535   4.488  0.0793  0.2508 -0.0890
 1340loPI   C1A21431  13.126  18.628   4.930  0.1618 -0.1453  0.1267
 1340loPI   C2A21432  13.091  18.441   5.367 -0.1279  0.2056 -0.0477
 1340loPI   C3A21433  12.901  18.344   5.725 -0.1315 -0.1554 -0.0804
 1340loPI   C4A21434  12.810  18.217   6.212 -0.1248  0.0809 -0.2087
 1340loPI   C5A21435  12.811  18.367   6.657  0.1123  0.1321 -0.2443
 1340loPI   C6A21436  13.040  18.533   7.039 -0.1315  0.0522 -0.1738
 1340loPI   C1B21437  13.575  18.271   4.839  0.0193 -0.1266 -0.0967
 1340loPI   C2B21438  13.704  18.080   5.193 -0.0734  0.0446 -0.2533
 1340loPI   C3B21439  13.565  17.987   5.581  0.0990  0.4202  0.1991
 1340loPI   C4B21440  13.864  18.132   5.821  0.1226  0.2052 -0.2119
 1341loPI    C121441  16.718  15.131   4.280 -0.1930 -0.2050 -0.0707
 1341loPI    C221442  16.870  14.861   4.534 -0.1579 -0.1342 -0.0162
 1341loPI    C321443  16.958  14.841   4.144  0.1137 -0.0061  0.0365
 1341loPI   PO421444  16.755  15.379   4.357  0.0397 -0.0617 -0.2386
 1341loPI   GL121445  16.642  15.600   4.857 -0.1219  0.2042 -0.0126
 1341loPI   GL221446  16.868  15.978   4.940 -0.1656 -0.0785  0.0962
 1341loPI   C1A21447  16.391  15.800   5.126  0.2256  0.2650 -0.0823
 1341loPI   C2A21448  16.238  15.787   5.374  0.0079 -0.0466  0.1554
 1341loPI   C3A21449  16.132  15.776   5.675  0.2576  0.1263  0.1668
 1341loPI   C4A21450  16.094  15.804   6.028  0.0353  0.4195 -0.1907
 1341loPI   C5A21451  16.370  15.741   6.351 -0.0265  0.1305  0.0701
 1341loPI   C6A21452  16.481  15.513   6.768 -0.2237  0.1398 -0.1592
 1341loPI   C1B21453  16.820  16.016   5.375 -0.0261  0.1713  0.2770
 1341loPI   C2B21454  17.135  15.952   5.750 -0.0161 -0.4229  0.3715
 1341loPI   C3B21455  17.183  16.048   6.178 -0.0520 -0.0769  0.2593
 1341loPI   C4B21456  16.925  16.225   6.439 -0.0045 -0.1599 -0.2800
 1342loPI    C121457  11.979  14.183   4.661 -0.0698  0.0313  0.1501
 1342loPI    C221458  11.936  14.044   4.288  0.2000  0.2300  0.0407
 1342loPI    C321459  11.615  14.092   4.523  0.0744 -0.3388  0.0005
 1342loPI   PO421460  12.128  14.371   4.662  0.1872 -0.1447 -0.3417
 1342loPI   GL121461  12.190  14.604   5.039 -0.3190  0.1427  0.2627
 1342loPI   GL221462  12.312  14.928   5.036 -0.2393 -0.1680 -0.1300
 1342loPI   C1A21463  11.940  14.756   5.365  0.0706  0.5616  0.0074
 1342loPI   C2A21464  11.973  14.822   5.860  0.1916  0.0990 -0.0748
 1342loPI   C3A21465  12.084  14.778   6.240 -0.1764 -0.0368  0.2893
 1342loPI   C4A21466  11.877  14.738   6.542  0.0823  0.1575 -0.3358
 1342loPI   C5A21467  11.533  14.778   6.987 -0.2428 -0.1135 -0.1791
 1342loPI   C6A21468  11.051  14.841   7.052 -0.0687 -0.1934  0.1830
 1342loPI   C1B21469  12.492  15.144   5.391  0.2960 -0.3026 -0.0218
 1342loPI   C2B21470  12.490  15.096   5.866  0.0971  0.0422  0.0072
 1342loPI   C3B21471  12.559  14.868   6.210  0.1852  0.0597  0.1117
 1342loPI   C4B21472  12.625  14.609   6.558  0.4482 -0.2611 -0.0887
 1343loPI    C121473  15.856  18.846   3.810 -0.3465 -0.1111 -0.1275
 1343loPI    C221474  16.253  18.809   3.784 -0.2980 -0.0296  0.3798
 1343loPI    C321475  16.024  18.747   3.461  0.1186 -0.1316  0.0953
 1343loPI   PO421476  15.854  18.643   4.046 -0.0454 -0.1349  0.0411
 1343loPI   GL121477  15.870  18.576   4.572 -0.2688  0.0872 -0.2233
 1343loPI   GL221478  15.602  18.340   4.732  0.0865  0.0302 -0.1468
 1343loPI   C1A21479  15.716  18.894   4.944 -0.1685 -0.0458  0.0700
 1343loPI   C2A21480  15.563  18.968   5.313  0.0573  0.0397 -0.0980
 1343loPI   C3A21481  15.582  18.947   5.732 -0.0815 -0.2787  0.1226
 1343loPI   C4A21482  15.556  18.936   6.224 -0.1742 -0.0722  0.3613
 1343loPI   C5A21483  15.538  18.669   6.576 -0.0074 -0.0611  0.1703
 1343loPI   C6A21484  15.868  18.689   7.029  0.2933  0.1607  0.1073
 1343loPI   C1B21485  15.631  18.437   5.160 -0.1088  0.0154  0.2122
 1343loPI   C2B21486  15.555  18.438   5.518 -0.0187 -0.0761  0.0433
 1343loPI   C3B21487  15.474  18.484   5.843 -0.0448  0.2870  0.3000
 1343loPI   C4B21488  15.276  18.435   6.216 -0.0702 -0.0675  0.1117
 1344loPI    C121489  17.138   1.271   4.432 -0.1305 -0.0356  0.0224
 1344loPI    C221490  17.484   1.430   4.556 -0.0987 -0.2371  0.1969
 1344loPI    C321491  17.315   1.558   4.217  0.0211  0.0348  0.2377
 1344loPI   PO421492  17.057   1.246   4.640  0.1996  0.1339  0.0368
 1344loPI   GL121493  16.856   1.410   5.013  0.0799 -0.1219  0.0070
 1344loPI   GL221494  17.028   1.553   5.324 -0.4049 -0.0250  0.2094
 1344loPI   C1A21495  16.608   1.144   5.249  0.1316  0.1426 -0.1790
 1344loPI   C2A21496  16.505   1.010   5.666  0.0870 -0.1956 -0.1741
 1344loPI   C3A21497  16.514   1.064   6.059  0.0839  0.1289  0.0831
 1344loPI   C4A21498  16.466   1.391   6.300  0.1083 -0.1177  0.2331
 1344loPI   C5A21499  16.233   1.604   6.677  0.0083  0.0265 -0.2677
 1344loPI   C6A21500  16.260   1.847   6.945  0.0298  0.0043 -0.4899
 1344loPI   C1B21501  17.085   1.701   5.705  0.0107  0.2221 -0.0919
 1344loPI   C2B21502  17.031   2.087   5.836  0.0084  0.1500 -0.1738
 1344loPI   C3B21503  17.101   2.489   5.533  0.1276  0.3930 -0.2882
 1344loPI   C4B21504  17.332   2.678   5.290 -0.0545 -0.0049  0.0136
 1345loPI    C121505   5.278   5.959   4.554 -0.0087 -0.0131 -0.1607
 1345loPI    C221506   5.256   5.912   4.157  0.2484  0.1915 -0.2023
 1345loPI    C321507   5.330   6.273   4.311 -0.2832  0.2012  0.0517
 1345loPI   PO421508   5.107   5.858   4.656  0.0303 -0.1517  0.0214
 1345loPI   GL121509   5.177   5.922   5.117  0.1324 -0.1346 -0.1042
 1345loPI   GL221510   5.460   5.739   5.022  0.0314  0.0662 -0.2272
 1345loPI   C1A21511   5.124   5.865   5.663  0.0815 -0.2655 -0.0763
 1345loPI   C2A21512   5.121   5.786   6.052 -0.0634  0.1780 -0.0468
 1345loPI   C3A21513   5.060   5.946   6.482 -0.3283 -0.0099  0.1102
 1345loPI   C4A21514   4.987   6.077   6.901 -0.0073 -0.0015 -0.3086
 1345loPI   C5A21515   5.077   5.941   7.321  0.5643 -0.2139  0.1652
 1345loPI   C6A21516   4.992   5.908   7.922  0.2673  0.0436 -0.2315
 1345loPI   C1B21517   5.466   5.462   5.396 -0.1585 -0.0186  0.0420
 1345loPI   C2B21518   5.496   5.444   5.829  0.0310 -0.0892  0.5156
 1345loPI   C3B21519   5.568   5.518   6.283 -0.0526 -0.2801 -0.0080
 1345loPI   C4B21520   5.639   5.814   6.659  0.3475  0.1306 -0.0336
 1346loPI    C121521  10.322   3.336   3.947  0.0832  0.3128 -0.0955
 1346loPI    C221522  10.310   3.049   3.669  0.4613  0.3136 -0.1185
 1346loPI    C321523  10.247   3.430   3.565  0.0202  0.2526 -0.0982
 1346loPI   PO421524  10.448   3.132   4.158 -0.0189 -0.0411 -0.3195
 1346loPI   GL121525  10.613   3.028   4.560 -0.1854  0.2006  0.2588
 1346loPI   GL221526  10.255   2.914   4.587  0.2774 -0.1296  0.3519
 1346loPI   C1A21527  10.711   3.064   4.954 -0.2072  0.1876  0.1809
 1346loPI   C2A21528  10.864   2.811   5.268  0.0624  0.2931  0.2295
 1346loPI   C3A21529  10.853   2.861   5.785  0.0761  0.0670  0.2893
 1346loPI   C4A21530  10.973   3.219   5.934  0.4166  0.0019 -0.0114
 1346loPI   C5A21531  11.001   3.341   6.400 -0.0575 -0.2400  0.1811
 1346loPI   C6A21532  11.265   3.480   6.708  0.2127 -0.3760  0.2604
 1346loPI   C1B21533  10.106   2.718   5.008  0.1078  0.2334 -0.2334
 1346loPI   C2B21534  10.316   2.786   5.435  0.0294  0.2155  0.1179
 1346loPI   C3B21535  10.468   2.699   5.997  0.1950  0.1144  0.1018
 1346loPI   C4B21536  10.755   2.918   6.316 -0.1830  0.1076  0.1951
 1347loPI    C121537  14.249   7.110   4.209  0.0530  0.1754  0.2241
 1347loPI    C221538  14.614   7.210   4.079 -0.1256  0.1394 -0.3339
 1347loPI    C321539  14.406   6.925   3.891 -0.4292  0.1307  0.0032
 1347loPI   PO421540  14.318   7.107   4.527  0.3117  0.1557  0.3178
 1347loPI   GL121541  14.500   6.705   4.815  0.3585 -0.1556  0.0506
 1347loPI   GL221542  14.671   6.954   4.920 -0.2099  0.0723  0.1569
 1347loPI   C1A21543  14.100   6.638   5.087  0.1323 -0.0709 -0.2018
 1347loPI   C2A21544  13.886   6.672   5.541  0.1183 -0.1871  0.1883
 1347loPI   C3A21545  13.957   6.591   5.975 -0.1761 -0.0187  0.0480
 1347loPI   C4A21546  13.790   6.755   6.390 -0.0007 -0.1330 -0.0219
 1347loPI   C5A21547  14.015   6.775   6.754 -0.2291 -0.2472  0.1306
 1347loPI   C6A21548  14.148   6.838   7.205 -0.2023  0.0034 -0.0697
 1347loPI   C1B21549  14.380   7.194   5.162  0.1915  0.0121 -0.2232
 1347loPI   C2B21550  14.266   7.447   5.555 -0.3333 -0.4088  0.4341
 1347loPI   C3B21551  14.403   7.430   5.916 -0.1999 -0.0121 -0.1813
 1347loPI   C4B21552  14.729   7.362   6.250 -0.0875  0.1209 -0.1377
 1348loPI    C121553   3.560  12.757   4.512 -0.1401 -0.0221 -0.0108
 1348loPI    C221554   3.230  12.552   4.418 -0.1749  0.0445 -0.0340
 1348loPI    C321555   3.573  12.477   4.226 -0.2146  0.0877 -0.1228
 1348loPI   PO421556   3.552  12.767   4.768 -0.1877 -0.0817 -0.1662
 1348loPI   GL121557   3.629  12.758   5.128  0.1730  0.0999  0.0346
 1348loPI   GL221558   3.829  12.984   5.269  0.0136  0.0959  0.0805
 1348loPI   C1A21559   3.433  12.486   5.487  0.1050 -0.2484  0.1466
 1348loPI   C2A21560   3.326  12.293   5.793 -0.0111 -0.1350  0.2508
 1348loPI   C3A21561   3.390  11.954   6.038  0.0676 -0.1121  0.1156
 1348loPI   C4A21562   3.722  11.964   6.376 -0.1723  0.1767 -0.2110
 1348loPI   C5A21563   4.037  11.983   6.639  0.1155  0.3221 -0.4926
 1348loPI   C6A21564   3.970  12.266   7.005  0.2658  0.0666 -0.2850
 1348loPI   C1B21565   3.650  12.973   5.605  0.1501  0.0466  0.0628
 1348loPI   C2B21566   3.699  13.016   6.112  0.2671 -0.1007  0.2307
 1348loPI   C3B21567   3.758  12.982   6.535 -0.1064 -0.1255  0.0583
 1348loPI   C4B21568   3.828  12.771   6.827 -0.0768  0.1313  0.2129
 1349loPI    C121569  17.525   1.081   4.164  0.1073  0.0878 -0.0664
 1349loPI    C221570  17.699   1.240   3.840  0.2653 -0.0767 -0.0635
 1349loPI    C321571  17.374   1.011   3.800  0.3049 -0.1250 -0.1094
 1349loPI   PO421572  17.703   0.959   4.400 -0.0989 -0.2256 -0.3621
 1349loPI   GL121573  17.714   0.712   4.745 -0.1505  0.2904 -0.1012
 1349loPI   GL221574  17.464   0.909   4.948  0.0424 -0.2570 -0.0350
 1349loPI   C1A21575  17.485   0.291   4.918 -0.0104  0.0315 -0.0918
 1349loPI   C2A21576  17.507   0.071   5.264 -0.2013 -0.0941 -0.1279
 1349loPI   C3A21577  17.573  -0.135   5.607  0.2325  0.0256 -0.1217
 1349loPI   C4A21578  17.591  -0.316   5.947 -0.1832  0.0154 -0.1234
 1349loPI   C5A21579  17.492  -0.305   6.415  0.1203  0.0830 -0.5649
 1349loPI   C6A21580  17.099  -0.561   6.618 -0.1148  0.1215 -0.2654
 1349loPI   C1B21581  17.540   0.710   5.348 -0.0384 -0.2940  0.1157
 1349loPI   C2B21582  17.368   0.665   5.790 -0.1650 -0.2498  0.1176
 1349loPI   C3B21583  17.344   0.733   6.162 -0.0407 -0.1739 -0.3982
 1349loPI   C4B21584  17.330   0.871   6.541  0.1401 -0.0564  0.0499
 1350loPI    C121585  17.404  15.123   4.224 -0.1639 -0.2116  0.4085
 1350loPI    C221586  17.678  15.037   4.502  0.1082  0.0497  0.2275
 1350loPI    C321587  17.776  15.264   4.188 -0.1498 -0.3693 -0.1698
 1350loPI   PO421588  17.241  15.228   4.332 -0.2106  0.1027  0.2400
 1350loPI   GL121589  17.062  15.255   4.739  0.0469 -0.0213  0.2291
 1350loPI   GL221590  17.302  15.141   4.820  0.1233  0.0227 -0.1206
 1350loPI   C1A21591  16.628  15.093   4.985 -0.1495 -0.2198  0.0559
 1350loPI   C2A21592  16.562  15.205   5.428 -0.1305 -0.0823 -0.4375
 1350loPI   C3A21593  16.564  15.103   5.832  0.1381 -0.1094  0.3252
 1350loPI   C4A21594  16.475  15.204   6.367  0.2227 -0.2055  0.2516
 1350loPI   C5A21595  16.389  15.020   6.766  0.1076  0.1782 -0.4228
 1350loPI   C6A21596  16.191  15.016   7.187 -0.0539 -0.3322 -0.1033
 1350loPI   C1B21597  17.078  14.987   5.224 -0.0304 -0.2326  0.0847
 1350loPI   C2B21598  16.985  14.875   5.672  0.0671 -0.0247 -0.0637
 1350loPI   C3B21599  17.033  14.975   6.085 -0.0123  0.0582 -0.2414
 1350loPI   C4B21600  17.466  14.825   6.271 -0.1060 -0.0026 -0.0740
 1351loPI    C121601  -0.009   5.120   4.698  0.1831 -0.4337  0.1041
 1351loPI    C221602   0.351   5.248   4.579  0.0448 -0.0550  0.0796
 1351loPI    C321603   0.024   5.459   4.488 -0.1626 -0.2778  0.2943
 1351loPI   PO421604  -0.023   5.050   4.968 -0.0457  0.2710  0.1295
 1351loPI   GL121605  -0.150   5.072   5.325  0.0667  0.2886  0.2193
 1351loPI   GL221606  -0.114   5.379   5.471  0.0501  0.0790 -0.0856
 1351loPI   C1A21607  -0.273   4.838   5.622  0.2268 -0.1239  0.0895
 1351loPI   C2A21608  -0.556   4.580   5.778  0.0960  0.2344  0.3097
 1351loPI   C3A21609  -0.576   4.401   6.126 -0.0380  0.0773  0.1411
 1351loPI   C4A21610  -0.884   4.507   6.428 -0.0037 -0.1379 -0.2201
 1351loPI   C5A21611  -0.956   4.608   6.827  0.2441  0.0669  0.2411
 1351loPI   C6A21612  -0.719   4.431   7.132  0.2165  0.1401 -0.4404
 1351loPI   C1B21613  -0.150   5.255   5.894  0.0822  0.0150  0.1593
 1351loPI   C2B21614  -0.268   4.876   6.112  0.0949  0.0624  0.1704
 1351loPI   C3B21615  -0.402   4.664   6.528 -0.0378  0.0336  0.2353
 1351loPI   C4B21616  -0.519   4.241   6.577 -0.1787  0.1038 -0.2452
 1352loPI    C121617   8.461   7.345   4.921  0.1023  0.3744 -0.0248
 1352loPI    C221618   8.232   7.295   4.597  0.0042 -0.1614  0.1172
 1352loPI    C321619   8.614   7.176   4.592  0.1340  0.2402  0.0582
 1352loPI   PO421620   8.373   7.547   5.026  0.0338 -0.0249  0.0325
 1352loPI   GL121621   8.386   7.764   5.377 -0.0626 -0.0276 -0.0217
 1352loPI   GL221622   8.177   7.545   5.527  0.0034  0.0121 -0.0062
 1352loPI   C1A21623   8.373   8.067   5.702 -0.2441  0.2368  0.0555
 1352loPI   C2A21624   8.431   8.139   6.118 -0.0365  0.0112 -0.0914
 1352loPI   C3A21625   8.169   7.925   6.423 -0.2645 -0.0634 -0.1887
 1352loPI   C4A21626   8.229   7.747   6.831  0.0199 -0.1228 -0.1215
 1352loPI   C5A21627   8.279   7.574   7.166  0.0369 -0.2214  0.0861
 1352loPI   C6A21628   8.347   7.781   7.559  0.1996  0.0161  0.1225
 1352loPI   C1B21629   8.395   7.213   5.775 -0.0297 -0.0340  0.2054
 1352loPI   C2B21630   8.245   6.880   5.837  0.0915  0.2736 -0.0836
 1352loPI   C3B21631   7.906   6.846   6.063  0.6732  0.0521 -0.0917
 1352loPI   C4B21632   7.604   6.437   5.989  0.3153  0.0658 -0.0831
 1353W        W21633   0.735   4.252   3.913  0.2761 -0.1646 -0.0779
 1354W        W21634  19.502   6.585  13.973  0.2525  0.0967  0.1379
 1355W        W21635   2.301  10.809  12.072 -0.1334 -0.2315  0.0166
 1356W        W21636  15.543  17.279  13.019 -0.4432 -0.2134 -0.1492
 1357W        W21637  17.341   2.797   3.300 -0.1707  0.0810 -0.3550
 1358W        W21638  12.349  11.684   0.452  0.2057 -0.2943 -0.1944
 1359W        W21639  10.715  12.159  11.163 -0.0372 -0.1091 -0.1564
 1360W        W21640   4.734   9.544   3.019 -0.0337 -0.1856  0.0565
 1361W        W21641  18.506   0.985  13.191  0.2946 -0.1682 -0.0115
 1362W        W21642   7.164   6.878  12.000 -0.2157  0.1427  0.2464
 1363W        W21643  12.157   9.332   3.527  0.0378 -0.1281  0.3083
 1364W        W21644   7.912   5.734   9.607  0.1095 -0.2475 -0.2190
 1365W        W21645  18.764  12.108   2.621 -0.1328  0.0293  0.0231
 1366W        W21646  13.861  18.147   0.388  0.1116  0.2797 -0.1240
 1367W        W21647  14.042  19.508   0.230 -0.1993 -0.1035 -0.1194
 1368W        W21648  15.014   7.289  11.181 -0.2195 -0.0911  0.0459
 1369W        W21649   4.907  11.558   0.389  0.1715  0.0245 -0.1377
 1370W        W21650   1.815   1.701   1.852 -0.0408  0.1455  0.1860
 1371W        W21651  10.979   1.912  10.006 -0.2175  0.5114 -0.1298
 1372W        W21652   0.268  16.120   1.733 -0.1222  0.0222  0.2453
 1373W        W21653  11.489  15.760  10.916 -0.1927  0.0337 -0.1288
 1374W        W21654   4.096   5.877  10.955 -0.1024 -0.0768 -0.6801
 1375W        W21655   8.716  13.278  12.047 -0.3034 -0.0513 -0.3828
 1376W        W21656   8.897  10.281   0.286  0.3249 -0.4622  0.0259
 1377W        W21657  17.379   6.760   3.288 -0.1401 -0.1191  0.4342
 1378W        W21658   7.568   2.202   1.065 -0.3177 -0.0011 -0.0432
 1379W        W21659   6.612   6.398   3.693  0.0739 -0.1034 -0.0231
 1380W        W21660   3.715   1.271  12.528 -0.0969  0.2938 -0.2874
 1381W        W21661   9.297  15.992   2.488 -0.0015 -0.0261 -0.1787
 1382W        W21662   1.720  15.375   0.728 -0.0174 -0.0273 -0.0755
 1383W        W21663   9.853   3.995  11.034 -0.4496 -0.0224  0.1417
 1384W        W21664   8.450  18.811   1.879  0.1190 -0.0120  0.2036
 1385W        W21665   1.425  19.158   0.827 -0.2700 -0.1794 -0.1432
 1386W        W21666   9.581   4.031   2.365 -0.0533 -0.0372 -0.3653
 1387W        W21667  13.443  10.367   1.758  0.2196 -0.0716  0.0395
 1388W        W21668   6.623   9.542   1.927  0.2970  0.1810  0.0032
 1389W        W21669   7.988   1.100   3.152 -0.0843  0.1350 -0.2294
 1390W        W21670   1.226   2.083   2.930  0.0092 -0.3762 -0.1326
 1391W        W21671  19.463   6.476   4.406  0.1228  0.0577 -0.0936
 1392W        W21672   2.648  10.505  10.523  0.1253 -0.1708 -0.2140
 1393W        W21673  13.547  10.930   0.690  0.1332  0.2655 -0.0124
 1394W        W21674  11.842   1.509   0.270 -0.0845  0.1224  0.2774
 1395W        W21675   1.530   5.753   0.165  0.2382  0.2365 -0.0652
 1396W        W21676   2.834  11.263   0.904  0.0746  0.2125  0.2344
 1397W        W21677  13.597  14.639   3.919 -0.2078 -0.0912 -0.0178
 1398W        W21678   5.600  10.079  12.924 -0.3814  0.2569  0.0357
 1399W        W21679  15.791   3.947  10.973 -0.1105 -0.1799 -0.3149
 1400W        W21680  15.729   9.576  11.990 -0.1540  0.2373  0.1476
 1401W        W21681   4.136  13.184  10.863 -0.3265 -0.1214  0.2454
 1402W        W21682  15.334   5.856   2.306 -0.0902  0.1964  0.4289
 1403W        W21683  19.379  17.260   2.966 -0.2170 -0.2582 -0.0595
 1404W        W21684   0.637  10.480   1.031 -0.3473  0.0000 -0.1404
 1405W        W21685   8.413  10.938  13.491 -0.0602  0.1898 -0.0646
 1406W        W21686   8.104   8.678   0.823  0.0006  0.1535  0.2081
 1407W        W21687   7.713   2.181  13.639 -0.1790 -0.0131 -0.0335
 1408W        W21688  15.464   4.763   2.573 -0.1731  0.0763 -0.1187
 1409W        W21689   7.305   0.735  12.863 -0.0417 -0.0752 -0.1092
 1410W        W21690  10.343   5.174  11.797  0.2165 -0.0003 -0.0661
 1411W        W21691   5.430  17.044   0.403 -0.0812 -0.1427  0.1550
 1412W        W21692  18.641  15.263  11.963 -0.0324  0.0661  0.1194
 1413W        W21693  19.660  16.047  14.101 -0.1742 -0.1695 -0.1453
 1414W        W21694   0.717  10.186   0.504  0.1015 -0.0121  0.3043
 1415W        W21695  19.710   6.430   3.361  0.1067 -0.1588 -0.1312
 1416W        W21696  10.714   2.679  12.119  0.0630 -0.0962  0.2474
 1417W        W21697  18.952  18.924  13.739  0.0237 -0.0183 -0.2520
 1418W        W21698  19.776   8.287  11.080  0.1158 -0.1635 -0.2480
 1419W        W21699  18.079   0.880  12.819 -0.0162 -0.0293  0.1535
 1420W        W21700   2.054  18.036  10.867  0.0287 -0.0280 -0.0739
 1421W        W21701  17.015   4.629   0.115 -0.2344  0.0630  0.0188
 1422W        W21702   9.048   9.684  12.835  0.6803 -0.1197  0.1139
 1423W        W21703  17.323   2.690   9.203  0.0289  0.0335  0.3013
 1424W        W21704  19.650  12.010  13.619  0.2457 -0.0923  0.1015
 1425W        W21705   5.849   3.709  10.430  0.0334 -0.2430  0.1431
 1426W        W21706   1.146   9.973  11.093 -0.0503  0.0655  0.0743
 1427W        W21707   5.019  16.919  13.054  0.2183 -0.3152  0.2526
 1428W        W21708  17.036   5.248   1.936  0.2642  0.0184  0.0799
 1429W        W21709  13.657   2.158  14.039 -0.0551  0.2196 -0.2576
 1430W        W21710  15.756   6.763  13.277  0.2284 -0.1638 -0.0330
 1431W        W21711   4.089   0.887   2.000 -0.1376 -0.1404 -0.0507
 1432W        W21712  14.638  18.046  10.247  0.3097 -0.0026 -0.1140
 1433W        W21713  13.633   7.821   4.799 -0.0773 -0.3182  0.2247
 1434W        W21714  19.314   2.208  13.188  0.2974 -0.1811 -0.1186
 1435W        W21715  13.352  14.892   0.301  0.1989  0.1442 -0.2404
 1436W        W21716   2.008   7.434  11.305 -0.2154  0.0003 -0.2917
 1437W        W21717   3.156   3.171   2.402 -0.1768 -0.2502 -0.0755
 1438W        W21718   2.755  15.476   0.836  0.0672 -0.1398  0.1980
 1439W        W21719  16.640   0.105  11.862 -0.1940 -0.3372 -0.1859
 1440W        W21720   8.360  19.697   1.446  0.1464 -0.0344 -0.2627
 1441W        W21721  17.353  13.027   1.054 -0.0353 -0.2759 -0.1077
 1442W        W21722   8.425  17.747   0.398  0.0828  0.3613 -0.1200
 1443W        W21723   3.169   3.218   1.040 -0.0543  0.1822  0.1439
 1444W        W21724  14.152   2.413  11.873  0.0835 -0.1779 -0.0901
 1445W        W21725  16.456   1.330  10.797 -0.0182 -0.0846 -0.0443
 1446W        W21726  17.087  18.906  10.884 -0.0884 -0.3202  0.1648
 1447W        W21727   9.933  11.854   0.392 -0.4421  0.0839 -0.1532
 1448W        W21728   8.204  15.726   0.827  0.0446 -0.0911 -0.0396
 1449W        W21729   6.810  11.940   2.285  0.3856 -0.0473 -0.2150
 1450W        W21730  15.238   4.239  13.554 -0.1460  0.3009 -0.1156
 1451W        W21731  19.006   8.438   4.732 -0.0460  0.2505  0.0478
 1452W        W21732  18.855  18.561   1.511  0.1486  0.0232  0.1973
 1453W        W21733  13.422   9.702   3.019  0.1957  0.1653  0.2722
 1454W        W21734   1.282   6.252  11.145 -0.0562  0.1341  0.1011
 1455W        W21735   5.163  15.135   0.384 -0.2457 -0.3258 -0.0784
 1456W        W21736   4.708   6.633   1.799  0.2944 -0.1482  0.2607
 1457W        W21737  18.527  13.487  11.547 -0.2938 -0.2103  0.3903
 1458W        W21738   7.001   3.718  12.493 -0.0682 -0.2923  0.1728
 1459W        W21739  12.295   0.085  10.729 -0.0097  0.3586 -0.2713
 1460W        W21740  17.314   1.037   0.429 -0.0168  0.1524  0.0094
 1461W        W21741   9.204   7.305  14.070 -0.2123  0.0634 -0.0455
 1462W        W21742   1.395   4.559   2.467 -0.0747 -0.1582  0.0398
 1463W        W21743   7.176  15.670  13.055 -0.2304 -0.1621  0.0766
 1464W        W21744  16.923   1.511  10.719 -0.0276  0.3420 -0.1137
 1465W        W21745   2.092   6.597  10.157  0.2171 -0.1234  0.2399
 1466W        W21746   8.686   5.928   1.267 -0.2493  0.1066  0.3638
 1467W        W21747   4.571  15.561  13.645 -0.0482  0.1646 -0.0265
 1468W        W21748  10.975  15.768  13.941 -0.1393 -0.0896  0.5629
 1469W        W21749   0.413   9.255   1.565 -0.1429 -0.3998 -0.1711
 1470W        W21750  14.002   1.848   1.767  0.1230  0.0787 -0.4725
 1471W        W21751  16.312  13.284  12.321 -0.1666 -0.0339 -0.1329
 1472W        W21752  19.366   9.668  14.037  0.0846  0.0777  0.3415
 1473W        W21753   2.455  13.926   0.747  0.1189  0.2540  0.2944
 1474W        W21754   4.053   6.566   0.364 -0.1061 -0.1507  0.2598
 1475W        W21755  13.488   3.647   2.597  0.0165 -0.3291  0.2587
 1476W        W21756   7.013  13.518   0.696 -0.1288 -0.0847  0.2154
 1477W        W21757   0.813  19.592  10.092 -0.2590 -0.1125 -0.0026
 1478W        W21758   0.698   6.526  10.944  0.1715 -0.1120  0.0084
 1479W        W21759  19.181   7.650   3.237 -0.0579  0.2422  0.0364
 1480W        W21760  18.287  10.521   3.607 -0.1157 -0.1916 -0.0353
 1481W        W21761   8.575   1.236   9.586  0.2019 -0.0854  0.0043
 1482W        W21762  15.745   9.508   0.331 -0.2026 -0.2805  0.3199
 1483W        W21763   3.253  12.309   3.175 -0.0611 -0.1752 -0.0918
 1484W        W21764  15.093  16.240   4.403 -0.0189  0.2169 -0.1410
 1485W        W21765  18.846   9.485  12.270 -0.2654  0.0071  0.1784
 1486W        W21766   2.243  11.095  10.969 -0.0995  0.0106  0.1264
 1487W        W21767  10.694   8.882   2.434  0.0609 -0.0357  0.1320
 1488W        W21768   9.397  12.607  11.793 -0.0076 -0.3892 -0.1585
 1489W        W21769   7.825   7.478  11.177  0.1751 -0.1258  0.2420
 1490W        W21770   3.376   3.997  12.215  0.1280  0.0489  0.1085
 1491W        W21771   9.867  14.918  10.785 -0.1274 -0.0342 -0.1238
 1492W        W21772  12.575   7.044  10.043  0.3883 -0.2643 -0.1525
 1493W        W21773   3.385  15.858  13.861  0.0055 -0.1393 -0.0085
 1494W        W21774  18.918   5.805  14.053  0.4739  0.1168  0.1325
 1495W        W21775   0.177   7.575  11.897  0.1019  0.0332 -0.3137
 1496W        W21776  12.759   9.532  11.302 -0.0501 -0.4808  0.2391
 1497W        W21777   4.508   1.314  12.044 -0.1919 -0.0236  0.4295
 1498W        W21778   9.870   9.181   2.051  0.1559 -0.0041 -0.1748
 1499W        W21779  16.248   1.594   9.945 -0.2824  0.1286 -0.3974
 1500W        W21780  17.086  19.183  10.478 -0.1289 -0.0120  0.2260
 1501W        W21781   3.862   9.750  11.807  0.0092 -0.0363 -0.3445
 1502W        W21782   4.546   8.090   0.913 -0.1558  0.0646 -0.0393
 1503W        W21783   8.106   4.264   1.692 -0.4302 -0.3345 -0.1755
 1504W        W21784   5.114  13.643   1.091  0.0487 -0.0251  0.0682
 1505W        W21785  16.426  16.037  10.484 -0.0354 -0.0132  0.2388
 1506W        W21786   3.947   1.507  13.424  0.1839  0.0508 -0.1078
 1507W        W21787  18.810   5.058   2.591 -0.2657  0.3033 -0.0531
 1508W        W21788   2.700   8.177  10.968 -0.0338 -0.0439  0.2831
 1509W        W21789  15.362   3.662  10.941 -0.2051  0.0769 -0.2090
 1510W        W21790  19.269  11.850  12.618  0.0189  0.0740  0.1585
 1511W        W21791   6.395   3.697   0.030 -0.0735  0.1105  0.0934
 1512W        W21792   3.627  11.408  12.662 -0.0136 -0.1250 -0.0109
 1513W        W21793  17.827  19.381  12.445  0.0360  0.0399  0.3656
 1514W        W21794  14.017  14.784  10.409 -0.1834  0.0756  0.0486
 1515W        W21795  18.982   8.801   2.212 -0.1892 -0.0302  0.0320
 1516W        W21796   8.050   9.858   0.101 -0.1132  0.0200  0.3237
 1517W        W21797   0.402   0.518   1.274  0.0826 -0.1041  0.0606
 1518W        W21798  18.189  12.980  12.620 -0.2180 -0.1104 -0.0038
 1519W        W21799  19.587  19.450   2.409  0.0773 -0.4614 -0.3858
 1520W        W21800   5.350   7.545  13.586  0.1102  0.0646  0.1239
 1521W        W21801   4.424  19.494  11.744 -0.2031 -0.1882  0.4524
 1522W        W21802  18.505   1.415   1.283  0.3408 -0.3371  0.1329
 1523W        W21803   9.498   6.218  10.478 -0.1415 -0.0797  0.0185
 1524W        W21804   4.629  10.601   1.451 -0.2039 -0.2180  0.1758
 1525W        W21805  12.635  15.728   0.466  0.0525  0.1689 -0.0811
 1526W        W21806  13.298   7.611  10.840  0.2959  0.1432 -0.0050
 1527W        W21807  19.636  13.264  10.327  0.1769  0.0895 -0.1331
 1528W        W21808   2.900  18.750   1.389 -0.1940  0.0470  0.2378
 1529W        W21809  10.705   8.494  13.025  0.2343 -0.3476 -0.2133
 1530W        W21810  19.397   2.835   2.597  0.0849 -0.0568  0.0522
 1531W        W21811   2.815  19.559   2.064 -0.0566 -0.1113  0.1817
 1532W        W21812  14.552  13.521  12.178  0.1020  0.0141  0.4956
 1533W        W21813   6.065  15.479   2.462 -0.1060  0.1648 -0.0063
 1534W        W21814   0.970   3.106   1.555 -0.1554 -0.0117 -0.1857
 1535W        W21815   1.199  17.827   1.129  0.0859  0.0753 -0.1599
 1536W        W21816   7.736  11.139  13.965 -0.1511 -0.0896  0.2464
 1537W        W21817   6.256  15.056   0.988  0.0643 -0.1373 -0.1247
 1538W        W21818   0.851   9.238   3.390  0.2380  0.4754  0.0330
 1539W        W21819   8.135   7.468   1.778  0.2574  0.0790  0.0139
 1540W        W21820   2.710   8.828   1.963  0.1415 -0.1084 -0.2892
 1541W        W21821   8.601  11.376  10.631 -0.1903  0.0323 -0.2389
 1542W        W21822   1.839  16.050   2.164 -0.0436  0.1296  0.0203
 1543W        W21823   9.222  16.904   1.909  0.2069  0.0375 -0.1370
 1544W        W21824   9.500  19.137  12.877 -0.0627 -0.1483  0.2256
 1545W        W21825   9.146  17.273   2.536  0.1714 -0.2073  0.1281
 1546W        W21826   4.386  19.407  13.847  0.0764 -0.4080  0.1179
 1547W        W21827  11.576   2.008   2.476  0.1435  0.4399  0.0462
 1548W        W21828   1.941  14.259   3.156 -0.0629  0.0434 -0.0436
 1549W        W21829   8.379   4.962  10.092  0.0376 -0.3037 -0.2573
 1550W        W21830  19.570  13.502   2.193 -0.0019 -0.1020 -0.2217
 1551W        W21831  15.339   3.130  12.695  0.2359  0.2655  0.0339
 1552W        W21832   4.658  19.586  13.059  0.1449 -0.0190 -0.2632
 1553W        W21833   3.457  15.083   1.745  0.0859 -0.2523  0.0783
 1554W        W21834   7.540   8.052   2.596 -0.2108  0.3291 -0.2165
 1555W        W21835   3.069   4.207  14.034  0.0403  0.2586  0.1872
 1556W        W21836  12.785   3.782  13.194 -0.0317 -0.1366  0.2008
 1557W        W21837  10.443   5.579   2.475  0.0226 -0.1256 -0.1583
 1558W        W21838   2.766  18.704  10.519 -0.0149  0.0065 -0.2722
 1559W        W21839  13.347  14.062  11.745 -0.1263  0.4760  0.1158
 1560W        W21840   6.701   2.145  13.640  0.1610  0.2436  0.0137
 1561W        W21841   2.425  12.989   9.271 -0.0718  0.1624  0.2194
 1562W        W21842  13.466   0.698  10.491  0.2238  0.2244  0.0482
 1563W        W21843  13.315  11.880   3.315  0.2317 -0.0498 -0.1046
 1564W        W21844  10.680   7.923  10.858  0.0393  0.0592 -0.1787
 1565W        W21845   0.637   4.444  11.569 -0.1580 -0.2404  0.0706
 1566W        W21846   0.687  18.542   3.149 -0.1522  0.0878 -0.1726
 1567W        W21847   8.674   0.541  13.278 -0.3284 -0.1880 -0.1305
 1568W        W21848  10.724   3.549  11.724 -0.0271 -0.0018 -0.4186
 1569W        W21849   6.120   3.857   2.715 -0.2480 -0.0644  0.1524
 1570W        W21850   5.534   2.539  12.844  0.1434  0.1929 -0.3984
 1571W        W21851  13.319  15.280  10.674 -0.2026 -0.0743 -0.0815
 1572W        W21852   2.812   2.925  12.673 -0.0379 -0.1062 -0.0281
 1573W        W21853   0.758  19.694  13.964  0.0036 -0.3286 -0.2326
 1574W        W21854  10.814  18.078  14.070 -0.1029 -0.0160  0.0522
 1575W        W21855  11.118   3.007  11.057 -0.1873 -0.3249 -0.0771
 1576W        W21856  10.609   1.395  11.401  0.1759  0.0997 -0.1366
 1577W        W21857   0.294   3.389   2.004  0.0851 -0.0820  0.1842
 1578W        W21858  17.290   0.588   3.393 -0.3215 -0.0287  0.0615
 1579W        W21859  19.239   7.553   0.558 -0.2310  0.0019  0.0004
 1580W        W21860  11.926   6.474   2.539 -0.0028  0.1231  0.1112
 1581W        W21861   5.814   4.358   2.585  0.3001 -0.0153  0.2144
 1582W        W21862  14.375   8.593  13.157  0.5502 -0.1212 -0.1244
 1583W        W21863   5.832  11.793  13.100  0.1028  0.2477 -0.0024
 1584W        W21864  14.010   5.600  11.818  0.0092 -0.0120  0.0015
 1585W        W21865   3.867  17.524  11.102  0.2049 -0.3615  0.0386
 1586W        W21866   3.805  12.208  13.756  0.0596  0.2455 -0.1820
 1587W        W21867  19.214  19.318  12.948  0.1947  0.1652 -0.1541
 1588W        W21868  11.738  18.238  13.968 -0.1461 -0.0055  0.1912
 1589W        W21869   4.113   8.731  11.889 -0.0282  0.0726  0.1382
 1590W        W21870  14.750   7.588   1.731 -0.0182 -0.0994  0.2307
 1591W        W21871  18.604   9.060   3.366 -0.1335 -0.1119 -0.1372
 1592W        W21872  12.484  11.959   3.909 -0.0999 -0.2948 -0.0712
 1593W        W21873   9.260   4.151  10.386  0.4100 -0.0451 -0.3339
 1594W        W21874   0.942  11.887   3.935 -0.0986  0.1053 -0.1184
 1595W        W21875   1.310  12.720   2.038  0.0214  0.2316 -0.1327
 1596W        W21876  17.670  15.040   1.532 -0.3051 -0.0202 -0.0227
 1597W        W21877   9.739  15.783   2.265 -0.0001  0.1091  0.0061
 1598W        W21878   0.875  17.405   0.789 -0.1693  0.2389 -0.1032
 1599W        W21879  18.821  15.454   2.742  0.0335  0.1916 -0.2336
 1600W        W21880   1.598   8.592   2.869  0.1916  0.2869  0.1771
 1601W        W21881  16.125   9.595  10.451 -0.0907 -0.0746 -0.1912
 1602W        W21882   9.052   8.866  12.971  0.2109 -0.0468  0.0973
 1603W        W21883  13.052  10.049   2.510  0.2593 -0.0596 -0.0509
 1604W        W21884  17.440   1.254  13.432 -0.0874  0.2215 -0.0204
 1605W        W21885  10.885   9.483  12.092 -0.3613  0.0839  0.1914
 1606W        W21886  19.220   6.311   0.684  0.0341  0.1561  0.1464
 1607W        W21887   9.082  10.539   2.729  0.1016  0.0802  0.1216
 1608W        W21888   2.306  11.088  12.629 -0.1615 -0.2630 -0.0341
 1609W        W21889   9.988   8.234  11.052 -0.0380  0.2570 -0.1777
 1610W        W21890   9.083  15.509   0.914 -0.1249  0.2248 -0.1984
 1611W        W21891  15.824  16.989  13.776 -0.0995 -0.1093 -0.0483
 1612W        W21892  14.094  12.971   3.065  0.0324  0.1808  0.2263
 1613W        W21893   7.376   6.976  12.459 -0.0746 -0.0114  0.0704
 1614W        W21894   8.879   5.762  13.808 -0.1551  0.1361  0.0286
 1615W        W21895   8.181   8.348  11.075 -0.0068  0.0748 -0.0178
 1616W        W21896  15.142  16.917  12.898 -0.0123  0.1737 -0.0668
 1617W        W21897   1.376  11.882  10.676  0.2874  0.2270 -0.2767
 1618W        W21898  10.776   7.729   2.987  0.2398  0.1753 -0.1108
 1619W        W21899   1.889   1.876   2.336 -0.0078  0.2477 -0.0911
 1620W        W21900  16.746  10.054  11.957  0.1397 -0.0396 -0.2279
 1621W        W21901   1.254  11.914  12.416 -0.2580  0.0500 -0.2074
 1622W        W21902  16.868  17.756  12.585  0.2472  0.0901  0.0835
 1623W        W21903   0.981   0.514   1.177  0.2695 -0.1364  0.1539
 1624W        W21904  12.778  14.593   1.048  0.1525 -0.0807  0.1761
 1625W        W21905   7.405   8.866  12.905 -0.0224  0.0392 -0.0170
 1626W        W21906  13.669  15.655   3.497 -0.4028 -0.0289  0.2056
 1627W        W21907  11.581  12.413   4.006 -0.1258  0.1946  0.0196
 1628W        W21908  13.453   4.472   0.050 -0.6762 -0.0486  0.3217
 1629W        W21909   6.088  13.024  13.780  0.1313 -0.0976  0.1806
 1630W        W21910  16.146   3.934  10.622  0.0622 -0.0457 -0.0185
 1631W        W21911   7.329  18.514  12.716  0.0939  0.1531  0.3282
 1632W        W21912   5.376  10.566  12.976  0.1317  0.1990 -0.0386
 1633W        W21913   3.933   2.781   0.109  0.2052  0.0995  0.1364
 1634W        W21914  11.168  18.852  13.449 -0.1756  0.0974 -0.1572
 1635W        W21915   1.626  19.402   3.745  0.3264 -0.1992  0.2134
 1636W        W21916  18.925  16.972   4.053  0.0994  0.0665  0.5614
 1637W        W21917  15.473   9.215  12.006 -0.2076 -0.0195  0.1782
 1638W        W21918   1.850  17.392  14.101 -0.2702  0.1066  0.0831
 1639W        W21919  18.864  14.144  10.586 -0.0986  0.2986 -0.2357
 1640W        W21920  14.916  12.641   3.414  0.2604 -0.0507  0.2527
 1641W        W21921   2.223  19.548  11.570  0.0532  0.1677 -0.0540
 1642W        W21922  10.969  11.684  13.428  0.6872 -0.1203  0.1258
 1643W        W21923   2.642  14.894  13.205 -0.0352  0.1334 -0.1792
 1644W        W21924  13.189  12.664  12.592 -0.2328 -0.1417 -0.2397
 1645W        W21925  17.855   0.054   4.758  0.0017  0.0377 -0.1532
 1646W        W21926   8.877  16.861  11.350 -0.0861 -0.1806  0.3577
 1647W        W21927   7.588  15.432  13.195  0.1865  0.2877 -0.0229
 1648W        W21928   7.087  19.410   2.377 -0.1375 -0.2300 -0.1164
 1649W        W21929   7.673  10.156  12.088 -0.1327 -0.2455  0.1408
 1650W        W21930   1.984  15.948  12.610  0.0292 -0.0245 -0.1573
 1651W        W21931   0.148   2.781  13.591  0.0446 -0.0967 -0.1305
 1652W        W21932  12.905   8.963   9.523  0.2392 -0.0754 -0.1972
 1653W        W21933   7.349   2.958  10.426  0.1618  0.0558 -0.2102
 1654W        W21934  15.745   6.552   0.280  0.0659 -0.3595  0.0135
 1655W        W21935  11.846  18.874   3.598 -0.0172 -0.1160 -0.1347
 1656W        W21936  17.625  18.615   9.913 -0.0549 -0.0616 -0.2559
 1657W        W21937  19.016   8.341  10.809 -0.1879 -0.0541 -0.0705
 1658W        W21938   5.673   5.054  12.856 -0.2098  0.0233  0.0321
 1659W        W21939   0.216   7.462   0.879 -0.0707 -0.1684 -0.1269
 1660W        W21940  10.171  12.265   2.176 -0.0359 -0.1136  0.3130
 1661W        W21941   3.275  18.222   0.876 -0.3104 -0.0542 -0.0755
 1662W        W21942  14.572   7.208   0.113  0.3159  0.2460 -0.2779
 1663W        W21943   1.667   1.036   3.743 -0.0021  0.1268 -0.0313
 1664W        W21944  17.135  11.073   1.841 -0.3067  0.0468 -0.1947
 1665W        W21945   8.777   9.719   0.412  0.1050  0.0178  0.1703
 1666W        W21946  13.045   2.230   3.464  0.0684 -0.2339 -0.2110
 1667W        W21947  14.663   3.153  11.639 -0.0969  0.0698  0.1737
 1668W        W21948   9.202  12.014  11.061  0.1663  0.3448 -0.0107
 1669W        W21949  11.450  10.300   2.923 -0.1743  0.0572  0.0172
 1670W        W21950  16.282   5.314  12.575  0.3117  0.1338 -0.0201
 1671W        W21951  17.778   9.781   2.645 -0.0953 -0.1336 -0.0189
 1672W        W21952  11.756  13.400   2.292  0.3426  0.1056  0.2684
 1673W        W21953   2.973  14.359  10.711  0.1045 -0.1195  0.3411
 1674W        W21954  16.883   3.983  10.351  0.3211 -0.0867 -0.3059
 1675W        W21955  10.255   4.946  13.700 -0.0026 -0.1144 -0.0277
 1676W        W21956   8.478  16.498   0.262 -0.2963  0.3314  0.0618
 1677W        W21957   4.736  10.578  11.784 -0.2054  0.0518  0.2162
 1678W        W21958   0.554  17.835   1.178  0.0839  0.0054  0.0529
 1679W        W21959   9.777   6.081   0.806  0.0186  0.0164  0.2050
 1680W        W21960  18.721   4.471  12.958  0.2675  0.0225 -0.0553
 1681W        W21961  14.521   9.727  10.994 -0.1444 -0.1092 -0.0724
 1682W        W21962   5.880   7.815  10.964  0.0472  0.3095  0.0853
 1683W        W21963  10.238  19.770   1.163  0.3468 -0.1424 -0.1244
 1684W        W21964  17.423   3.810   2.975  0.2083  0.3805 -0.2638
 1685W        W21965   7.212  13.270   1.131  0.0116 -0.1206  0.2208
 1686W        W21966  13.036  11.312   0.013  0.3669  0.1346  0.3195
 1687W        W21967   0.809   1.931  11.146 -0.1460  0.1770  0.1131
 1688W        W21968   8.253  13.288  13.919  0.4990 -0.1436 -0.1790
 1689W        W21969   9.068   0.937  13.548  0.2237 -0.2347  0.0846
 1690W        W21970  17.166  18.150  12.406 -0.2777  0.1173  0.3752
 1691W        W21971   8.648  14.869  12.695  0.0191  0.0632  0.0432
 1692W        W21972   3.116   1.225   1.255  0.0733 -0.0319 -0.1916
 1693W        W21973   1.227  10.575   2.878 -0.0810  0.2787 -0.1082
 1694W        W21974   1.337  17.435   1.587  0.0688 -0.4069  0.1521
 1695W        W21975   1.219  14.586   2.162  0.2986  0.2527 -0.2961
 1696W        W21976   0.544   8.750   1.409  0.2438  0.3002  0.0491
 1697W        W21977   0.837   2.058   3.442 -0.0157  0.2012 -0.1737
 1698W        W21978   6.501  19.216   3.196 -0.1810 -0.2450 -0.1198
 1699W        W21979  19.131  12.629   3.599 -0.1186  0.2815 -0.2892
 1700W        W21980   1.016   7.948  10.838  0.0755  0.2428 -0.2201
 1701W        W21981   7.259  10.032   2.334 -0.2574  0.0143  0.0289
 1702W        W21982  18.251   2.450  13.031  0.2305  0.3205  0.2454
 1703W        W21983   8.365   6.986   4.127 -0.1203  0.1035 -0.2325
 1704W        W21984   5.036  12.610  11.507  0.0358  0.0287 -0.0795
 1705W        W21985  13.061  13.123   4.012 -0.0567 -0.0439  0.1936
 1706W        W21986   0.254  10.248  13.945  0.1492 -0.0549 -0.0273
 1707W        W21987   7.761  15.673  10.690 -0.0053 -0.3697 -0.3164
 1708W        W21988   4.315   4.367   3.109  0.1495 -0.2353  0.2200
 1709W        W21989   9.549  11.005   4.226 -0.2351  0.1642  0.1038
 1710W        W21990  13.375   6.438   2.902 -0.1811 -0.1159 -0.1259
 1711W        W21991  17.523   9.457   2.336  0.0169 -0.1731  0.1639
 1712W        W21992   4.482   2.656   2.737 -0.1146  0.0376  0.0803
 1713W        W21993  19.075   2.059   1.429 -0.0565 -0.0874 -0.2219
 1714W        W21994  12.586  19.265   3.210 -0.0791 -0.0268  0.0879
 1715W        W21995  14.461  13.432  13.417  0.0237  0.2924  0.0340
 1716W        W21996   8.881   4.464  13.096 -0.1536  0.0511  0.2795
 1717W        W21997  13.873  14.612   0.130  0.2012 -0.0819 -0.1085
 1718W        W21998   0.345  19.544  13.743  0.2858 -0.1889 -0.2962
 1719W        W21999  13.318  17.747   3.448 -0.0878  0.1033 -0.1772
 1720W        W22000   5.034  11.000  11.707 -0.0954 -0.1026  0.0650
 1721W        W22001   8.099  17.531  12.546 -0.0762  0.2444 -0.0441
 1722W        W22002   9.002  10.580  12.953  0.0596 -0.2490 -0.0584
 1723W        W22003   3.717   5.293  13.585  0.1371  0.2573 -0.2569
 1724W        W22004  14.639   5.353   2.469  0.0484 -0.1222 -0.1205
 1725W        W22005   8.873   0.021  10.666 -0.2252  0.1594 -0.1994
 1726W        W22006   2.221   7.287   0.062 -0.1699 -0.0141  0.3736
 1727W        W22007   6.634  19.229   1.367 -0.0031 -0.1258 -0.2877
 1728W        W22008  12.925   0.791  13.338 -0.5224 -0.1813  0.0498
 1729W        W22009  13.026  15.800   2.448  0.0659 -0.1765 -0.0696
 1730W        W22010   2.326  10.874   0.165 -0.0473  0.0877 -0.0322
 1731W        W22011   0.553   7.705   1.613 -0.0534  0.1733 -0.0246
 1732W        W22012  17.482  16.377   1.592 -0.0142  0.2148  0.1172
 1733W        W22013   0.359   8.487   4.256 -0.0068  0.3571 -0.0985
 1734W        W22014   2.192   6.541   1.676  0.2326  0.1168 -0.2860
 1735W        W22015  11.478   8.149   3.448 -0.2047 -0.0659 -0.1302
 1736W        W22016   6.901   1.087   3.119  0.1021 -0.2877  0.0193
 1737W        W22017  14.710   8.838   0.282  0.2124  0.0836  0.1112
 1738W        W22018   5.715  16.215   0.801  0.2423  0.0365 -0.1821
 1739W        W22019   5.755   4.066   1.787 -0.0746  0.0542  0.1040
 1740W        W22020  12.226   6.248  11.528  0.4389 -0.4326  0.1716
 1741W        W22021  17.753  15.297  11.449  0.0967  0.1439 -0.1413
 1742W        W22022  15.522   3.096   3.361 -0.2351  0.2217 -0.0281
 1743W        W22023  16.909  16.370   3.601  0.0552  0.2023  0.2220
 1744W        W22024   7.960  10.076   4.060  0.0500  0.3133  0.1655
 1745W        W22025  19.481   9.017   1.360  0.1302  0.2575 -0.2258
 1746W        W22026  17.733   4.484  11.171 -0.0240 -0.2188 -0.1955
 1747W        W22027  16.282   6.752  10.534  0.2445  0.3664 -0.1218
 1748W        W22028  19.382  11.863  11.054 -0.3539  0.3067 -0.1535
 1749W        W22029   6.258  17.441   2.807  0.2252  0.0517 -0.3634
 1750W        W22030  11.056   1.872  12.001  0.0327 -0.0169 -0.2390
 1751W        W22031   8.542   4.841   0.437  0.1123  0.2310 -0.0866
 1752W        W22032  12.864   2.515   2.590  0.2143  0.1746 -0.0242
 1753W        W22033  13.641  18.015   4.435  0.3564  0.1843  0.2295
 1754W        W22034  12.471  18.431   9.166  0.1659  0.0084  0.0193
 1755W        W22035   8.669   7.060   2.359 -0.2469  0.2665 -0.1402
 1756W        W22036   0.134  11.271  13.324  0.0341  0.3626  0.2109
 1757W        W22037   4.059  16.921   2.561 -0.2077 -0.2202 -0.0216
 1758W        W22038   3.769   6.463  13.491  0.3344  0.0449 -0.2184
 1759W        W22039  16.186   1.240  13.112 -0.1905  0.1692 -0.3661
 1760W        W22040   6.792   5.133   3.764  0.4229  0.3601  0.0772
 1761W        W22041   5.991   2.333   3.942  0.0802 -0.2018 -0.0301
 1762W        W22042   8.162   3.869  11.508 -0.0272  0.0430 -0.2504
 1763W        W22043  17.658  13.063   9.148 -0.0119  0.2800  0.1862
 1764W        W22044  11.721   0.223   1.163 -0.1938  0.1582  0.0899
 1765W        W22045   6.240  14.254   0.322 -0.2036  0.2981  0.0528
 1766W        W22046   1.983   5.239   0.900  0.0766  0.0574 -0.2017
 1767W        W22047  17.958  17.967  13.693 -0.0147 -0.1905 -0.0261
 1768W        W22048   0.071   0.633  13.488  0.2859 -0.2186 -0.0068
 1769W        W22049  12.477   6.411  13.222 -0.1070  0.0625  0.0078
 1770W        W22050  16.068  19.281   0.508 -0.3663  0.0540 -0.0257
 1771W        W22051   5.656   1.109   3.305 -0.0721  0.0860 -0.3139
 1772W        W22052   8.252   3.375   2.453  0.1106  0.0838 -0.1093
 1773W        W22053   8.467  15.511   4.760 -0.1948  0.2197  0.2853
 1774W        W22054   3.401  16.873   1.995 -0.0597  0.1284  0.2250
 1775W        W22055   2.817  18.947   2.521  0.0765  0.0657  0.0121
 1776W        W22056   6.772   9.517  13.212 -0.1490  0.0063  0.2542
 1777W        W22057  14.497  13.874   0.167 -0.1149 -0.1146 -0.3325
 1778W        W22058   2.528   6.464  12.860  0.1297  0.1249 -0.3709
 1779W        W22059   2.225  17.555  11.018  0.0715  0.2105  0.0585
 1780W        W22060  19.205   8.454   0.158 -0.0269 -0.1215 -0.2314
 1781W        W22061   5.849   5.564  12.680  0.2628  0.0440 -0.2458
 1782W        W22062   2.342   5.669  13.679 -0.0107 -0.1773 -0.0398
 1783W        W22063   8.886  11.581   1.690 -0.0468  0.0312  0.0684
 1784W        W22064   7.877  14.385   0.084  0.1360 -0.1258  0.0453
 1785W        W22065   7.619   2.039   2.081 -0.1394  0.2615 -0.1617
 1786W        W22066  13.120   6.554  11.786  0.1400  0.0974 -0.0725
 1787W        W22067  16.891   9.102  12.387 -0.2526  0.3119  0.0603
 1788W        W22068  13.762   7.593  12.559  0.1435  0.0670  0.0735
 1789W        W22069   6.358   1.860   1.282 -0.0188 -0.2354  0.0870
 1790W        W22070  19.447  15.934  13.083 -0.2407 -0.1097 -0.1859
 1791W        W22071   0.017   5.638   1.860  0.0115  0.0202 -0.1036
 1792W        W22072   9.178  18.868  12.121  0.0073  0.0436  0.4676
 1793W        W22073   3.910   7.795  10.314 -0.0930 -0.1235 -0.1703
 1794W        W22074  15.262   1.594   1.103  0.1033 -0.1843  0.1089
 1795W        W22075  15.895   6.105   3.539  0.4344 -0.0723  0.2710
 1796W        W22076  13.359  11.073   1.512 -0.0081  0.1342  0.1312
 1797W        W22077   1.239  19.177  12.284  0.1944  0.0844 -0.2650
 1798W        W22078   5.637  18.008  12.531 -0.1214 -0.0896  0.1205
 1799W        W22079   9.666  11.025   0.903 -0.2795 -0.0848 -0.2731
 1800W        W22080  19.384   2.160  11.636 -0.2337 -0.1088  0.1891
 1801W        W22081   0.070   0.221  13.809 -0.0286  0.2451 -0.3498
 1802W        W22082  10.705   8.016   2.261 -0.1830 -0.1034  0.0608
 1803W        W22083  18.776   3.361   1.924 -0.3434 -0.0214 -0.1604
 1804W        W22084   8.427  16.624  13.913 -0.2208  0.1321 -0.0186
 1805W        W22085  19.469   6.406   2.226 -0.3133  0.1721  0.1069
 1806W        W22086  15.074  13.326  12.673 -0.2781  0.0038 -0.1966
 1807W        W22087   9.815   8.219  10.554  0.0945  0.0672  0.2239
 1808W        W22088  11.152  16.168   0.212  0.0269  0.0498 -0.1712
 1809W        W22089   9.572  14.234  12.205 -0.1514  0.1669  0.1743
 1810W        W22090   0.084  15.291   1.700 -0.1702 -0.3176 -0.0541
 1811W        W22091  19.037  19.129   1.599 -0.0103 -0.1337 -0.3290
 1812W        W22092  12.697  19.135  11.689 -0.1711  0.3277 -0.0765
 1813W        W22093  16.993  10.540  12.667  0.1005 -0.1220  0.3958
 1814W        W22094  17.880  10.419   0.297  0.0146 -0.0225  0.1253
 1815W        W22095   4.206  19.377  10.733  0.1784 -0.1779  0.0606
 1816W        W22096  11.314  19.074   0.452  0.0779 -0.4042  0.0463
 1817W        W22097   2.259  10.979   3.902 -0.0835  0.0714 -0.2692
 1818W        W22098   9.287   7.184  11.029  0.0675 -0.0015 -0.0331
 1819W        W22099   6.522   5.216  11.676  0.1361 -0.3145  0.0411
 1820W        W22100  14.213   5.823  11.305  0.0973  0.0024 -0.0944
 1821W        W22101  11.537   5.066  13.142  0.2474 -0.0399  0.2078
 1822W        W22102   7.083   9.218  11.346  0.1927  0.0224 -0.1940
 1823W        W22103   0.910   1.044  11.237 -0.1021  0.0890 -0.1178
 1824W        W22104   9.273  11.953   1.921 -0.1369  0.2127  0.0972
 1825W        W22105  19.176  19.333   2.106  0.1013  0.2561  0.0758
 1826W        W22106  16.960   6.023   0.272 -0.3703  0.1192 -0.0501
 1827W        W22107   8.333  10.075   2.106  0.0694 -0.1524 -0.1500
 1828W        W22108   9.984  15.791   3.608  0.1158  0.0630 -0.1389
 1829W        W22109   7.797  16.897  13.505  0.3089 -0.0466  0.1379
 1830W        W22110  13.589  14.040  10.732 -0.1562  0.0211 -0.1307
 1831W        W22111  17.925  14.824   0.533  0.2761  0.0514 -0.1124
 1832W        W22112   4.473  14.733   3.472 -0.0996 -0.1451  0.1326
 1833W        W22113   9.807  11.017   5.072  0.1277  0.0745  0.0558
 1834W        W22114   6.351   4.874   3.236  0.1798  0.1724  0.2259
 1835W        W22115   8.784   6.659  10.576  0.1651 -0.1169  0.2511
 1836W        W22116  13.473  19.298   2.162  0.0863  0.3276 -0.1808
 1837W        W22117   0.975  18.926   0.477  0.2364 -0.1594  0.0052
 1838W        W22118  16.925   6.534   0.230 -0.2008 -0.3305 -0.1749
 1839W        W22119  15.867   4.624   2.265  0.0931 -0.0662  0.0304
 1840W        W22120   9.450  17.821   1.739 -0.0710 -0.1238 -0.0549
 1841W        W22121  19.578   1.864  10.357  0.0691 -0.1945  0.1904
 1842W        W22122   2.329   1.910  13.521  0.2193 -0.1099 -0.0443
 1843W        W22123  16.868  11.421   0.919 -0.0259 -0.0430 -0.3872
 1844W        W22124  17.663   8.647  10.634 -0.0649 -0.2069  0.0771
 1845W        W22125   6.432  11.749   3.261  0.4023  0.0037  0.3150
 1846W        W22126  17.502  13.832  12.163  0.0512  0.3090 -0.2404
 1847W        W22127  18.001  11.911   3.769 -0.1255  0.0933  0.1017
 1848W        W22128  13.839   7.102  12.747  0.1586  0.2719  0.1049
 1849W        W22129   1.910  13.013   9.231 -0.0316  0.0801 -0.2298
 1850W        W22130   6.278   3.250   3.347 -0.1147  0.0592  0.3368
 1851W        W22131  14.927  19.761   9.962 -0.6089  0.0304 -0.0936
 1852W        W22132   1.845   2.790  11.747 -0.0636  0.1231 -0.0885
 1853W        W22133  14.741  18.300   2.000  0.0874  0.2734  0.0282
 1854W        W22134   8.448  11.353   1.483 -0.1718 -0.4812 -0.3035
 1855W        W22135  16.145   3.908   3.371 -0.0759  0.3142 -0.0240
 1856W        W22136   4.835  11.679   0.928 -0.1672 -0.1934 -0.0554
 1857W        W22137   5.200   4.499   0.192 -0.1309  0.0020 -0.0035
 1858W        W22138  15.532  13.824  12.078  0.0817  0.1086 -0.0854
 1859W        W22139   2.431   8.276   0.416 -0.1218  0.0293  0.0415
 1860W        W22140   9.950  16.749  13.708  0.2888 -0.1539 -0.2152
 1861W        W22141   3.650  18.059   0.631  0.0125  0.0351 -0.4019
 1862W        W22142  14.137   7.367  10.369  0.3129 -0.2139 -0.1362
 1863W        W22143  14.648  10.342   1.484  0.1331  0.3462 -0.2977
 1864W        W22144   6.262   4.437  11.057 -0.1368 -0.2021 -0.0588
 1865W        W22145  18.594   5.731  13.158  0.1831 -0.2212  0.3353
 1866W        W22146  10.748  13.861   1.477 -0.2523  0.2679 -0.3505
 1867W        W22147  11.298  12.775   4.325 -0.0268 -0.0122 -0.1464
 1868W        W22148  15.230   9.154   3.322 -0.1039 -0.1127  0.0838
 1869W        W22149   2.709   7.145  11.120  0.1069 -0.0654  0.0689
 1870W        W22150   8.692  16.928  13.273  0.1700  0.1414  0.0245
 1871W        W22151   1.089   8.968   4.388 -0.1295 -0.0466  0.0144
 1872W        W22152   4.237   2.239  10.221 -0.0828 -0.1172 -0.1333
 1873W        W22153   7.476  16.784  12.594 -0.1436  0.0356 -0.0490
 1874W        W22154  12.690   2.490  13.279  0.0480  0.3079 -0.2563
 1875W        W22155   6.175   8.098   1.921 -0.2987 -0.4563 -0.0088
 1876W        W22156   1.862   7.553   0.635  0.1117  0.3713  0.3096
 1877W        W22157   1.879  11.031   1.003 -0.3531 -0.1219  0.1482
 1878W        W22158  12.730  10.424   0.467  0.1421 -0.1440  0.1777
 1879W        W22159   7.574   7.609   4.245  0.2301  0.2452 -0.1869
 1880W        W22160  18.072  14.422   3.831  0.2576  0.1474  0.0346
 1881W        W22161   9.677  18.717  13.081 -0.1664  0.4677  0.0298
 1882W        W22162  12.164  10.727   3.110 -0.3001 -0.0875  0.0696
 1883W        W22163  13.595   9.207  12.966 -0.2509  0.1708  0.2761
 1884W        W22164  13.901   3.158  13.725 -0.2578  0.1982 -0.2058
 1885W        W22165  14.566  14.985  13.907  0.2523 -0.0795 -0.4303
 1886W        W22166  13.692   5.700  13.337 -0.0069 -0.0956 -0.0125
 1887W        W22167  18.026   2.872  13.553 -0.2573 -0.0474 -0.2527
 1888W        W22168  14.249  11.093  12.026 -0.0679 -0.0792 -0.1650
 1889W        W22169  13.870   8.427  13.548  0.2431  0.4736 -0.3295
 1890W        W22170  15.254   5.353  13.086  0.0953  0.0582  0.2485
 1891W        W22171  17.975   6.912   0.659  0.0546 -0.1831  0.0987
 1892W        W22172   5.127  13.220  11.450  0.1004  0.2441  0.1525
 1893W        W22173  13.127   8.449   1.901  0.0584  0.0975  0.0810
 1894W        W22174   0.666   1.177   0.880  0.1036  0.1573 -0.4122
 1895W        W22175  17.473   1.298  11.684 -0.0960  0.1599  0.4194
 1896W        W22176  10.633   4.475  12.962  0.1743  0.2954  0.0299
 1897W        W22177  18.366  15.251  12.947  0.0652 -0.1472  0.0821
 1898W        W22178  16.650  19.539  13.028 -0.1036 -0.1102  0.2897
 1899W        W22179  14.413   4.046  10.717  0.1125  0.2736 -0.2423
 1900W        W22180   1.552   1.017   0.575 -0.1046  0.0164  0.0727
 1901W        W22181  15.562  10.696   1.410 -0.2106  0.0133 -0.0914
 1902W        W22182  17.613   1.953  10.307  0.0761  0.0774 -0.0966
 1903W        W22183  19.243  14.740  12.304 -0.0346  0.1815  0.0100
 1904W        W22184  16.143  13.705   0.760  0.0166 -0.4284 -0.0422
 1905W        W22185  18.244  11.111  12.192  0.2446 -0.0540 -0.0094
 1906W        W22186   7.884   9.548  12.686 -0.0483 -0.1578  0.1782
 1907W        W22187  10.887   8.965   3.353 -0.0462 -0.2213  0.0790
 1908W        W22188   9.664   8.627  12.765 -0.1942  0.0745  0.0114
 1909W        W22189  17.403  17.440   3.635  0.0821  0.0515 -0.1508
 1910W        W22190  15.465  15.679  12.418  0.1813  0.2255 -0.2992
 1911W        W22191   3.796   3.173   4.340 -0.2028  0.2496 -0.0521
 1912W        W22192  11.242  11.646   3.556  0.1175  0.2551 -0.5626
 1913W        W22193   6.697  19.027   3.586  0.2086  0.3847  0.0651
 1914W        W22194  15.705   9.055   1.152 -0.3668 -0.0108 -0.1948
 1915W        W22195  13.375  11.858   0.611 -0.1419 -0.2441  0.0015
 1916W        W22196  10.252  13.191  11.527  0.0840 -0.0681  0.1881
 1917W        W22197  13.713  16.847   1.873  0.0266  0.2511 -0.4885
 1918W        W22198  13.818  17.105   1.442 -0.2588  0.2880  0.0253
 1919W        W22199  14.034   2.750   0.485  0.0823 -0.2189 -0.2383
 1920W        W22200  15.060  10.865   0.353 -0.2117  0.3476 -0.0445
 1921W        W22201  14.371  18.682  11.993  0.0392  0.0900  0.2845
 1922W        W22202   8.328   0.430   3.042 -0.0426  0.0146  0.2827
 1923W        W22203   1.246  12.488   1.586  0.1806 -0.0229  0.0698
 1924W        W22204  12.214   0.938   1.142  0.1946 -0.0751 -0.1085
 1925W        W22205  15.269   7.184   2.277  0.2239 -0.0641 -0.1285
 1926W        W22206   0.366  18.025   2.956  0.2164  0.5830 -0.1984
 1927W        W22207   6.360  10.776   0.573  0.2293  0.0984  0.0487
 1928W        W22208  16.926   5.569   3.704  0.0372  0.1030 -0.0463
 1929W        W22209   5.651   3.160  13.608  0.6436 -0.0164  0.4178
 1930W        W22210   4.620  10.943   1.087  0.2674  0.5610 -0.0939
 1931W        W22211   6.979  16.619   5.163 -0.0365  0.1098 -0.1246
 1932W        W22212   8.225  17.674   9.313 -0.0650  0.1624 -0.1066
 1933W        W22213   2.296  12.600   2.163  0.3190  0.0073  0.1755
 1934W        W22214   1.127  12.479  14.106  0.1595  0.0091  0.1677
 1935W        W22215   1.309   6.140   2.683  0.0880 -0.0252 -0.1244
 1936W        W22216   7.935  12.052   0.223 -0.2100 -0.0664 -0.1195
 1937W        W22217  10.006  14.494  12.206  0.3915  0.2729  0.1082
 1938W        W22218  13.177  11.772  12.770 -0.3480  0.0454  0.1525
 1939W        W22219   1.968   8.039   2.850 -0.0584 -0.1845 -0.2087
 1940W        W22220  15.611   5.379  10.292 -0.3648 -0.0793  0.1115
 1941W        W22221   0.520   8.953   4.231 -0.1594  0.0943 -0.0003
 1942W        W22222  11.910   1.219  11.996  0.1689  0.0757  0.3627
 1943W        W22223  11.088   0.820  11.864 -0.2274  0.3031 -0.0673
 1944W        W22224  18.224   1.031   1.543  0.0119 -0.2537  0.0112
 1945W        W22225  17.095  17.038  14.051 -0.0758  0.1581  0.1244
 1946W        W22226   1.642  12.986   1.452  0.3676  0.0889  0.0584
 1947W        W22227  13.844  11.645   1.478  0.3661  0.3285  0.4466
 1948W        W22228   0.523   8.851  12.523 -0.0874 -0.0149 -0.1004
 1949W        W22229  13.791  15.081   0.368 -0.0421  0.1876  0.0985
 1950W        W22230   4.921  10.177   1.585  0.2202 -0.0263 -0.0134
 1951W        W22231   5.827   6.669   3.832 -0.3219  0.2074 -0.0563
 1952W        W22232  11.382  15.811   3.712  0.2068  0.0495  0.1752
 1953W        W22233  13.849  10.559   0.480 -0.1206 -0.0390 -0.2576
 1954W        W22234  14.220   8.076  12.509  0.2425  0.1582 -0.1965
 1955W        W22235   1.163   5.523  11.681 -0.0547 -0.1416 -0.0813
 1956W        W22236   3.235   5.551  10.803  0.0302 -0.1319 -0.2325
 1957W        W22237  11.023   5.994   2.773  0.4414 -0.1779 -0.0513
 1958W        W22238  15.037  12.107   0.734 -0.1086 -0.1740  0.2102
 1959W        W22239  15.584  18.971   4.423 -0.0367  0.3781  0.4981
 1960W        W22240   6.719   5.734   1.522  0.1099  0.0962  0.2679
 1961W        W22241  12.094   3.529  13.928 -0.0274 -0.0754  0.1725
 1962W        W22242   7.914  18.840   0.389  0.0975 -0.0130  0.1748
 1963W        W22243  10.090  10.111   4.173  0.0271  0.3768  0.0349
 1964W        W22244   8.661   7.295   5.373  0.0751  0.1754 -0.1423
 1965W        W22245  10.960   4.392   2.839 -0.0795 -0.1233 -0.0387
 1966W        W22246   6.550   1.264   0.785  0.0058 -0.3004  0.1900
 1967W        W22247  14.040  11.359   3.548 -0.0979  0.1407 -0.4188
 1968W        W22248  10.830  12.777  10.488  0.0074 -0.2162 -0.0550
 1969W        W22249   8.914  10.309   3.174 -0.0133 -0.1291  0.0270
 1970W        W22250  18.703  13.338   0.126 -0.0240 -0.1624  0.3628
 1971W        W22251  11.739  12.400   9.315 -0.1160  0.1387  0.2154
 1972W        W22252  19.595  10.504  13.812 -0.0299 -0.2610 -0.1536
 1973W        W22253   0.645   0.601   0.775  0.1733  0.0481  0.0623
 1974W        W22254  12.810   9.359  12.344  0.0594  0.1654  0.0020
 1975W        W22255   0.025  14.041  12.344  0.2913 -0.0035 -0.1996
 1976W        W22256   5.159  14.564   2.582 -0.3682  0.0514  0.1024
 1977W        W22257  18.035  10.162   0.709  0.0274 -0.2989 -0.0351
 1978W        W22258  11.547  11.203  14.022  0.0605  0.0780 -0.0915
 1979W        W22259  10.813  17.226   1.767  0.3639  0.1087  0.2105
 1980W        W22260  14.451  14.598  10.764 -0.1003 -0.2689  0.0480
 1981W        W22261   8.611  14.356   2.121 -0.1208 -0.0686  0.3449
 1982W        W22262  17.646   3.463  11.339 -0.2550  0.0712  0.1079
 1983W        W22263   6.241  12.023  10.784 -0.3280  0.1004  0.1043
 1984W        W22264  18.372  15.960  11.473 -0.0780  0.1813  0.0887
 1985W        W22265  18.590   9.329   4.379 -0.3979  0.0269 -0.1912
 1986W        W22266  12.155   5.500  13.656 -0.0736 -0.1134 -0.1898
 1987W        W22267   2.802  13.822   3.524 -0.0111  0.1965  0.1673
 1988W        W22268  18.313   3.760  12.185  0.0349  0.4958 -0.0100
 1989W        W22269  10.652   5.254  11.397  0.0483  0.0811  0.1790
 1990W        W22270  16.424   6.779   2.392 -0.0871  0.0783 -0.0215
 1991W        W22271  13.697  15.618   2.955 -0.1384 -0.0031 -0.0715
 1992W        W22272  10.826  13.582  13.770 -0.4333 -0.1102  0.0045
 1993W        W22273  15.721   7.361  12.675 -0.2160  0.2372 -0.1596
 1994W        W22274   2.669  17.967   2.705 -0.1397  0.3202  0.2340
 1995W        W22275   6.721  15.754  14.038  0.2031 -0.3706  0.0911
 1996W        W22276  12.036   2.126   3.250 -0.1440  0.3324 -0.1002
 1997W        W22277  12.379  14.091  12.570 -0.0492 -0.0703  0.0780
 1998W        W22278  12.174   3.859   0.291 -0.1145  0.0310 -0.0953
 1999W        W22279   5.280  14.700  11.977  0.0885 -0.0286  0.1018
 2000W        W22280   2.603  14.341  11.172  0.0910 -0.2332 -0.2436
 2001W        W22281  10.797  15.244   3.684 -0.2835 -0.1123 -0.0423
 2002W        W22282   3.101  13.908   2.243 -0.4203  0.2159  0.1105
 2003W        W22283  17.612  15.634   8.948  0.0826  0.1264  0.0457
 2004W        W22284   1.921   8.390   3.337  0.3847 -0.0541  0.0299
 2005W        W22285  13.432   5.381   2.209  0.3441 -0.3790 -0.2255
 2006W        W22286   0.489   9.497  11.318  0.1019  0.2162 -0.1590
 2007W        W22287   8.726   0.671  11.465 -0.0994  0.0052  0.1349
 2008W        W22288  16.099   3.907  14.056  0.3275  0.2153 -0.0984
 2009W        W22289  14.787   9.863   2.830 -0.5658  0.1276 -0.3287
 2010W        W22290  18.854   3.715  12.499  0.3801  0.0466 -0.0844
 2011W        W22291  11.978  12.437  10.539  0.0786  0.1536 -0.4338
 2012W        W22292  16.096  14.890   0.269 -0.0996  0.1586 -0.0945
 2013W        W22293  14.107   4.825  13.009 -0.3537  0.0983  0.2102
 2014W        W22294  17.925   7.374  10.316  0.0401 -0.1637  0.3048
 2015W        W22295   3.594   5.098  14.050  0.1865  0.2983  0.1099
 2016W        W22296  19.370  10.379  11.854 -0.0631  0.1279 -0.2038
 2017W        W22297  15.289  13.398   3.560  0.2651 -0.3256  0.1265
 2018W        W22298   7.595   0.975  10.197  0.0443  0.0645 -0.2262
 2019W        W22299  17.578   6.050   1.992 -0.0372 -0.2144 -0.0805
 2020W        W22300  16.944   9.555  12.746 -0.0839 -0.1036 -0.0978
 2021W        W22301   6.650  11.296  12.951 -0.3101  0.2079  0.4727
 2022W        W22302  12.948  11.306  11.186 -0.1250 -0.1431 -0.0659
 2023W        W22303  15.539   6.395   3.373 -0.1600  0.0878 -0.1531
 2024W        W22304  13.283   6.427   3.866  0.2193 -0.2203  0.2489
 2025W        W22305  17.811  12.916   1.014  0.1368  0.3423  0.2267
 2026W        W22306  17.439  15.670  12.796  0.2548 -0.4798 -0.0874
 2027W        W22307  16.130  18.887  11.787 -0.0138 -0.1631 -0.2163
 2028W        W22308  13.897  17.879  11.535 -0.1344  0.0707  0.0120
 2029W        W22309   1.283  14.501  11.050  0.0135  0.0302 -0.0437
 2030W        W22310  10.971  19.742  11.450 -0.4633 -0.0148  0.4332
 2031W        W22311  17.311  17.024  12.764 -0.0218  0.2557  0.1222
 2032W        W22312   8.443  13.497   0.729  0.2504  0.0000  0.0088
 2033W        W22313  16.178   2.434   2.917  0.0407  0.0353 -0.1289
 2034W        W22314  17.508  11.488   0.293  0.0537  0.1455  0.1196
 2035W        W22315   4.718   2.825   0.766  0.2905  0.1955 -0.0969
 2036W        W22316  16.560  14.032  11.671 -0.0757  0.1265  0.0273
 2037W        W22317  11.816   6.726   1.939  0.1949 -0.3626  0.2587
 2038W        W22318  13.492  18.921  12.899 -0.4464  0.3650 -0.2096
 2039W        W22319  19.158  19.478   1.242  0.0973  0.3510 -0.1562
 2040W        W22320   5.425  12.042  13.811  0.1246 -0.1331 -0.0313
 2041W        W22321   9.181  19.380   1.877  0.0777 -0.0608 -0.2294
 2042W        W22322  15.662  13.932   2.750  0.1502  0.1797 -0.1993
 2043W        W22323  17.985  15.639  12.793  0.1751 -0.2366  0.0137
 2044W        W22324  12.797   1.680  13.915  0.1015 -0.0714  0.0608
 2045W        W22325   3.302   4.514   3.023 -0.2035 -0.0044 -0.0175
 2046W        W22326  16.686  15.181   0.116 -0.2456  0.0485  0.2421
 2047W        W22327   1.260   7.751   1.671 -0.3318  0.2957  0.2626
 2048W        W22328  15.717   1.836   3.546 -0.1599 -0.2611 -0.5212
 2049W        W22329  10.359  18.592  11.825  0.0135  0.1711 -0.0165
 2050W        W22330  10.575  15.137  11.458 -0.0736  0.2099 -0.1819
 2051W        W22331  12.157  14.415  13.347 -0.1049 -0.0992  0.0203
 2052W        W22332  16.905  13.600  11.586  0.1901 -0.1542  0.4317
 2053W        W22333   2.915   6.303   9.456 -0.0831 -0.2151 -0.0013
 2054W        W22334  12.259  10.035   3.796  0.1337  0.3010 -0.1862
 2055W        W22335   9.702  12.577  13.652 -0.0550 -0.2429  0.1402
 2056W        W22336   6.083  14.534   4.107  0.2530 -0.2121  0.1626
 2057W        W22337   4.423  15.098  13.240  0.2053  0.2092  0.3739
 2058W        W22338  15.598  12.187  10.781  0.1122 -0.1233  0.0597
 2059W        W22339  19.272   8.275  11.618 -0.0734 -0.4092  0.0529
 2060W        W22340  16.849   4.336   1.475  0.0707 -0.0313 -0.1623
 2061W        W22341  11.600   2.383  13.636 -0.0750 -0.1167  0.0994
 2062W        W22342  13.864  17.188  13.197  0.1595 -0.0737 -0.0118
 2063W        W22343  12.275  12.689   0.521  0.1143 -0.0935  0.1200
 2064W        W22344   9.101   8.168   1.073 -0.2917 -0.0248 -0.0502
 2065W        W22345   4.843   7.100   1.328  0.0884  0.2007  0.2108
 2066W        W22346   6.382  17.082   0.154 -0.1074  0.1146  0.3091
 2067W        W22347  13.918   8.913  13.163  0.0246 -0.2478  0.1661
 2068W        W22348   5.389   7.273  12.818 -0.0681 -0.0719 -0.0297
 2069W        W22349  16.423  19.767   0.425 -0.1770 -0.0378 -0.1727
 2070W        W22350   5.179  15.213  11.895 -0.2891 -0.0415  0.0889
 2071W        W22351   1.852   9.115  11.099 -0.2788  0.0014 -0.1888
 2072W        W22352   4.827   7.841   2.005 -0.0172 -0.1362 -0.1426
 2073W        W22353   0.966   0.443  11.469  0.2194  0.2367  0.0531
 2074W        W22354  11.405  14.972  13.976  0.3764  0.1754 -0.0081
 2075W        W22355  15.336  18.106  12.488 -0.0191  0.0633  0.1792
 2076W        W22356   0.845   3.254   2.822  0.3140  0.3123  0.5277
 2077W        W22357  16.466  11.751   0.092 -0.1334  0.0311 -0.2973
 2078W        W22358   0.562  12.334   3.669 -0.0458  0.1853 -0.1197
 2079W        W22359   3.038  10.304   2.233 -0.1963  0.0354 -0.1129
 2080W        W22360  18.887  17.830  13.804 -0.2310 -0.1196 -0.3244
 2081W        W22361   9.289  12.025  11.597  0.0085 -0.0090  0.0449
 2082W        W22362   1.900  13.412   2.437  0.2647  0.0521 -0.3397
 2083W        W22363  10.127   3.352  12.473 -0.2106  0.2885 -0.1327
 2084W        W22364   9.361   4.494  13.369 -0.0286  0.0742 -0.1187
 2085W        W22365  12.103  11.971   2.667 -0.0484  0.0954  0.0580
 2086W        W22366   2.290  17.605   1.995 -0.1879 -0.1403  0.0856
 2087W        W22367  10.820   0.282   0.589 -0.0409  0.1892  0.0691
 2088W        W22368  10.723  12.644  12.563  0.1030 -0.1110  0.2051
 2089W        W22369  17.060   3.840  13.528  0.1629  0.1687  0.1685
 2090W        W22370   9.233   0.790   1.749  0.2331  0.3353 -0.3310
 2091W        W22371   3.163  14.643   1.655  0.1573  0.1477  0.0527
 2092W        W22372  10.363   8.912   3.470 -0.1565 -0.1297 -0.0455
 2093W        W22373  12.719   0.919   9.245 -0.2268 -0.0007 -0.0226
 2094W        W22374   2.706  19.247   1.643 -0.1612 -0.0674  0.3021
 2095W        W22375   7.530   6.068  11.972  0.2321 -0.1367  0.0156
 2096W        W22376  15.036   3.547  13.744 -0.0392 -0.2246 -0.0187
 2097W        W22377   4.018   4.988  13.338 -0.1166 -0.0528  0.1295
 2098W        W22378   3.603   6.760   0.278 -0.2750 -0.0817 -0.0345
 2099W        W22379   7.024  12.064   1.555 -0.2806 -0.3909 -0.1058
 2100W        W22380  15.533  10.087  12.413 -0.3432  0.0331 -0.0173
 2101W        W22381   7.200  15.557   0.124 -0.1232 -0.1296  0.1098
 2102W        W22382   3.222  17.872   2.728 -0.1136 -0.1944 -0.0185
 2103W        W22383   3.638  13.748   0.008  0.1017  0.0260 -0.4770
 2104W        W22384   5.074  10.794  12.506 -0.3363  0.1031 -0.0912
 2105W        W22385  10.841   6.848  12.614  0.1719 -0.0555  0.0694
 2106W        W22386   9.363  14.579   1.897  0.2978 -0.0313  0.0683
 2107W        W22387  19.274  11.893  11.577 -0.0590  0.0457 -0.2484
 2108W        W22388  10.432   0.992  13.554 -0.0187 -0.2253 -0.1578
 2109W        W22389   3.256  15.348  11.814  0.3250  0.1365 -0.0309
 2110W        W22390   2.458   0.119  12.727  0.0662  0.0192 -0.2334
 2111W        W22391  11.642   0.241  13.343  0.5341 -0.1498  0.7428
 2112W        W22392  12.566  12.697   2.261  0.2083  0.2080  0.0015
 2113W        W22393  13.972  19.747   9.980  0.1454 -0.0036 -0.0555
 2114W        W22394   1.589  11.171   2.422  0.1284 -0.1191 -0.1515
 2115W        W22395  14.980   7.478  10.635  0.1217  0.1928  0.0050
 2116W        W22396  18.052  19.345   0.517  0.3065  0.0333 -0.1537
 2117W        W22397  11.553   0.271   0.139  0.1728  0.0491  0.0773
 2118W        W22398   0.415  14.355   0.072 -0.0839 -0.0873  0.2464
 2119W        W22399  18.231   4.383  12.941  0.0537  0.0712  0.2874
 2120W        W22400   8.713  16.939  12.244 -0.1296 -0.1323  0.1036
 2121W        W22401  10.272  13.688   1.625 -0.0130 -0.1683  0.3679
 2122W        W22402   5.965  10.237   3.469  0.1681  0.1941  0.1125
 2123W        W22403  18.752   7.925  13.319 -0.1137 -0.0349 -0.1267
 2124W        W22404  10.462   5.685  11.098 -0.1302  0.1003  0.1386
 2125W        W22405   1.401  18.135  12.007  0.3101  0.0225  0.2235
 2126W        W22406   7.824  13.766   1.638  0.1108 -0.2712  0.2832
 2127W        W22407   3.037  15.954  12.849 -0.2184 -0.0541  0.0847
 2128W        W22408   9.144   4.949   9.080  0.0154 -0.1859 -0.1795
 2129W        W22409  12.468   3.194  14.001  0.0778 -0.1456  0.0107
 2130W        W22410  15.082   3.918  11.361  0.0274  0.0837  0.1006
 2131W        W22411  18.710   7.465  12.379 -0.1348  0.1077 -0.3283
 2132W        W22412  10.204   7.577  14.008 -0.1090  0.4313  0.1368
 2133W        W22413   8.794  11.935  13.816 -0.0291 -0.1445  0.0299
 2134W        W22414   6.622  17.883  10.412 -0.3063  0.0142 -0.0276
 2135W        W22415  13.212  10.986  12.386 -0.0227 -0.1017 -0.0605
 2136W        W22416   7.413  18.569   3.121  0.0842  0.0356  0.2180
 2137W        W22417  19.155  14.828  13.109 -0.0298 -0.0877  0.1572
 2138W        W22418   0.880   6.989  10.930  0.0792  0.0028  0.1500
 2139W        W22419   2.775   8.041   0.122 -0.0087  0.1812 -0.1656
 2140W        W22420  18.295  14.539   2.222 -0.1964 -0.2994  0.3722
 2141W        W22421   5.234   2.414  11.229 -0.1612 -0.1408  0.1521
 2142W        W22422   5.306   0.781   3.101  0.2193  0.0830 -0.0590
 2143W        W22423   8.628  12.427  12.430 -0.0721 -0.1639 -0.2397
 2144W        W22424   1.291  16.277   3.844  0.1473 -0.4559  0.1201
 2145W        W22425  12.382  17.555  12.355  0.4586  0.1121 -0.2819
 2146W        W22426  16.861  19.458   0.430 -0.1046 -0.0110 -0.0755
 2147W        W22427  17.102  13.529   1.606  0.3117  0.1336 -0.1975
 2148W        W22428  17.712   7.979  11.221 -0.0802  0.3117  0.1423
 2149W        W22429  14.080   2.967  10.109  0.5663 -0.1083 -0.0875
 2150W        W22430   3.420   4.494   0.883  0.2515 -0.3026  0.1385
 2151W        W22431   2.322   5.273  13.395 -0.2453  0.2145 -0.1256
 2152W        W22432  15.521  17.857  10.899 -0.1762 -0.2407 -0.0393
 2153W        W22433  16.537   9.452   1.374  0.1298  0.1098 -0.1248
 2154W        W22434   4.902   3.995  10.864 -0.2173  0.3020  0.5717
 2155W        W22435  17.628  10.467  11.393 -0.0940 -0.0761 -0.1117
 2156W        W22436  15.975  18.775   2.538 -0.2696 -0.1879 -0.0192
 2157W        W22437  13.463  18.036  13.602 -0.0480  0.1257  0.1827
 2158W        W22438  12.732   2.354   3.081 -0.1044  0.0382 -0.0252
 2159W        W22439   5.165  11.049   1.989 -0.0046  0.0426  0.2467
 2160W        W22440  16.066  18.388   0.539  0.0966 -0.1358  0.1778
 2161W        W22441  13.039   3.454  11.896 -0.0268 -0.2618  0.4646
 2162W        W22442  16.586  11.155  11.547 -0.1241  0.1025  0.0243
 2163W        W22443  15.605   3.310   2.928 -0.3629  0.2665  0.2040
 2164W        W22444  11.696   7.392  12.639  0.0943 -0.0658 -0.2075
 2165W        W22445  15.059   7.932  12.714  0.1901  0.0781 -0.0229
 2166W        W22446  15.773  16.418  13.607 -0.3593  0.1319 -0.3031
 2167W        W22447   8.189  12.116   1.573  0.1919 -0.1031 -0.3361
 2168W        W22448   4.089  12.768  13.592 -0.1328  0.1198  0.1873
 2169W        W22449  15.524  12.719   1.250  0.0009  0.0897 -0.1048
 2170W        W22450  19.721  17.252  11.430 -0.1796  0.1325  0.0718
 2171W        W22451  11.199   9.096  12.377 -0.1953  0.1316  0.3354
 2172W        W22452   3.457   1.245  12.095  0.0035 -0.1538  0.1742
 2173W        W22453   8.857   4.499   0.703  0.0448 -0.2020 -0.0494
 2174W        W22454  14.568   2.201   2.061 -0.2632 -0.0904  0.4816
 2175W        W22455  12.179   8.708  14.035 -0.0974  0.1389  0.2270
 2176W        W22456   8.828  14.527   2.688 -0.2216 -0.2179 -0.0585
 2177W        W22457   9.540  15.861   0.055 -0.1287  0.0455 -0.1990
 2178W        W22458   9.280  14.125  11.821 -0.1040 -0.0778  0.3233
 2179W        W22459   1.221  14.530   1.087 -0.1396  0.0944  0.0104
 2180W        W22460  12.671   3.279  11.027  0.1111 -0.2754  0.3649
 2181W        W22461  18.619  10.572  12.906 -0.0300 -0.0116 -0.4513
 2182W        W22462  18.649  16.923   1.059 -0.1234 -0.1018 -0.0447
 2183W        W22463   6.801   8.811   2.713 -0.0072 -0.0319 -0.1763
 2184W        W22464  13.993  14.725   9.001 -0.0249  0.0282 -0.0127
 2185W        W22465  19.403   6.993   4.020 -0.0913  0.0561  0.4240
 2186W        W22466   4.859  12.948  11.142 -0.0051  0.2740  0.1187
 2187W        W22467   2.015   0.538  11.012 -0.0176  0.2236 -0.0519
 2188W        W22468   5.490  17.964   0.708 -0.0495 -0.3030  0.2803
 2189W        W22469   4.385   0.668   2.631 -0.1784  0.0262 -0.1932
 2190W        W22470   7.168  18.645  11.856 -0.0313  0.2177 -0.0628
 2191W        W22471   2.935   0.512   0.676  0.1444  0.0785 -0.2718
 2192W        W22472  13.426   6.141  13.388 -0.0193  0.1474 -0.0193
 2193W        W22473   7.105  12.269   3.841  0.3492  0.0720  0.2460
 2194W        W22474   3.569   1.952   1.316  0.1355 -0.1582 -0.0090
 2195W        W22475  15.481   3.244  11.391  0.0125  0.2535  0.3662
 2196W        W22476   7.998  19.327  11.629 -0.1276  0.2754  0.1654
 2197W        W22477  19.758  17.622  12.017  0.3859 -0.3889 -0.0816
 2198W        W22478   2.178  12.668   3.081  0.1623  0.0822  0.1316
 2199W        W22479  15.047  18.791  10.831 -0.1335 -0.1818  0.0665
 2200W        W22480   0.154   2.666   3.205  0.0143 -0.0861 -0.5063
 2201W        W22481   8.195  16.447   3.959  0.0569  0.4855 -0.2649
 2202W        W22482   9.133   4.165   1.661  0.2289  0.2984 -0.0861
 2203W        W22483  16.505  17.395   4.547 -0.1561 -0.0699  0.2203
 2204W        W22484  11.679  12.106  14.021 -0.0666  0.1481 -0.1090
 2205W        W22485   7.042  19.547  10.663 -0.4413  0.1693 -0.1879
 2206W        W22486  16.837   8.573  12.148 -0.0211  0.2749 -0.0152
 2207W        W22487   1.307   0.858  11.559  0.5718  0.1007  0.0970
 2208W        W22488   5.993   6.357  13.953  0.3115 -0.2727 -0.2719
 2209W        W22489  13.466   7.518   1.556 -0.2056  0.1604 -0.0568
 2210W        W22490  17.783  11.079   2.817 -0.0805  0.3867 -0.1382
 2211W        W22491   2.393   3.056   3.723 -0.2260  0.2212  0.2487
 2212W        W22492  15.841  17.280   1.522  0.1072 -0.1356 -0.0059
 2213W        W22493   2.394  16.618   0.346 -0.1734  0.0695  0.1800
 2214W        W22494  12.984   7.831   2.701 -0.2103  0.0402 -0.4060
 2215W        W22495  14.231  10.053   1.478 -0.0782  0.1538  0.0046
 2216W        W22496  12.046   7.283  13.943  0.2288 -0.1700 -0.2115
 2217W        W22497   6.017  19.728  10.788  0.0445  0.0809 -0.2569
 2218W        W22498   0.882   0.933  10.763  0.2691 -0.3536  0.2696
 2219W        W22499  13.846  18.339   2.795  0.0934  0.0943  0.1751
 2220W        W22500  14.829   0.100  10.979  0.0268 -0.2146  0.1945
 2221W        W22501   6.888   1.893  12.115  0.5361  0.2073  0.0149
 2222W        W22502   5.653   9.193  12.574 -0.1426  0.0125 -0.2665
 2223W        W22503   2.716  11.657   4.283 -0.0321 -0.2553  0.1135
 2224W        W22504   8.054  10.739   4.576 -0.0135 -0.2412 -0.2561
 2225W        W22505  14.163   6.683  12.709  0.0319  0.2261  0.0080
 2226W        W22506   4.413  16.440  12.771  0.0234  0.0244  0.4816
 2227W        W22507  19.671   6.962   1.552  0.1533 -0.0723  0.4659
 2228W        W22508   9.897  10.302   3.699  0.3200 -0.0831 -0.1175
 2229W        W22509   7.181   0.143   0.834 -0.0509  0.1312  0.2262
 2230W        W22510   7.699   7.118  13.961  0.0654  0.0329  0.4925
 2231W        W22511  13.033   5.136   2.391 -0.0336 -0.0387  0.3464
 2232W        W22512  10.084  11.858   9.315 -0.2073  0.3816 -0.1004
 2233W        W22513  16.613  17.313  12.606 -0.0961 -0.0489 -0.1754
 2234W        W22514   0.550   3.131  13.477  0.2481  0.0256  0.2382
 2235W        W22515  16.961  13.779   3.183  0.2267  0.2139 -0.4166
 2236W        W22516   3.391   5.932   2.824 -0.1240 -0.0208  0.1569
 2237W        W22517   0.961  18.017  11.764  0.1332  0.2443  0.0412
 2238W        W22518  11.612   2.467  13.019 -0.3927  0.2140 -0.0031
 2239W        W22519   4.698  16.473   1.957 -0.4521  0.0872  0.1578
 2240W        W22520   2.698  15.558  11.102  0.3688 -0.0626 -0.0505
 2241W        W22521   3.553  14.573  12.323  0.2835  0.0066 -0.2206
 2242W        W22522   3.966   2.546   1.441 -0.2606 -0.2500  0.0749
 2243W        W22523   7.025   9.410  12.825  0.1153  0.0944 -0.1189
 2244W        W22524   7.969  12.508   3.938 -0.1250  0.2820 -0.1086
 2245W        W22525  19.229  16.375   0.232  0.0402  0.1353  0.0002
 2246W        W22526  14.198   9.458  12.456 -0.0612  0.0585  0.3150
 2247W        W22527   1.129  18.387   1.611  0.0118 -0.1735 -0.1011
 2248W        W22528  10.184   7.312   1.849 -0.0926  0.4315  0.1955
 2249W        W22529   2.671  17.091   0.182  0.0447 -0.1079  0.1101
 2250W        W22530  16.817   1.676   3.980 -0.1015 -0.0972 -0.1984
 2251W        W22531   0.751   1.917   2.941 -0.3554 -0.1888 -0.0923
 2252W        W22532  10.666   2.995  12.466 -0.0078 -0.1516 -0.1250
 2253W        W22533  17.208  13.165  10.863 -0.2001  0.1846 -0.2049
 2254W        W22534  10.142  12.004   2.667 -0.2370  0.0199 -0.0545
 2255W        W22535   2.866   2.468   1.844  0.1903 -0.0776  0.3257
 2256W        W22536   5.418   2.442  13.850 -0.0326  0.0924  0.1819
 2257W        W22537   2.002  13.044   2.129  0.0629 -0.0387 -0.0908
 2258W        W22538   6.403  11.085  11.198 -0.0785 -0.1196 -0.1742
 2259W        W22539   1.622   3.579   1.654 -0.0908 -0.2240  0.2860
 2260W        W22540  18.709  11.093   0.005  0.0729 -0.1134 -0.1655
 2261W        W22541   8.983   3.779  10.619 -0.0169 -0.0121  0.2028
 2262W        W22542   1.950   3.639  10.721 -0.1241 -0.1420  0.2580
 2263W        W22543  17.251  18.824  11.782  0.2793  0.1244 -0.0307
 2264W        W22544   9.309  16.635  11.268  0.1687 -0.2709  0.1553
 2265W        W22545   5.340   0.741   1.368 -0.0987 -0.0462 -0.0711
 2266W        W22546   2.944   4.466  10.009 -0.0051  0.0889 -0.2620
 2267W        W22547   7.813   8.364  13.738  0.1846 -0.0942  0.0989
 2268W        W22548   8.333  11.794  14.034 -0.0798 -0.0761 -0.0305
 2269W        W22549   8.656   9.686  11.148  0.1726  0.1129 -0.2131
 2270W        W22550  11.474   4.687   1.929  0.1732 -0.2743  0.2050
 2271W        W22551  11.786  14.015   0.193  0.3169 -0.2249  0.1736
 2272W        W22552  13.919   5.215  12.716 -0.0099  0.1354  0.1307
 2273W        W22553  18.987  12.511   2.551 -0.2022  0.3964  0.2814
 2274W        W22554  11.844   6.274   3.573 -0.0700  0.1072 -0.2196
 2275W        W22555   5.388  12.813  14.065  0.1104  0.1838 -0.0010
 2276W        W22556   4.151   5.676   0.308  0.0957 -0.0509 -0.1914
 2277W        W22557  13.948   7.001   3.568  0.0026  0.2743 -0.1959
 2278W        W22558   7.090   9.033  13.971  0.3044 -0.0139  0.2808
 2279W        W22559  18.449  18.568   0.359 -0.1087 -0.2781 -0.0851
 2280W        W22560   6.861  12.160   0.418 -0.1096 -0.0553 -0.0712
 2281W        W22561   0.248   8.424   0.297 -0.1158  0.2124  0.0527
 2282W        W22562   9.915  17.773   0.188  0.1392 -0.4448  0.1705
 2283W        W22563   7.894   6.809   3.971 -0.1047  0.3648  0.0905
 2284W        W22564  15.794   2.225   2.650  0.3246  0.0357  0.1038
 2285W        W22565  11.174  10.854  14.083  0.2717 -0.0305  0.1060
 2286W        W22566   8.425   8.768  13.413 -0.1162  0.2684 -0.0122
 2287W        W22567   7.832   4.503   2.352  0.0502 -0.1444 -0.3348
 2288W        W22568  10.992   6.322   0.839 -0.1388  0.2793 -0.2437
 2289W        W22569   4.095   4.474  13.370 -0.2572 -0.1128  0.0288
 2290W        W22570   0.762   2.468   2.108  0.0703  0.0093 -0.0147
 2291W        W22571   3.442  17.795  11.056 -0.0942 -0.1404  0.0459
 2292W        W22572   9.407  18.428  12.706 -0.0237 -0.2811  0.5210
 2293W        W22573   0.331   5.017  10.400 -0.2001 -0.1193 -0.0406
 2294W        W22574  18.619   1.257   2.022  0.0895 -0.2724 -0.1482
 2295W        W22575   6.700   9.809  11.749  0.0584 -0.0312 -0.0409
 2296W        W22576  10.280  12.539  12.350 -0.1189 -0.1350  0.0548
 2297W        W22577   8.793   6.370  13.233 -0.0511  0.1643  0.0489
 2298W        W22578   9.759   5.648   3.562  0.0289 -0.0096  0.2196
 2299W        W22579  11.694  11.592   0.190 -0.1758  0.2680  0.2038
 2300W        W22580   1.107  10.728   1.738  0.2033  0.1094  0.1398
 2301W        W22581  15.426  13.956  13.816 -0.1852 -0.1592 -0.1283
 2302W        W22582   5.657   5.778   1.487 -0.0754 -0.1031 -0.0593
 2303W        W22583  11.861  11.565   0.657 -0.0620  0.0239  0.1845
 2304W        W22584   9.234  11.914   2.458  0.1393  0.1896  0.2441
 2305W        W22585  14.560  12.797   3.045  0.1103  0.0495 -0.0193
 2306W        W22586  11.866   8.689  13.076 -0.1386 -0.0182 -0.0464
 2307W        W22587  17.368   6.640  12.153  0.1373 -0.0992  0.2568
 2308W        W22588   4.665   5.279   2.466  0.0162 -0.1106 -0.2206
 2309W        W22589  15.945  12.215   2.994 -0.0029  0.3682 -0.0805
 2310W        W22590   2.831  11.922  10.558 -0.2124 -0.1911  0.2363
 2311W        W22591   2.105  16.719   0.721  0.0156  0.1218 -0.1716
 2312W        W22592  18.386   3.027   1.675  0.1705 -0.2315 -0.0730
 2313W        W22593   6.003  18.193   3.481  0.1554 -0.0137  0.3724
 2314W        W22594   5.208   1.907   1.052 -0.0071  0.0855  0.0284
 2315W        W22595   3.589  17.914   3.521 -0.0098  0.2051 -0.3696
 2316W        W22596  19.098  16.978  10.731 -0.0599  0.1162  0.0613
 2317W        W22597   2.132  19.151  10.211  0.1162 -0.3506 -0.4630
 2318W        W22598  10.307   0.294   2.254  0.1472  0.1430 -0.0097
 2319W        W22599   3.980   7.267   3.404  0.0529 -0.1265  0.0212
 2320W        W22600   0.009  14.501   2.862  0.2093  0.0025  0.0383
 2321W        W22601   5.473  11.251  11.693  0.3590  0.0236  0.0670
 2322W        W22602  18.032  15.479   1.229 -0.3345 -0.2279  0.0412
 2323W        W22603  11.752   4.682  12.525  0.1098  0.0747  0.1949
 2324W        W22604  14.739  16.865   3.424  0.0519 -0.0386 -0.3078
 2325W        W22605  13.089   8.461   1.375 -0.0758  0.2084  0.0007
 2326W        W22606   4.790  12.283   2.246 -0.0968 -0.3422  0.3244
 2327W        W22607  13.222   4.590   2.443 -0.0584  0.2412  0.1590
 2328W        W22608   6.791  14.771  13.923 -0.1556 -0.0666  0.0702
 2329W        W22609   1.648  18.521  13.204 -0.1682 -0.2261 -0.2368
 2330W        W22610   9.283   6.321  13.936 -0.0208  0.0256  0.0560
 2331W        W22611  14.504   6.955  13.313  0.0855  0.0567  0.0778
 2332W        W22612  10.439   5.289   2.917 -0.0216  0.3736 -0.1866
 2333W        W22613   7.833   0.790   4.146  0.3509  0.0365  0.3513
 2334W        W22614   0.284   4.680   1.120  0.0117 -0.2515 -0.1247
 2335W        W22615   9.166   1.989   1.005  0.0749  0.4513 -0.2112
 2336W        W22616  16.864  15.635  10.027 -0.2083  0.2213 -0.3092
 2337W        W22617   8.728   4.910  14.065  0.0674  0.0770 -0.1724
 2338W        W22618   3.476   6.240   1.043 -0.2192 -0.0351  0.2998
 2339W        W22619  19.317  17.819  11.953 -0.1053  0.2125 -0.4080
 2340W        W22620   1.332  13.286  11.353  0.3811 -0.2565  0.0175
 2341W        W22621   8.457   3.226   3.408 -0.4398  0.0829  0.1312
 2342W        W22622   0.560   8.135  11.126 -0.0876  0.0716 -0.1410
 2343W        W22623  19.508  14.233   3.274  0.0243 -0.1387 -0.3514
 2344W        W22624  18.633   7.770   0.985  0.0403  0.3527  0.3118
 2345W        W22625  11.573   2.848   2.064  0.1343 -0.2401 -0.1492
 2346W        W22626   1.974   8.801  11.909 -0.1567  0.0488 -0.0536
 2347W        W22627  15.539  16.826   3.253  0.2510  0.0599  0.3966
 2348W        W22628  18.178  12.574  10.690 -0.0595  0.1801  0.1698
 2349W        W22629   9.533  10.621   3.274  0.2553  0.0240  0.1772
 2350W        W22630   0.639  13.067   0.950  0.0896  0.0479 -0.2300
 2351W        W22631   6.894   7.404   1.242 -0.0891  0.2115  0.1879
 2352W        W22632  14.736  16.680  12.716 -0.1659  0.0568 -0.0210
 2353W        W22633  19.616   9.279   1.820 -0.0096 -0.1270  0.0459
 2354W        W22634  17.293  16.590  12.454  0.0328 -0.3202 -0.0976
 2355W        W22635   0.421   9.685  13.742 -0.1031  0.0696  0.1103
 2356W        W22636   9.409  13.960  10.764 -0.2362  0.0314 -0.2188
 2357W        W22637   1.500  10.957   4.275  0.0625  0.0632 -0.1348
 2358W        W22638  14.376  14.527  11.312 -0.2893 -0.2273  0.0451
 2359W        W22639  19.694  16.423  13.448  0.1398  0.0452  0.1383
 2360W        W22640   7.535   9.705  10.793  0.2548  0.1997  0.1894
 2361W        W22641   5.474  15.807   3.118  0.0133 -0.3943 -0.2640
 2362W        W22642  10.225  13.368  11.048  0.1268  0.1162 -0.0612
 2363W        W22643  16.081   3.049  10.848  0.0545 -0.0663 -0.1226
 2364W        W22644   7.107  14.629   0.568 -0.1428 -0.1294  0.1564
 2365W        W22645   9.006   6.233  10.652  0.1055  0.0566  0.2052
 2366W        W22646   9.230  16.435   2.203  0.0140 -0.3080  0.0982
 2367W        W22647   7.706   1.736   9.916 -0.2018  0.1424 -0.2561
 2368W        W22648   0.551   0.610  13.240  0.1905  0.0789  0.1712
 2369W        W22649   9.686  17.115   3.412 -0.0427 -0.2014 -0.0610
 2370W        W22650   0.868  17.849  13.335  0.1048 -0.0716  0.0631
 2371W        W22651   4.493  11.500  13.505 -0.3343  0.1967 -0.3252
 2372W        W22652   5.160   4.768   0.618  0.4204  0.2282  0.0234
 2373W        W22653   3.228  11.301   3.291 -0.0551  0.0706 -0.0202
 2374W        W22654  10.857  12.266   0.295 -0.4826  0.1153  0.2370
 2375W        W22655   4.223   5.566   3.167  0.2972 -0.2648  0.1884
 2376W        W22656   5.083  11.013  13.851  0.0177  0.2871 -0.3120
 2377W        W22657  16.290  19.326  13.806 -0.1520 -0.1065 -0.2333
 2378W        W22658  15.470  18.803   0.612  0.3528 -0.1363 -0.1938
 2379W        W22659   2.565   6.692  11.266  0.0510  0.0690  0.0179
 2380W        W22660  16.765   5.150   0.606 -0.0194  0.3337 -0.0320
 2381W        W22661   3.780   0.077  13.114 -0.0158 -0.0845  0.0280
 2382W        W22662   5.657   0.922   0.435  0.1377 -0.1417  0.0816
 2383W        W22663  19.663  19.233  12.681  0.0851  0.2068 -0.0151
 2384W        W22664  13.786  15.093  10.741  0.2281 -0.2996  0.0568
 2385W        W22665  17.056   8.132   9.698  0.4106 -0.1234  0.0045
 2386W        W22666   5.480   1.552  10.463 -0.2068  0.1061  0.0287
 2387W        W22667   5.787  14.074   1.116  0.0468 -0.2842  0.1839
 2388W        W22668  14.808  12.257   3.843 -0.0669  0.1610  0.2160
 2389W        W22669   8.744  17.640   1.803  0.2891 -0.1490 -0.0948
 2390W        W22670   2.311   7.876  12.374 -0.0033  0.0987  0.2173
 2391W        W22671   8.793   5.702   0.846  0.1775 -0.3160  0.0578
 2392W        W22672  14.245   3.328  11.418  0.2136  0.0815 -0.0891
 2393W        W22673  17.408   2.234  13.852  0.3345  0.2689  0.1625
 2394W        W22674   7.270  13.197   2.040  0.1555 -0.1815 -0.2526
 2395W        W22675   4.672   8.752   2.256  0.2786 -0.1849 -0.0816
 2396W        W22676  18.882  18.820  10.514 -0.0189 -0.1718  0.1571
 2397W        W22677   4.026   1.999  10.746 -0.1805  0.0030  0.4942
 2398W        W22678  12.744  17.290   3.342  0.0186  0.0540  0.0497
 2399W        W22679  16.011  19.772  13.733 -0.0972 -0.1560  0.1394
 2400W        W22680  14.640   5.383   3.342 -0.1786  0.1146  0.3531
 2401W        W22681   7.743  16.200  11.420 -0.2709  0.0777  0.1146
 2402W        W22682   5.912   2.315  12.429  0.0326 -0.1670  0.0387
 2403W        W22683  13.660   8.032  13.902 -0.1556 -0.1217 -0.2611
 2404W        W22684  16.160  19.466  13.337 -0.0437 -0.1358 -0.0022
 2405W        W22685  14.615  12.342  12.952 -0.2287 -0.0829  0.2297
 2406W        W22686   4.929  15.225   0.787 -0.0293 -0.1469 -0.3757
 2407W        W22687  12.123  19.013  13.069  0.0773 -0.5420  0.0464
 2408W        W22688   6.485   7.560   0.880  0.1695  0.0988  0.0413
 2409W        W22689   0.755   8.005   2.028 -0.0627 -0.1407 -0.0166
 2410W        W22690   3.929  19.010  12.553 -0.2318  0.1252  0.0105
 2411W        W22691  14.691  19.366   1.935 -0.2228  0.1485 -0.1950
 2412W        W22692   5.667  14.866  13.759  0.3414 -0.0620 -0.1207
 2413W        W22693  15.074   7.623  12.228 -0.0685  0.0717 -0.1210
 2414W        W22694  16.705   4.884   4.569  0.0136  0.1074 -0.2385
 2415W        W22695  12.736   1.301   2.741 -0.1590 -0.1159  0.0117
 2416W        W22696   2.869  17.505   1.727  0.2694 -0.1509  0.2798
 2417W        W22697  12.830   7.634   0.175 -0.2419 -0.3011 -0.2476
 2418W        W22698  10.719   8.799  10.820 -0.0470 -0.0582 -0.1284
 2419W        W22699   4.319  19.684   0.137  0.1151 -0.2021 -0.1081
 2420W        W22700  12.599   0.708   2.694 -0.3013 -0.1878  0.0109
 2421W        W22701  11.323  12.426   0.070 -0.0375 -0.0521  0.0950
 2422W        W22702   1.195   2.166  10.872  0.1508  0.0204 -0.2796
 2423W        W22703   4.773   1.381   4.093  0.3517  0.0544  0.0786
 2424W        W22704  19.189  17.305   4.999 -0.1193 -0.0285 -0.0135
 2425W        W22705  11.980   8.228  11.235 -0.1336 -0.1181  0.1902
 2426W        W22706  17.656   2.752  12.458  0.1865  0.1523 -0.2771
 2427W        W22707  15.548   4.926   0.171  0.2909 -0.1349  0.1580
 2428W        W22708   3.686  13.444  13.719  0.1934 -0.2866 -0.3582
 2429W        W22709  19.515   1.255  13.506  0.0920 -0.3427 -0.0272
 2430W        W22710   2.905  18.235   2.338 -0.2053  0.1435  0.0556
 2431W        W22711   8.950   8.932   1.081 -0.2282 -0.0166  0.1334
 2432W        W22712  17.985   2.017   0.351  0.0707 -0.0760  0.2070
 2433W        W22713  16.964  16.865   0.464 -0.2055  0.0447 -0.2592
 2434W        W22714  15.885   1.968   2.203  0.0218 -0.1692  0.1054
 2435W        W22715  18.578   5.637   1.115 -0.3270 -0.2656 -0.0509
 2436W        W22716   7.284   1.669   1.816 -0.1838 -0.0578 -0.0201
 2437W        W22717   5.722   2.450   0.370  0.2072  0.2790 -0.0698
 2438W        W22718  16.627   6.472  11.626  0.3245  0.1264  0.1869
 2439W        W22719   9.079   9.966   9.938  0.0786  0.1144 -0.0181
 2440W        W22720  17.276  12.459  10.889  0.0318  0.0398  0.3675
 2441W        W22721   9.658  12.884   2.713  0.1539 -0.0415 -0.0396
 2442W        W22722   5.302  11.350   0.073  0.1622 -0.0037  0.2433
 2443W        W22723  15.736   3.911   2.183 -0.1661 -0.0891 -0.0103
 2444W        W22724  17.449  15.739  12.133  0.1127 -0.0432 -0.0176
 2445W        W22725  10.556   9.679  13.989 -0.2366 -0.0226  0.1632
 2446W        W22726   4.815  17.231   3.123 -0.0151 -0.0112 -0.0726
 2447W        W22727   6.208  18.399  11.628 -0.2954 -0.0316  0.1567
 2448W        W22728  14.368  16.994   2.420 -0.1112  0.1367 -0.2364
 2449W        W22729   9.814   4.869  12.042  0.0365 -0.1062  0.0934
 2450W        W22730  16.476  12.956   1.129  0.0388  0.0955 -0.1685
 2451W        W22731   5.974  10.164   4.326 -0.0804 -0.2251 -0.1502
 2452W        W22732   2.729   1.746  11.942 -0.0751 -0.3468  0.0622
 2453W        W22733   8.465  19.347  11.542 -0.0196  0.1350  0.2455
 2454W        W22734  12.269  11.215   0.390  0.2270  0.1903  0.0076
 2455W        W22735   6.785   7.503  11.012 -0.0970 -0.2016  0.3346
 2456W        W22736   1.377  17.319  13.749  0.3078 -0.0426 -0.1540
 2457W        W22737  13.319   1.910  11.583  0.0080  0.2977 -0.0961
 2458W        W22738  14.230   7.382   1.003 -0.1771  0.4144 -0.0707
 2459W        W22739  12.719  15.606   2.758  0.0021 -0.0026  0.1673
 2460W        W22740   6.899   6.882  13.370 -0.3873 -0.1227  0.1927
 2461W        W22741  15.165  16.845   3.628  0.2120 -0.1157  0.1837
 2462W        W22742  18.404   1.636   2.962  0.0412  0.0339 -0.1172
 2463W        W22743  18.946   8.753   1.557  0.1019 -0.1288 -0.1472
 2464W        W22744  19.401  18.443  12.460 -0.0503  0.2497 -0.1196
 2465W        W22745   8.554   6.056   4.179  0.0468 -0.0529 -0.3305
 2466W        W22746   5.834   0.830   2.244  0.0216  0.1154  0.1165
 2467W        W22747   4.363   1.760  11.058 -0.3361 -0.0615  0.3351
 2468W        W22748  16.008  11.726  12.860  0.0374  0.2188 -0.1215
 2469W        W22749   9.540   7.928   2.237 -0.2269  0.0260  0.0768
 2470W        W22750  16.787  19.720  10.646  0.0224 -0.4254 -0.0945
 2471W        W22751   6.809   5.458   2.584  0.3369  0.1041  0.2935
 2472W        W22752   7.342   8.680   4.610  0.0352  0.0733 -0.1297
 2473W        W22753   1.246  15.466  13.718 -0.1188  0.0766  0.0330
 2474W        W22754   3.075  16.580   3.731  0.2035 -0.0063  0.0292
 2475W        W22755   0.569  12.759   4.440 -0.3681 -0.0854 -0.1745
 2476W        W22756  12.556  19.089   2.165 -0.0607 -0.3834 -0.2662
 2477W        W22757  18.073   7.366   0.881  0.1734 -0.1166  0.0464
 2478W        W22758   0.387   6.034  11.757 -0.3524 -0.0488 -0.1226
 2479W        W22759   8.174   3.108   0.230 -0.0984 -0.0875 -0.1019
 2480W        W22760   8.960   0.414   2.455 -0.0287  0.1321  0.0290
 2481W        W22761  16.209  12.011   3.498 -0.0239 -0.0753 -0.1017
 2482W        W22762  13.763   8.638  12.815  0.0075  0.3326  0.2760
 2483W        W22763   3.656  12.474  10.411 -0.1224 -0.0176 -0.0483
 2484W        W22764  10.002   4.841  12.903  0.2147  0.2075  0.1139
 2485W        W22765  14.178  19.338   1.796  0.0097  0.1363 -0.1022
 2486W        W22766  16.684  18.225  11.527  0.0998 -0.2499  0.1428
 2487W        W22767  19.675   5.039   2.942 -0.0137  0.1066  0.1267
 2488W        W22768  17.812  14.869  10.549 -0.0329  0.0657 -0.0624
 2489W        W22769   6.543  18.667  11.283 -0.0375 -0.2015 -0.0254
 2490W        W22770   0.891   7.486   3.145 -0.1338  0.3187  0.0390
 2491W        W22771   8.656   5.435  13.219 -0.0906  0.0649 -0.0829
 2492W        W22772   1.192   3.847  10.311 -0.2439  0.2087  0.1266
 2493W        W22773   3.452  11.806  10.863 -0.1416 -0.1179 -0.0222
 2494W        W22774  14.351   4.395  11.905 -0.1651  0.0837  0.0392
 2495W        W22775   1.666   4.769  11.243  0.0717 -0.1345  0.1555
 2496W        W22776   3.602   1.111  13.685 -0.3014  0.0485  0.0592
 2497W        W22777   9.137  16.788   9.931 -0.0975 -0.1415  0.0707
 2498W        W22778   6.063   7.175   2.241 -0.2439  0.0054 -0.0855
 2499W        W22779   9.318   2.620   3.432 -0.2261  0.0756 -0.0093
 2500W        W22780   4.412   1.008   3.406  0.0960  0.4708  0.0582
 2501W        W22781  19.394  16.966  10.222  0.3645  0.0206  0.1403
 2502W        W22782   4.006  13.902  13.857  0.0166  0.2689  0.1680
 2503W        W22783  15.036   8.329  13.970 -0.3375  0.2955  0.0457
 2504W        W22784  17.982  16.161   3.624  0.0447 -0.1677 -0.0992
 2505W        W22785  11.804   8.615  13.584  0.2304  0.0191  0.0148
 2506W        W22786   6.714   9.189   1.464  0.1184  0.0192 -0.3419
 2507W        W22787  19.249  12.327  12.347  0.0192 -0.1509  0.2629
 2508W        W22788  19.306  18.972   1.095  0.1684 -0.0124  0.0641
 2509W        W22789   4.616  14.553   3.903 -0.1364 -0.2469 -0.1161
 2510W        W22790   1.063  19.730   0.250 -0.0447  0.1510  0.1091
 2511W        W22791   6.332  10.715   2.636 -0.3043 -0.0622  0.0061
 2512W        W22792  12.476   3.882   2.479 -0.1152  0.1166  0.0882
 2513W        W22793  13.484   8.472  12.403  0.0026 -0.0839  0.2005
 2514W        W22794   5.984   8.087  11.813  0.1634 -0.1372  0.3156
 2515W        W22795  18.675   8.285   2.867  0.0026  0.3538 -0.3072
 2516W        W22796  18.962   5.609   3.021 -0.0377 -0.2610 -0.1647
 2517W        W22797  19.358  10.281  12.348 -0.0779 -0.2158 -0.1917
 2518W        W22798   4.047   5.874  11.806 -0.1686  0.0324 -0.1666
 2519W        W22799  12.396  11.079   1.480 -0.2453 -0.0575  0.2193
 2520W        W22800  16.504  13.931   1.017 -0.1202  0.2048  0.0708
 2521W        W22801  19.178  10.347   3.616 -0.2914 -0.3886  0.3058
 2522W        W22802   7.641  10.456   3.124 -0.1639 -0.1323 -0.2730
 2523W        W22803   0.420   9.435  10.508  0.3305  0.0145  0.1102
 2524W        W22804  11.760  18.813  10.755  0.2509  0.0309 -0.1279
 2525W        W22805   0.066  17.420  10.986 -0.3202 -0.1815 -0.2393
 2526W        W22806  12.802  14.569  10.715 -0.1977  0.1317 -0.2859
 2527W        W22807  18.292   6.157   1.062 -0.0189 -0.0595  0.0169
 2528W        W22808  12.121   7.158   1.735 -0.2160 -0.0648  0.3029
 2529W        W22809   1.146   4.465  11.609  0.4102  0.0145 -0.1021
 2530W        W22810   2.505  12.435   0.497 -0.0669 -0.0328  0.0477
 2531W        W22811   7.873   4.659   1.885 -0.2239 -0.0144  0.0175
 2532W        W22812   9.622  13.574   9.603 -0.0212  0.0546 -0.1183
 2533W        W22813   1.044   7.842   4.056 -0.2261  0.1476  0.0190
 2534W        W22814   7.294   6.454  12.721 -0.0286  0.0752 -0.2561
 2535W        W22815  19.563   1.103   0.095  0.1667  0.3241  0.1877
 2536W        W22816   4.691   7.949   2.712 -0.0886  0.0996 -0.0489
 2537W        W22817  19.485  14.561   2.494 -0.0438 -0.1114 -0.0135
 2538W        W22818   6.476   0.837  11.123 -0.2415 -0.4043 -0.1114
 2539W        W22819  12.596  10.708   3.340 -0.1939  0.0624 -0.1114
 2540W        W22820   0.326  19.254   1.765  0.1950  0.2263 -0.1482
 2541W        W22821  17.803  15.247  12.920  0.1799  0.3513  0.0652
 2542W        W22822   4.657  18.701   2.280  0.0992  0.0176  0.1903
 2543W        W22823   8.228   4.236  10.627  0.1257 -0.0397  0.3087
 2544W        W22824  10.777  17.604   0.097 -0.1868 -0.0448 -0.0164
 2545W        W22825  11.009   0.181   9.256  0.0601  0.0882 -0.2301
 2546W        W22826   6.391   9.687   2.459 -0.2030  0.1817 -0.1234
 2547W        W22827  19.720  14.969   2.156  0.1853 -0.2000  0.1932
 2548W        W22828  17.317  12.856  12.194 -0.0185 -0.0137 -0.1195
 2549W        W22829   3.372   6.830  10.661 -0.1055  0.3187 -0.2678
 2550W        W22830  19.178   3.221   0.982  0.1337  0.0360 -0.2663
 2551W        W22831   7.714  14.461  12.807 -0.0597  0.1131 -0.2190
 2552W        W22832   2.079   8.859   3.200 -0.0925 -0.2104 -0.0868
 2553W        W22833   7.741  16.103   1.537 -0.0458  0.4451 -0.1302
 2554W        W22834   3.481   7.906  13.384 -0.1587 -0.5577  0.3020
 2555W        W22835  19.742   2.710   4.696 -0.1191 -0.0346  0.2979
 2556W        W22836  13.139   0.070   3.386 -0.1135  0.0361 -0.2668
 2557W        W22837  18.671  12.041  11.469 -0.0665 -0.3123  0.4709
 2558W        W22838  16.628   7.218  11.226  0.2172 -0.0561  0.0044
 2559W        W22839  12.482  12.494   3.723  0.4162 -0.3134 -0.2584
 2560W        W22840   0.525  19.266   1.330 -0.1040 -0.2469 -0.1100
 2561W        W22841   0.382  16.548  13.255  0.1502 -0.0118  0.0556
 2562W        W22842   5.870   7.991   1.143 -0.1798  0.2900  0.0628
 2563W        W22843  11.939   7.607  10.716  0.0132  0.4585 -0.1272
 2564W        W22844  10.884  12.748   3.971  0.0333 -0.3810  0.1777
 2565W        W22845  12.811   4.440   3.550  0.0536  0.3379 -0.1970
 2566W        W22846   4.372  11.305   3.745  0.1057  0.0989  0.1880
 2567W        W22847  18.902  17.531   4.663 -0.1205 -0.0604 -0.2201
 2568W        W22848   6.829  18.089   0.390 -0.1740 -0.0230 -0.0487
 2569W        W22849  15.300  18.013   3.206 -0.0031 -0.2811  0.5157
 2570W        W22850  10.460   1.725   2.369  0.4029  0.0868 -0.3076
 2571W        W22851   0.097   5.516   3.329 -0.1160 -0.0377  0.0655
 2572W        W22852  14.644   4.874   2.245 -0.0469 -0.3169  0.1118
 2573W        W22853   5.297  15.263   2.001  0.1256  0.2334 -0.2119
 2574W        W22854  13.120  14.448  12.221 -0.0060  0.5386  0.1523
 2575W        W22855  18.783  10.503  10.806 -0.5043  0.0496 -0.0563
 2576W        W22856  12.580   7.916  13.988 -0.2021  0.1307  0.1811
 2577W        W22857   2.120  17.887  14.034 -0.1134  0.1768 -0.2122
 2578W        W22858  14.542   7.696   1.284  0.2760  0.1278 -0.1232
 2579W        W22859  18.758  11.424   0.352  0.2208 -0.3030  0.0381
 2580W        W22860   5.378  12.098   2.820  0.2165 -0.0134  0.0049
 2581W        W22861   7.626   6.227  12.415  0.0388  0.4668  0.1392
 2582W        W22862  17.412  14.733   0.659  0.2257 -0.0268 -0.1053
 2583W        W22863  18.651  15.687   1.850 -0.1101  0.1838 -0.1383
 2584W        W22864   7.823  16.206   3.713  0.0626  0.0263  0.3153
 2585W        W22865  11.613   9.388   3.432 -0.0959 -0.4631 -0.3325
 2586W        W22866  18.184  13.426   0.194  0.1968  0.0460 -0.0219
 2587W        W22867   4.172   5.474   0.757  0.0010 -0.2227 -0.2313
 2588W        W22868   9.721   3.358   9.170 -0.0499 -0.3641 -0.2981
 2589W        W22869   7.234  14.226   4.693  0.0170 -0.0432 -0.2211
 2590W        W22870  14.087  13.956   1.955  0.1423 -0.2095  0.0956
 2591W        W22871  10.676  19.482   1.170  0.1408 -0.4812 -0.2777
 2592W        W22872  12.345   1.455   1.200 -0.0902 -0.1143 -0.3866
 2593W        W22873  13.313   7.571   3.392  0.0483 -0.0874  0.2017
 2594W        W22874   6.345  17.653  10.090 -0.3337  0.0218  0.0307
 2595W        W22875  10.789  16.907  11.206 -0.1726 -0.2623 -0.0362
 2596W        W22876   9.425   0.784  12.621 -0.3531  0.2195  0.1257
 2597W        W22877   0.562   8.803  13.312  0.0224  0.1844  0.1277
 2598W        W22878  18.767   0.512   3.760  0.1699 -0.0998 -0.1341
 2599W        W22879  11.439  16.182   2.777  0.0984  0.0437  0.4089
 2600W        W22880  11.538   3.838   3.740 -0.1777 -0.1247 -0.2600
 2601W        W22881   7.720  13.490  14.013  0.0656  0.1676 -0.1968
 2602W        W22882   1.486   2.539   2.962 -0.1670 -0.0533 -0.1728
 2603W        W22883   8.184  15.194   2.547 -0.2778 -0.0441  0.0167
 2604W        W22884  11.685   4.998  11.631  0.5327  0.0343 -0.1823
 2605W        W22885  16.638  17.537   3.915 -0.3321  0.0211  0.3119
 2606W        W22886  13.721   4.604  13.647 -0.3510 -0.2495 -0.0217
 2607W        W22887   8.104  19.503  13.967  0.1084 -0.1515 -0.2699
 2608W        W22888  14.564  16.131   2.738  0.1229  0.0870 -0.0446
 2609W        W22889  10.998   7.625   2.030 -0.1567  0.1675  0.2567
 2610W        W22890   5.829   2.851  12.451  0.2513  0.0227 -0.0845
 2611W        W22891  14.219   3.567   3.475  0.2770  0.0717 -0.0201
 2612W        W22892  17.979  11.802   2.241  0.0930 -0.4701 -0.1608
 2613W        W22893  18.205   6.750   1.962  0.0975 -0.1353 -0.2163
 2614W        W22894   8.016  10.548  12.760 -0.0742  0.2904 -0.3628
 2615W        W22895   0.702  11.057  12.562  0.2448 -0.0220  0.0128
 2616W        W22896   9.102   7.977  13.434  0.0878  0.1439  0.2541
 2617W        W22897  15.655   8.819  11.603  0.0272  0.0987  0.1242
 2618W        W22898   1.386  17.840  11.583 -0.2144 -0.4121 -0.1055
 2619W        W22899  13.423   0.383  13.070  0.0960 -0.1275  0.1177
 2620W        W22900   2.131   6.587   0.343  0.4238  0.2225 -0.2596
 2621W        W22901   4.866   5.605  12.723 -0.0141 -0.1400 -0.0042
 2622W        W22902  15.482  16.649   9.356 -0.1406 -0.2200 -0.0080
 2623W        W22903   6.583  17.317  12.499  0.0574 -0.2788  0.2979
 2624W        W22904   3.126   8.060   4.269 -0.0223 -0.0933 -0.0279
 2625W        W22905   1.144  10.263  12.340 -0.1720  0.1326 -0.0177
 2626W        W22906   3.862   3.411   2.833  0.2943 -0.2559 -0.1555
 2627W        W22907  15.270  15.208   1.124 -0.1453 -0.0052 -0.0244
 2628W        W22908  13.564   6.413   0.735 -0.0581 -0.1075  0.0139
 2629W        W22909  17.682   4.394  11.657  0.0097 -0.1762 -0.2538
 2630W        W22910   4.880   1.501  13.268 -0.0750  0.0412 -0.1737
 2631W        W22911  17.497   2.804   0.036 -0.0224  0.0023 -0.2976
 2632W        W22912  14.590   0.841   1.187  0.0353  0.1137 -0.0961
 2633W        W22913  14.854  10.905   9.466 -0.0410  0.0381  0.0494
 2634W        W22914   0.699   2.793   0.844 -0.2028 -0.1831  0.1029
 2635W        W22915   1.412  11.936   0.030  0.2296 -0.2271 -0.0533
 2636W        W22916   0.646   5.059   4.188  0.0090 -0.3503 -0.0681
 2637W        W22917   1.043  11.244   1.619 -0.1074 -0.1786 -0.2567
 2638W        W22918  13.400  14.908   5.177  0.0064  0.3998 -0.0127
 2639W        W22919  12.279   7.331  11.770  0.0724 -0.1464 -0.0089
 2640W        W22920  12.378  10.894   1.958  0.0116 -0.0583  0.1272
 2641W        W22921  12.316   4.718   1.528 -0.1479  0.0848 -0.1614
 2642W        W22922  13.451  14.301   1.369 -0.4267  0.2623  0.0569
 2643W        W22923   1.800  10.600   2.996  0.2797 -0.0912  0.0204
 2644W        W22924   6.588  10.651   1.178 -0.1421  0.1037  0.2171
 2645W        W22925  13.810  18.324  11.252 -0.1851 -0.2343  0.0964
 2646W        W22926   4.267  18.816   3.557 -0.4492  0.0274  0.0444
 2647W        W22927   0.709  14.594   2.197 -0.0581  0.4519  0.0716
 2648W        W22928   3.976   4.730   2.974  0.0887  0.1777  0.1289
 2649W        W22929  14.103  11.013  12.526  0.2316 -0.2385  0.0442
 2650W        W22930  17.772  10.638   1.421  0.2104  0.2506 -0.0382
 2651W        W22931   6.757   3.854   0.714 -0.0106 -0.0195 -0.0149
 2652W        W22932   1.893   6.876   3.282 -0.0692 -0.2817 -0.1405
 2653W        W22933  11.681   6.242   2.160 -0.0475  0.1683 -0.3523
 2654W        W22934  18.222   3.245  11.371  0.0472 -0.0515 -0.0407
 2655W        W22935  11.218  11.046   1.080 -0.0301  0.1912  0.0935
 2656W        W22936  16.809   2.833   1.729 -0.0247  0.1727 -0.0144
 2657W        W22937   1.498  16.068   0.235 -0.3264  0.0363 -0.0959
 2658W        W22938   3.805   9.998   2.809  0.2680 -0.0417  0.1731
 2659W        W22939   1.098  19.235  10.338  0.3828  0.3731  0.0606
 2660W        W22940  14.756   5.783  10.551 -0.1645  0.2909  0.0915
 2661W        W22941   6.672   6.268   0.064  0.1510  0.2928  0.2234
 2662W        W22942  13.335  13.346  13.498  0.3040  0.1235 -0.0072
 2663W        W22943   4.855  17.175   0.860 -0.1664  0.0420  0.1392
 2664W        W22944  11.596   3.390  12.560  0.1299  0.2306  0.0861
 2665W        W22945   0.867  18.731  10.518  0.1857 -0.1902  0.3061
 2666W        W22946  19.683  15.411  10.690  0.0112 -0.0141  0.1477
 2667W        W22947  19.425   1.318   2.629 -0.2457  0.2205 -0.2265
 2668W        W22948  17.417  17.900  13.885  0.0316  0.0240  0.0576
 2669W        W22949  13.187   2.548  10.390 -0.1442  0.0994 -0.1247
 2670W        W22950  12.459   8.452  13.527 -0.1159  0.3292  0.1580
 2671W        W22951  13.636   1.275   2.493 -0.3305  0.2885 -0.0375
 2672W        W22952   6.570  10.608  10.207  0.0391 -0.4019  0.4137
 2673W        W22953   9.891  14.964   2.557 -0.0992 -0.0095  0.2990
 2674W        W22954   1.668  17.445   1.211  0.0153  0.2507 -0.1850
 2675W        W22955  10.445   1.003   0.001  0.0222  0.1770 -0.0188
 2676W        W22956  12.100   0.302   3.554  0.0673 -0.0545  0.2350
 2677W        W22957  13.560  12.406   1.971  0.1670 -0.0641  0.1194
 2678W        W22958   8.073   7.612   3.748 -0.2644 -0.1092 -0.4124
 2679W        W22959  12.903   9.016   3.376 -0.1009 -0.3528 -0.1792
 2680W        W22960   8.742  14.037  11.913  0.2491  0.1525  0.0515
 2681W        W22961  10.240   4.729   1.050  0.1594 -0.1291  0.0240
 2682W        W22962   7.772   8.812   1.746 -0.1730 -0.0218 -0.1221
 2683W        W22963   0.517  10.820  13.031  0.0817 -0.2979  0.3401
 2684W        W22964   2.900  13.333  12.212  0.0196  0.0573 -0.3436
 2685W        W22965   4.758  11.017   3.123 -0.0740  0.1556 -0.2144
 2686W        W22966  18.911  19.172   0.190  0.1197  0.1206 -0.0636
 2687W        W22967   4.068   9.830   1.395  0.1102  0.0623  0.0388
 2688W        W22968  11.991   6.317  12.554 -0.0772 -0.1298  0.2512
 2689W        W22969   7.888   3.542  11.241 -0.0927 -0.3773  0.1568
 2690W        W22970   0.001  17.589  12.568 -0.0872 -0.2543 -0.0048
 2691W        W22971  11.489   8.353   2.430  0.1100  0.1198  0.0070
 2692W        W22972   7.706   7.288   3.715  0.0608  0.3876 -0.1264
 2693W        W22973   2.970  19.740   3.155 -0.1538 -0.3854  0.0806
 2694W        W22974  17.454   9.766   3.165  0.0341  0.2097 -0.0684
 2695W        W22975  15.158  18.650   2.871  0.0691  0.0828 -0.0439
 2696W        W22976   2.384   0.798  13.608  0.4131 -0.2470 -0.1079
 2697W        W22977   9.353  13.676   1.656  0.1540 -0.0675 -0.0044
 2698W        W22978  16.258   6.050  12.806 -0.1666  0.2455 -0.4003
 2699W        W22979  13.844  13.184   2.628 -0.3253 -0.0119  0.0747
 2700W        W22980  15.641   3.763  11.413  0.1480 -0.0107 -0.1380
 2701W        W22981   1.417   7.862   1.205  0.0616  0.0230 -0.4174
 2702W        W22982  12.149   9.764  12.927  0.1374 -0.3171  0.0752
 2703W        W22983   6.642  12.768   9.889 -0.2812 -0.1137 -0.4399
 2704W        W22984   4.390  13.654  11.133  0.0952 -0.3405  0.0270
 2705W        W22985   2.233  15.308  10.266  0.3288  0.0370  0.2542
 2706W        W22986   1.344  13.668   2.483  0.1892 -0.2271  0.0352
 2707W        W22987  19.581  13.874   4.198 -0.5151 -0.0923 -0.2820
 2708W        W22988  19.270   0.270   1.492  0.0485  0.2915  0.0280
 2709W        W22989   1.119  12.140   0.457  0.0334 -0.0888 -0.0129
 2710W        W22990   3.791   4.909   0.730  0.3529 -0.2418 -0.1240
 2711W        W22991   8.756  11.686   2.671  0.1259 -0.1339 -0.0633
 2712W        W22992   0.887   7.332   1.683  0.3024 -0.2652 -0.2521
 2713W        W22993  13.903  17.843   2.599 -0.2564  0.1503 -0.2142
 2714W        W22994   2.144  12.597  12.387 -0.2738 -0.1316 -0.0880
 2715W        W22995   9.397   2.978  12.880  0.3605 -0.0763 -0.3576
 2716W        W22996   2.772   4.634  12.753 -0.0953 -0.3450 -0.0248
 2717W        W22997  15.429  14.198  10.489 -0.3366  0.0824 -0.1200
 2718W        W22998   7.226  12.143   2.032  0.1361  0.0544 -0.4666
 2719W        W22999  13.306  12.909  10.000  0.3942  0.0712 -0.2517
 2720W        W23000  15.068  19.685   1.056  0.1516 -0.0761 -0.2117
 2721W        W23001  12.364  13.963   2.696  0.0969 -0.1614 -0.2138
 2722W        W23002   3.255  11.434   1.129 -0.1345 -0.3682 -0.1955
 2723W        W23003  18.945   0.710   2.771 -0.2806  0.1350 -0.1385
 2724W        W23004  13.804   1.673   1.303  0.0245 -0.0710  0.2708
 2725W        W23005   0.156  17.408  10.234 -0.0455  0.1632 -0.1026
 2726W        W23006  12.499  18.086  11.656  0.1040  0.3133 -0.0775
 2727W        W23007   8.323  17.317   3.620  0.2614 -0.0892  0.0835
 2728W        W23008   4.327   3.598   0.873 -0.0165  0.0850 -0.1110
 2729W        W23009  14.027  18.410   1.301 -0.0934  0.0457 -0.0112
 2730W        W23010   0.414  18.742  11.435 -0.2372  0.1135 -0.3269
 2731W        W23011  13.886  11.347  10.739  0.0690 -0.3593 -0.0120
 2732W        W23012  13.108  19.461   3.032 -0.4007 -0.0333  0.1021
 2733W        W23013  14.443   8.168   2.257 -0.0555 -0.0782  0.1364
 2734W        W23014   4.277  11.767   1.104  0.0167  0.0092  0.0256
 2735W        W23015   7.907  14.502  11.311 -0.2533  0.0084 -0.1758
 2736W        W23016  10.798   4.983  12.003 -0.1166 -0.2327 -0.2401
 2737W        W23017  12.804   7.750  13.542  0.2797  0.0627  0.1241
 2738W        W23018   1.620   6.521   9.905 -0.1149 -0.0459  0.0156
 2739W        W23019   3.969  15.265  10.986 -0.0469 -0.2056 -0.3186
 2740W        W23020   5.290   9.261  11.166 -0.0704 -0.2022 -0.0865
 2741W        W23021   7.783   2.392   3.176 -0.0428 -0.1892  0.2060
 2742W        W23022   2.334  15.431  12.373 -0.0682  0.1328 -0.1085
 2743W        W23023   7.858  13.812  10.640  0.1349 -0.1696 -0.1109
 2744W        W23024  16.083   3.136  11.945  0.0387 -0.3044 -0.0554
 2745W        W23025   6.133   0.467  12.378  0.1331 -0.0516 -0.0064
 2746W        W23026  17.607  10.640   3.063  0.1132 -0.0968 -0.3732
 2747W        W23027  16.627  12.862   1.593 -0.2872 -0.1458  0.1595
 2748W        W23028   4.957  12.460  12.059 -0.0236 -0.0406  0.1263
 2749W        W23029   9.748   4.466  13.067  0.3200  0.1038 -0.3612
 2750W        W23030  11.162   8.059   3.092  0.0753  0.1683 -0.2166
 2751W        W23031  10.503   6.338   0.225 -0.1983  0.0835  0.1847
 2752W        W23032  16.616  10.978  12.926  0.0332 -0.2011  0.0356
 2753W        W23033  14.003  13.163   3.957 -0.0614  0.1914 -0.1060
 2754W        W23034  18.322  17.835   1.460 -0.2351 -0.2147 -0.1500
 2755W        W23035   5.090   4.870   1.697 -0.1752 -0.2169  0.1505
 2756W        W23036   3.861   2.446  10.468  0.0027 -0.2208  0.2627
 2757W        W23037  15.069   8.564  10.774 -0.0160 -0.2742 -0.1881
 2758W        W23038  18.482   4.013  12.676 -0.2567 -0.5275 -0.1220
 2759W        W23039  16.750  11.726   4.217  0.2537  0.0072 -0.0954
 2760W        W23040  18.739  13.369  10.512 -0.1060 -0.2206 -0.1997
 2761W        W23041  18.468  13.038   1.597 -0.2091 -0.0180 -0.4921
 2762W        W23042   7.235  15.668   3.237 -0.2697  0.3381  0.0512
 2763W        W23043   8.265   7.857  13.099  0.5589  0.0626  0.0499
 2764W        W23044  10.149  15.509  13.297 -0.0143 -0.6142  0.0318
 2765W        W23045  11.258   3.884  11.767  0.0146  0.0534 -0.1844
 2766W        W23046   1.979  19.040  11.687  0.1082 -0.0808  0.1029
 2767W        W23047   6.880   2.745  13.444 -0.2105  0.2303  0.0709
 2768W        W23048   9.171  16.307  12.841 -0.2356  0.1090 -0.1854
 2769W        W23049  19.402   1.638  12.841  0.0281 -0.0819 -0.1249
 2770W        W23050  18.500   5.687  13.686 -0.1496 -0.0662  0.1102
 2771W        W23051   8.879   9.005   3.084 -0.1657 -0.4739 -0.1464
 2772W        W23052   4.134   5.116   9.556 -0.1713 -0.0598 -0.0050
 2773W        W23053  11.496  16.056  13.875 -0.3294  0.2470  0.1046
 2774W        W23054  14.148  14.528  13.108 -0.1489 -0.0261  0.0392
 2775W        W23055   5.647   8.348   3.294 -0.0640  0.0594  0.0714
 2776W        W23056   7.516   7.373   2.938  0.0567  0.0727  0.2998
 2777W        W23057  16.622   7.521   2.821 -0.1819 -0.0978 -0.0791
 2778W        W23058  18.753   4.233  10.714  0.1863  0.4470  0.0215
 2779W        W23059  19.732   2.036   0.198 -0.3218  0.1717 -0.1239
 2780W        W23060  16.500  12.449   1.134  0.1478  0.0753 -0.2496
 2781W        W23061   7.268   6.834   1.032 -0.0310 -0.2831  0.0874
 2782W        W23062   5.477  10.192  11.548 -0.1180  0.1110 -0.0243
 2783W        W23063  10.744   2.109  13.243 -0.2611  0.0590  0.1821
 2784W        W23064  13.049  13.516  11.985  0.2482  0.2101 -0.0080
 2785W        W23065   1.800   5.666  13.266 -0.2026  0.4924  0.0687
 2786W        W23066   1.357  16.741   3.420  0.1801  0.2487  0.0203
 2787W        W23067  18.954  12.113  11.979  0.3058  0.2008  0.0138
 2788W        W23068   8.540   4.931   3.343 -0.1672 -0.0142  0.0366
 2789W        W23069  11.374   5.243  12.057  0.1616  0.0020  0.1466
 2790W        W23070  12.726  17.900  12.090  0.2120 -0.2051 -0.0124
 2791W        W23071   8.045   3.305   1.233  0.4209  0.1103 -0.0132
 2792W        W23072   0.177  11.629  12.819 -0.0873 -0.0840  0.1653
 2793W        W23073  15.613   1.596  10.470 -0.0168 -0.2955  0.1199
 2794W        W23074   1.004  11.820   1.406 -0.3420 -0.0870  0.0179
 2795W        W23075  19.321   3.756  12.744 -0.0906 -0.1453 -0.2901
 2796W        W23076   7.396   2.879  12.413  0.0787 -0.2882  0.0273
 2797W        W23077   6.816   7.177   0.192 -0.0284  0.0504 -0.0892
 2798W        W23078  12.458  17.078   0.996 -0.1759 -0.2724  0.3962
 2799W        W23079   4.512  18.778   3.112 -0.2030  0.1358  0.1496
 2800W        W23080   8.595  16.314   3.557 -0.2442  0.4182 -0.0753
 2801W        W23081   5.149   9.216  12.553 -0.0035 -0.1631 -0.0477
 2802W        W23082  17.885  14.534   1.311 -0.3629 -0.2078  0.0909
 2803W        W23083  12.497   3.621   1.140 -0.0306 -0.1162  0.1464
 2804W        W23084   6.540  12.671  13.207 -0.0224 -0.0053  0.2840
 2805W        W23085  10.252  15.742  12.784  0.2726 -0.1337 -0.1203
 2806W        W23086   7.013  16.960  10.515 -0.1997  0.0941  0.0981
 2807W        W23087  15.382   3.523   2.228  0.4315  0.0619  0.0537
 2808W        W23088   6.596   1.363   2.271  0.1942  0.5133  0.3320
 2809W        W23089  17.787   6.704   0.226  0.1194  0.0525  0.3535
 2810W        W23090   2.226  11.486  12.326 -0.2503  0.1130  0.1897
 2811W        W23091  11.871  14.760  11.694  0.1962 -0.0020 -0.0255
 2812W        W23092   9.460  17.338   9.165  0.0279  0.2798 -0.5100
 2813W        W23093   1.532   1.156   2.431  0.2035  0.2420 -0.0716
 2814W        W23094  12.807  18.799  10.223 -0.1930 -0.2710  0.1064
 2815W        W23095   5.919   0.638   1.289 -0.4630 -0.2440  0.0274
 2816W        W23096  18.030  13.270   3.839  0.0985 -0.1804  0.1669
 2817W        W23097  19.557   2.901   0.266  0.2393 -0.1054  0.1677
 2818W        W23098   4.301  17.658  12.842 -0.1336  0.1681 -0.0457
 2819W        W23099  17.479  16.713   8.841  0.3150  0.4683  0.1085
 2820W        W23100   5.776   1.686  13.958 -0.1578 -0.3665 -0.0660
 2821W        W23101  17.479   1.836   2.577 -0.0333  0.2455 -0.1513
 2822W        W23102  10.934  18.246   2.956  0.3117  0.0538  0.1060
 2823W        W23103  11.177  18.499   2.619  0.0160 -0.0675  0.1375
 2824W        W23104   6.363  10.128  12.653 -0.3041 -0.1411 -0.1550
 2825W        W23105  13.702  13.823  11.970  0.2353 -0.1863 -0.2032
 2826W        W23106  15.811   1.262   0.043  0.3306  0.1457 -0.1640
 2827W        W23107  16.724   5.589   2.726  0.5928 -0.1898 -0.3923
 2828W        W23108  11.507  15.313   4.788  0.1032  0.0401  0.1392
 2829W        W23109   5.820  11.954   3.059 -0.1374  0.2943 -0.3133
 2830W        W23110   2.879  15.765   0.311 -0.0064 -0.2043  0.1977
 2831W        W23111  19.233  11.803  13.885  0.0051 -0.0310 -0.1346
 2832W        W23112   0.940  18.630   9.707 -0.3544  0.2253 -0.0050
 2833W        W23113  14.048   8.042   1.868  0.1704 -0.0641 -0.0002
 2834W        W23114   2.871   1.620   1.850 -0.0193  0.2647 -0.0483
 2835W        W23115  19.702  14.996   2.698 -0.1605 -0.0455 -0.0965
 2836W        W23116  14.365   3.925   0.512 -0.0064  0.0435 -0.3098
 2837W        W23117  12.928  15.871   1.010 -0.1228 -0.0464 -0.2629
 2838W        W23118   0.574   6.661  13.920  0.0050  0.3784 -0.0400
 2839W        W23119   2.205   3.465   0.505 -0.1265 -0.1432 -0.1820
 2840W        W23120   8.478   5.887   3.320  0.0278  0.0981 -0.1755
 2841W        W23121   8.608  11.382  11.701  0.2096 -0.4058  0.3065
 2842W        W23122   7.950   0.606  10.018 -0.3099 -0.0783  0.0714
 2843W        W23123  19.462   6.600  10.838  0.0518  0.2297  0.1424
 2844W        W23124   1.546   3.764  12.156 -0.1139  0.0220 -0.2437
 2845W        W23125   0.628   2.005  10.258 -0.1445  0.2402 -0.1351
 2846W        W23126  13.937   0.069   1.941  0.1019 -0.3530  0.0648
 2847W        W23127  19.207  14.192   2.030  0.2132  0.0952 -0.2205
 2848W        W23128   6.573   3.137  13.283 -0.0522 -0.1447  0.0170
 2849W        W23129   9.878  10.185   0.048  0.2035  0.2407 -0.2719
 2850W        W23130   5.997   7.736  12.269  0.1428 -0.3076  0.0440
 2851W        W23131  18.902   8.814   3.712 -0.0934 -0.1102  0.2383
 2852W        W23132  15.732   6.052  11.548  0.1397 -0.0201  0.0751
 2853W        W23133  13.669   1.003  13.725 -0.0504 -0.0337  0.0198
 2854W        W23134   7.875  12.469   1.428 -0.2384  0.0022 -0.0931
 2855W        W23135   3.755  16.714   1.524  0.4130  0.1542 -0.1273
 2856W        W23136   6.401  10.090   1.355 -0.1050 -0.0745 -0.1835
 2857W        W23137   8.866  17.274  13.694  0.1244  0.1991  0.0413
 2858W        W23138  14.390   4.484  10.311 -0.0862  0.0700  0.1499
 2859W        W23139   0.054   0.241   1.654 -0.4306 -0.3597  0.2640
 2860W        W23140  14.363  16.233  13.905 -0.0133  0.0415 -0.0043
 2861W        W23141  15.761   0.144  12.539  0.0855 -0.3528  0.0957
 2862W        W23142  18.605  16.806  10.718  0.1397 -0.0959 -0.0898
 2863W        W23143  13.498   8.822   1.651 -0.0306 -0.0561 -0.1220
 2864W        W23144  15.156  15.893  12.774  0.0611 -0.1039 -0.2974
 2865W        W23145   3.470   0.709  10.759  0.4351  0.0293 -0.0073
 2866W        W23146  12.493   1.691  13.451 -0.0278  0.1876  0.0319
 2867W        W23147  14.826   0.126   3.794  0.4186 -0.1074  0.1763
 2868W        W23148   1.566   1.301  13.797  0.0549  0.0361 -0.0108
 2869W        W23149  17.904   1.154  10.855 -0.2202 -0.1509 -0.1564
 2870W        W23150  13.558  18.342  12.166 -0.1981 -0.1639 -0.2573
 2871W        W23151   1.034  17.159   3.921  0.0444 -0.1283  0.1656
 2872W        W23152   1.758   0.822  12.436 -0.2951 -0.0181 -0.1968
 2873W        W23153  12.004  16.164  12.797 -0.0962 -0.3819  0.0472
 2874W        W23154  11.102   0.047   2.716  0.1794 -0.1531 -0.0406
 2875W        W23155  17.525   6.734   1.353 -0.0412 -0.0597  0.2740
 2876W        W23156  17.696   6.384  11.857  0.0474  0.0913 -0.2764
 2877W        W23157   4.245   8.754  12.753  0.0448 -0.1660  0.1362
 2878W        W23158  16.136   0.311  12.126 -0.0336  0.2211 -0.0960
 2879W        W23159   8.643   5.077   1.854  0.1795  0.3072  0.1962
 2880W        W23160  17.137   7.362  13.731  0.0996  0.1642  0.0446
 2881W        W23161   7.306   0.934  13.732  0.0761 -0.1048  0.3201
 2882W        W23162   6.039   3.554   3.688  0.3886 -0.1296 -0.1786
 2883W        W23163   5.406  17.931  12.079  0.0115  0.2691 -0.0822
 2884W        W23164   5.426   3.728   3.745  0.0775  0.5939  0.2177
 2885W        W23165  15.848   3.345   2.141 -0.1664 -0.0365 -0.0487
 2886W        W23166   3.187  15.497  11.350 -0.0658 -0.3628  0.0283
 2887W        W23167   3.252   9.519   0.217 -0.0877 -0.1021 -0.3784
 2888W        W23168  19.296  16.990  11.466  0.0232 -0.1730  0.2477
 2889W        W23169  13.548   9.018   2.977 -0.3981 -0.0654 -0.0053
 2890W        W23170   0.300   2.465   0.338 -0.0557  0.4913  0.1719
 2891W        W23171   8.086  10.310  12.374  0.2637  0.1770 -0.0037
 2892W        W23172   7.450  18.284  12.093 -0.2410  0.6377 -0.3882
 2893W        W23173   5.298   2.842  13.467 -0.0013 -0.0637  0.0448
 2894W        W23174   2.634  13.202   1.489  0.2567  0.2049  0.1454
 2895W        W23175   3.881   7.163  11.949 -0.0476 -0.2016 -0.0400
 2896W        W23176  15.568   8.431  10.735 -0.1865 -0.1664 -0.0058
 2897W        W23177  16.044  14.542   4.211  0.0012  0.0205  0.1374
 2898W        W23178  16.508  10.395   0.509 -0.3034 -0.3804  0.2614
 2899W        W23179  13.816  11.331  13.442  0.2681 -0.1179 -0.1745
 2900W        W23180  16.225   5.645  11.851 -0.0058  0.1412 -0.1320
 2901W        W23181  13.610  17.870  11.953  0.1713  0.4683 -0.2961
 2902W        W23182   2.690  11.911   3.835  0.2688  0.0425  0.2019
 2903W        W23183  10.594   3.014  11.633 -0.2770 -0.2627  0.0782
 2904W        W23184  11.606  18.321  11.467  0.0387  0.2361 -0.1918
 2905W        W23185   5.908  16.069   3.196  0.1221 -0.3751  0.0502
 2906W        W23186   1.177  13.091   1.145 -0.0364  0.2119  0.3999
 2907W        W23187   9.534   7.997   4.463 -0.0097 -0.1527  0.2749
 2908W        W23188   2.331  16.874  10.551  0.2261 -0.0056  0.1900
 2909W        W23189  10.818  15.553   1.884  0.2528  0.0597  0.0723
 2910W        W23190   9.873   7.718   4.088  0.1670  0.0513  0.0028
 2911W        W23191  13.807  11.055  10.326  0.2751 -0.2960 -0.0834
 2912W        W23192  18.195  12.817   3.012 -0.0320  0.3726 -0.4135
 2913W        W23193  11.503  13.832   3.975  0.1403  0.0208 -0.0092
 2914W        W23194   6.612   1.286   0.250 -0.1942  0.0545 -0.2319
 2915W        W23195   0.616   5.912  13.984 -0.3737  0.2594 -0.3945
 2916W        W23196   9.571   3.054   0.298 -0.1086 -0.0699 -0.0115
 2917W        W23197   6.693   7.180  11.853  0.2878 -0.0065 -0.0123
 2918W        W23198   9.541  10.133   0.880 -0.0594  0.2974  0.2158
 2919W        W23199  17.292   0.294  12.355 -0.0353  0.3816 -0.0899
 2920W        W23200   0.407  12.772   3.334 -0.0187 -0.0125 -0.1920
 2921W        W23201  10.846   4.152   0.697  0.1665  0.2712  0.0812
 2922W        W23202   4.551   7.588  13.194 -0.0883  0.0481 -0.3382
 2923W        W23203   6.910  12.613  10.650  0.1832 -0.1126 -0.2876
 2924W        W23204   8.542   7.837   1.785 -0.3009 -0.0983  0.2275
 2925W        W23205  14.474  14.078   1.306  0.1960 -0.0280 -0.2119
 2926W        W23206   0.416  11.534   0.292 -0.0897  0.0279 -0.2037
 2927W        W23207   7.758  15.035  13.438 -0.1328  0.0460 -0.2002
 2928W        W23208  17.878  17.903  10.740 -0.0408 -0.1684  0.0990
 2929W        W23209  15.952   4.671  12.949  0.1736  0.0545 -0.3956
 2930W        W23210  16.119  11.725   3.128  0.3340 -0.3383 -0.2728
 2931W        W23211  15.114   1.070  13.798  0.1789  0.0349  0.0471
 2932W        W23212  17.123  15.190   0.860 -0.1041  0.2319 -0.0852
 2933W        W23213   0.553   2.501   3.568 -0.0758 -0.1650  0.0931
 2934W        W23214  14.161  12.089   1.536 -0.0349 -0.1180 -0.1388
 2935W        W23215  12.038   5.312  10.629  0.2858 -0.0232  0.2229
 2936W        W23216  10.464   3.442   1.396 -0.1726 -0.4914  0.0115
 2937W        W23217  19.353  19.507  13.711 -0.2054  0.0839  0.0759
 2938W        W23218   1.895  11.165  13.129 -0.1952  0.0399 -0.1843
 2939W        W23219  19.418   7.902   2.194 -0.4635 -0.1041  0.2180
 2940W        W23220   9.096   9.848   1.611 -0.1936 -0.3391 -0.2182
 2941W        W23221  13.289  11.819   2.739  0.5351 -0.0902 -0.1674
 2942W        W23222   2.479   4.419  11.808 -0.0536  0.1253  0.0334
 2943W        W23223  17.984  13.822   2.388  0.2003  0.5410 -0.0863
 2944W        W23224  17.500  14.166  10.967 -0.0239 -0.0377  0.2304
 2945W        W23225   2.725   2.289  13.351 -0.4163 -0.1538  0.0365
 2946W        W23226  13.324  16.100   0.839 -0.1464 -0.2674  0.0223
 2947W        W23227  17.728  17.748   1.606  0.1656  0.2903  0.0135
 2948W        W23228   2.035   4.953  13.188 -0.2834  0.2983  0.3612
 2949W        W23229   9.889   0.098   2.490 -0.1166  0.5505  0.0808
 2950W        W23230   0.092  19.209  12.141 -0.0804  0.2588 -0.2034
 2951W        W23231  14.175   8.478  11.725  0.1026  0.0485 -0.0528
 2952W        W23232   9.903   3.002  14.025 -0.2009 -0.1615  0.1934
 2953W        W23233   7.691  11.698   0.434 -0.1729 -0.2183 -0.3441
 2954W        W23234   7.821  15.194   2.956 -0.0751 -0.0465  0.2712
 2955W        W23235   4.199   1.417   3.213 -0.2213 -0.3308  0.1584
 2956W        W23236  12.298  15.387   1.071 -0.1273  0.0557  0.1765
 2957W        W23237  15.966  12.439   2.484 -0.2602 -0.2592 -0.0247
 2958W        W23238   5.944   3.394   2.472  0.0218  0.1424  0.0968
 2959W        W23239  16.530  18.657   3.373 -0.0780 -0.1326  0.3308
 2960W        W23240   7.019   6.085   1.768  0.0017 -0.2834  0.1763
 2961W        W23241  19.648  17.572  14.097  0.0580 -0.1666 -0.0148
 2962W        W23242   8.733   9.229  13.098  0.2030 -0.0271  0.2770
 2963W        W23243   9.312  11.127   3.407 -0.0714  0.0758  0.1153
 2964W        W23244   0.929   1.948   0.452 -0.0982 -0.0096  0.3713
 2965W        W23245   1.798   9.922   2.243  0.1505  0.0062 -0.1380
 2966W        W23246   5.244  16.243  13.709 -0.0253 -0.0643  0.1239
 2967W        W23247   5.674   3.403   0.649  0.1764  0.1828  0.2148
 2968W        W23248   6.017   5.015   0.286  0.2725  0.3374  0.3154
 2969W        W23249  10.561  12.530   1.269 -0.0576  0.0628 -0.0551
 2970W        W23250  11.817  19.706  10.898 -0.0681 -0.0473  0.0993
 2971W        W23251   1.541  17.802  12.946  0.0422 -0.0587  0.1019
 2972W        W23252  18.934   7.017  12.402 -0.1208 -0.1765  0.1437
 2973W        W23253   3.518   5.004  11.822  0.1478  0.0837 -0.0844
 2974W        W23254  17.032  15.288  10.379  0.1020  0.0534 -0.1238
 2975W        W23255  14.763  16.320   1.813  0.1373  0.3397  0.1571
 2976W        W23256  16.343   0.415  13.659 -0.0648 -0.0424 -0.3321
 2977W        W23257  15.610   4.181   1.615  0.0219 -0.3410  0.0837
 2978W        W23258  18.087   2.864  14.083 -0.4731  0.1418  0.1259
 2979W        W23259   4.868   7.653   4.840 -0.0686 -0.1579 -0.2025
 2980W        W23260  11.959  10.744   0.708  0.2358 -0.1210  0.0381
 2981W        W23261   9.976   5.373   3.196  0.2102 -0.0377 -0.0485
 2982W        W23262  11.311  10.097  14.099  0.2929  0.1044  0.0630
 2983W        W23263   2.551  13.019  11.117 -0.1843 -0.3146 -0.0144
 2984W        W23264   4.043  14.206   4.003 -0.0469 -0.3061 -0.2286
 2985W        W23265  11.526   8.686  12.417 -0.3396  0.2058 -0.2706
 2986W        W23266   4.937   8.816  11.471  0.0137 -0.2522  0.1327
 2987W        W23267  17.442   9.435  13.682  0.1984  0.4266 -0.1052
 2988W        W23268   9.149  18.942  12.593 -0.2914  0.2842 -0.0066
 2989W        W23269   7.071  11.179   3.021  0.0983  0.5950  0.0141
 2990W        W23270   5.355   2.667  11.974 -0.4968  0.2588 -0.1791
 2991W        W23271   5.202   2.768   0.620  0.0683 -0.2162 -0.2270
 2992W        W23272   9.747  19.477  11.019 -0.3946  0.0771 -0.0889
 2993W        W23273   0.895   7.327   4.083  0.1440  0.0542 -0.0810
 2994W        W23274   1.346   5.323  13.367  0.0433  0.0194  0.0123
 2995W        W23275   9.786  13.262   0.158 -0.1145 -0.0639  0.4523
 2996W        W23276   8.137  18.682   2.457 -0.1412  0.2570 -0.2333
 2997W        W23277   2.672  10.226  12.674  0.0155  0.0323 -0.2326
 2998W        W23278  10.064  13.905   2.046 -0.2181  0.3015  0.1322
 2999W        W23279  14.093  19.370  11.530  0.2318  0.0790 -0.0377
 3000W        W23280  11.545  19.217   1.856 -0.0392  0.2752  0.0195
 3001W        W23281  17.417  13.711  13.994 -0.1489 -0.0288 -0.0575
 3002W        W23282   0.842   1.795   1.469  0.0693 -0.2103 -0.0998
 3003W        W23283   3.358   9.103   3.046  0.1735 -0.0164  0.1037
 3004W        W23284   5.601   7.912  14.001  0.1554  0.2147  0.1230
 3005W        W23285   4.772   9.487  10.513  0.0694 -0.0664  0.0853
 3006W        W23286   8.453   4.985   0.929 -0.1563 -0.2467  0.0697
 3007W        W23287  11.990  13.621   4.032 -0.0140  0.4133  0.1574
 3008W        W23288   2.796   7.241   1.280 -0.0762 -0.2484  0.1557
 3009W        W23289   4.058  11.296   0.390 -0.1519 -0.2519  0.0601
 3010W        W23290   0.262  14.412  12.683  0.0226  0.2272 -0.1152
 3011W        W23291  17.875  13.442  13.932 -0.2931  0.1696 -0.2047
 3012W        W23292  12.824  11.241  12.073  0.2813  0.0821 -0.0273
 3013W        W23293   7.772   3.581   2.718 -0.1253 -0.2992 -0.1648
 3014W        W23294  17.137   1.520   1.013 -0.1842 -0.1977  0.2886
 3015W        W23295   7.921   0.146  10.895 -0.2714  0.3034  0.1334
 3016W        W23296  13.361   9.674   0.630  0.0649 -0.2829  0.1786
 3017W        W23297   9.100  13.950   3.543  0.1783 -0.1549  0.0367
 3018W        W23298  17.196   2.032   3.410  0.2357 -0.0625  0.0362
 3019W        W23299   6.799   0.174   2.383 -0.3449  0.1897  0.5158
 3020W        W23300  11.158   5.694  13.330 -0.1503 -0.1571  0.0883
 3021W        W23301  15.077  13.821   0.046  0.2714  0.1642  0.0513
 3022W        W23302  10.249   8.695  11.181  0.0175  0.0434  0.0991
 3023W        W23303   1.948  16.015  13.868  0.1901  0.0273 -0.2729
 3024W        W23304  18.709   6.242   0.374 -0.2094 -0.0314  0.0116
 3025W        W23305   1.035  19.442   3.106  0.0557 -0.4841  0.0894
 3026W        W23306  13.646  13.234   2.043  0.3420  0.1893  0.2938
 3027W        W23307   9.340   0.060  13.828 -0.1626  0.2746 -0.1620
 3028W        W23308  14.965  14.432   0.708 -0.1299  0.0518 -0.1426
 3029W        W23309  13.466  14.017  13.651  0.1623  0.1188 -0.1058
 3030W        W23310  19.252   8.969  11.283 -0.0960 -0.0492 -0.0638
 3031W        W23311   4.578   7.210   3.450 -0.1314  0.2107  0.1420
 3032W        W23312   8.346  17.604   2.689  0.1107 -0.1919  0.0433
 3033W        W23313  15.715   6.391   2.105  0.0313 -0.0146  0.1197
 3034W        W23314   2.180  10.694   0.791  0.1246  0.4213  0.0500
 3035W        W23315   2.348  11.707   2.553  0.1863  0.1200 -0.0097
 3036W        W23316  18.018   8.904  13.328 -0.0407 -0.0530 -0.2801
 3037W        W23317  18.301   1.542  11.337 -0.0720  0.3877 -0.0268
 3038W        W23318   8.894   9.929   2.199 -0.0138  0.1023 -0.3141
 3039W        W23319  11.969   6.926  10.214 -0.2301 -0.0132 -0.2059
 3040W        W23320   1.642  13.943   1.163 -0.1404  0.0647  0.1036
 3041W        W23321  16.533  15.432   2.601  0.0131  0.1236 -0.2618
 3042W        W23322  16.542   2.031   2.914  0.0922  0.0224  0.0115
 3043W        W23323  11.927  11.554  10.938 -0.0083 -0.0495 -0.2125
 3044W        W23324  18.309  12.654   1.116  0.1488  0.0815  0.0261
 3045W        W23325  16.906   4.247   2.046  0.1298 -0.2645 -0.0563
 3046W        W23326  19.490  17.898  12.875 -0.2611 -0.2355  0.2312
 3047W        W23327  13.967   9.407   1.167  0.3650  0.3466 -0.2234
 3048W        W23328  10.355  12.198  12.673 -0.0485 -0.0050 -0.2885
 3049W        W23329   8.955   2.567   1.805 -0.2655 -0.0933  0.2102
 3050W        W23330   1.349   1.529  11.058 -0.2182  0.3408 -0.0255
 3051W        W23331   2.573   4.491   9.585  0.2769 -0.0213 -0.4934
 3052W        W23332   4.036   7.790   3.709  0.0778 -0.1837  0.0799
 3053W        W23333   3.947  17.093   3.781  0.3098 -0.2423 -0.1156
 3054W        W23334   8.307   3.061   0.867 -0.0431  0.2384 -0.1647
 3055W        W23335  19.455   2.331  10.573  0.0989 -0.0461 -0.0216
 3056W        W23336  15.948  15.308  10.394 -0.0568 -0.1305 -0.2321
 3057W        W23337   9.066   7.311   0.722  0.0114 -0.0668  0.0054
 3058W        W23338  13.674   8.344   0.271  0.3773 -0.4391  0.1057
 3059W        W23339   6.387  18.621  13.443 -0.0946 -0.0817 -0.2549
 3060W        W23340  13.469   3.449   4.873 -0.1126  0.2172 -0.0108
 3061W        W23341  16.197   8.654  11.488  0.0260  0.3587 -0.2167
 3062W        W23342   4.116  18.157   9.054 -0.1631  0.4019  0.3095
 3063W        W23343  10.783  17.905  11.178 -0.1149  0.1148 -0.1645
 3064W        W23344   6.025   0.135   2.876 -0.3057  0.3216  0.1227
 3065W        W23345  16.753  12.965   4.796 -0.0821 -0.0641  0.2597
 3066W        W23346  14.371   5.284   2.828 -0.0304  0.4364  0.2205
 3067W        W23347  18.272  10.066   0.242 -0.3363  0.1262 -0.3532
 3068W        W23348  16.025  13.775   3.147 -0.1656 -0.1414  0.1904
 3069W        W23349   5.773   4.459   1.509  0.3239 -0.3792 -0.2718
 3070W        W23350   9.147  12.348   0.347 -0.1546 -0.0347  0.0270
 3071W        W23351  15.760  11.026   2.763 -0.1779 -0.1879  0.1760
 3072W        W23352  15.410  12.844  14.079 -0.4399 -0.3711  0.0666
 3073W        W23353  16.740   1.786   1.885  0.0750  0.0424  0.2842
 3074W        W23354   4.920  18.786  10.712 -0.2261  0.1226  0.0728
 3075W        W23355  15.336   0.394  12.559 -0.2596  0.1062 -0.0076
 3076W        W23356   0.845   4.783   9.662  0.3479  0.1274  0.3333
 3077W        W23357   1.446   2.636   1.492  0.0346  0.0804 -0.0932
 3078W        W23358   6.096  13.000   2.494 -0.1162  0.0242 -0.0487
 3079W        W23359   2.558  13.771   3.953  0.0311 -0.0147  0.0942
 3080W        W23360  16.261  18.258   2.399 -0.0517  0.0970  0.3295
 3081W        W23361   7.492  10.927  11.128  0.1294  0.1890  0.0937
 3082W        W23362   7.150  17.745   0.611 -0.1530  0.0279  0.0724
 3083W        W23363  15.940  17.414  12.722 -0.0826 -0.0520 -0.1852
 3084W        W23364   6.805   8.072  13.865  0.1246  0.2796  0.2717
 3085W        W23365  16.177  15.727   2.349  0.1184  0.1513 -0.0550
 3086W        W23366   3.440   9.591   1.190 -0.1442  0.2587 -0.0780
 3087W        W23367  14.413  19.513  12.300  0.1808 -0.1723 -0.1211
 3088W        W23368  17.810   8.183   2.203 -0.2469 -0.2552 -0.2326
 3089W        W23369  16.164   0.437   2.285  0.2290 -0.0939 -0.4093
 3090W        W23370  18.967   8.777  12.968  0.1927  0.3980  0.3250
 3091W        W23371   5.260  12.838  11.944 -0.1399 -0.0525 -0.3520
 3092W        W23372  15.439  14.200   1.338 -0.0922 -0.2704 -0.1771
 3093W        W23373   0.260  12.609  13.294  0.0877 -0.1501 -0.0057
 3094W        W23374   8.089   2.511   2.770 -0.1680  0.3142  0.0433
 3095W        W23375  16.691   7.204   2.446  0.0325 -0.3516  0.0574
 3096W        W23376  10.034  15.867  13.620  0.2131  0.1298 -0.1218
 3097W        W23377   3.719   8.499   3.774  0.0391  0.2870  0.0875
 3098W        W23378   3.950   6.299   5.306 -0.1433  0.2081 -0.0208
 3099W        W23379   0.260   3.933  13.338 -0.0381 -0.0064  0.1561
 3100W        W23380  10.544   0.443  13.968  0.1275 -0.2286  0.4701
 3101W        W23381   2.085  18.511   1.860 -0.4018  0.0637 -0.2452
 3102W        W23382   3.625   6.379   2.774 -0.0210  0.1500  0.0020
 3103W        W23383  17.705   4.189   1.636 -0.0240 -0.0133 -0.2122
 3104W        W23384  17.581  11.551   1.849  0.1165 -0.2266 -0.0369
 3105W        W23385  15.215   8.840  13.556  0.0269  0.1202  0.2288
 3106W        W23386   8.429  15.211   5.209 -0.0282  0.2119 -0.0077
 3107W        W23387   2.107   1.124  13.810  0.1458 -0.0618  0.4067
 3108W        W23388   1.755  13.837   2.298  0.2657  0.0524  0.1856
 3109W        W23389  10.709   6.753   3.116 -0.0429 -0.2068  0.1548
 3110W        W23390  13.397  18.889   2.856 -0.2546  0.0136 -0.0121
 3111W        W23391   5.548   8.742  12.289 -0.1510 -0.1078 -0.1881
 3112W        W23392  13.291   4.064  10.782  0.0751 -0.2651  0.0115
 3113W        W23393  17.483   4.149  12.542  0.0235 -0.2335 -0.1862
 3114W        W23394   3.573  11.075  11.635  0.2946  0.3274 -0.2556
 3115W        W23395   1.048   3.320   4.055  0.2909  0.0050  0.1654
 3116W        W23396  13.007  14.433   2.720 -0.1716  0.4021  0.0044
 3117W        W23397  15.183  17.010  13.406  0.2002 -0.2899  0.3353
 3118W        W23398   0.196  13.838  11.074 -0.2550 -0.1658 -0.0467
 3119W        W23399   3.584   0.199  10.663  0.0318  0.0358 -0.4156
 3120W        W23400   1.004   2.877  11.411  0.1556  0.0966 -0.1844
 3121W        W23401   0.247   2.703  11.199  0.0094  0.2241 -0.2491
 3122W        W23402   0.215   8.140  13.182  0.1123 -0.1554 -0.3272
 3123W        W23403  13.937  19.372  12.946  0.2411  0.2144  0.2517
 3124W        W23404  17.508  19.127  12.129  0.4274  0.0283  0.0031
 3125W        W23405   5.942   2.573   2.251  0.0845  0.0163 -0.1442
 3126W        W23406  12.559   8.212   2.534 -0.2184  0.1985 -0.1353
 3127W        W23407   6.542  14.609   1.124  0.2137  0.1607 -0.4844
 3128W        W23408   8.190  17.514  11.347 -0.2091  0.5660  0.1162
 3129W        W23409   9.884  10.863   1.306  0.1850  0.0044 -0.2006
 3130W        W23410   8.280   9.239  12.875  0.4546 -0.0507 -0.4544
 3131W        W23411   5.827   4.138  12.425  0.1265  0.2201  0.0639
 3132W        W23412   5.210   1.587  11.597  0.1339 -0.0241 -0.0861
 3133W        W23413  11.294   1.688   2.962  0.1152  0.2035  0.1326
 3134W        W23414   0.324   0.165   3.166  0.1465 -0.1349 -0.3529
 3135W        W23415   5.758  10.900   2.619  0.2831 -0.0883 -0.0519
 3136W        W23416  13.041   8.905  12.306  0.2099  0.2492  0.4269
 3137W        W23417  15.540  16.299   3.184  0.1318  0.0316 -0.1576
 3138W        W23418   2.266  19.127   0.227  0.0952  0.0699  0.0747
 3139W        W23419  13.580   2.995  11.150  0.1009 -0.1653  0.1004
 3140W        W23420   6.306  17.243   2.118  0.1512  0.2431  0.1098
 3141W        W23421  13.713   9.510  13.380  0.1462  0.1268 -0.2734
 3142W        W23422   1.663  15.796   5.157 -0.0006 -0.0091  0.1528
 3143W        W23423  12.502  19.197   0.661  0.1312 -0.3641 -0.2962
 3144W        W23424  10.621   0.339  10.156 -0.1367  0.0996  0.0466
 3145W        W23425   0.039   6.863   3.735 -0.0386 -0.1589  0.2790
 3146W        W23426  12.158  11.859   3.470 -0.0450  0.4355 -0.0571
 3147W        W23427  10.924   9.471  12.663  0.3709 -0.2822  0.0647
 3148W        W23428   7.255  16.002  10.556 -0.2896  0.1009 -0.1302
 3149W        W23429   4.133  14.085  10.262  0.1865 -0.1047  0.1120
 3150W        W23430  13.853   4.006  12.047  0.1759  0.2638 -0.0281
 3151W        W23431  19.714   8.626   0.850  0.1087  0.3624 -0.1356
 3152W        W23432  13.922  16.180  10.782 -0.3830 -0.2526  0.1813
 3153W        W23433  10.327   2.852  12.957  0.1746  0.1058 -0.0630
 3154W        W23434   4.397  19.537   4.778 -0.2046 -0.0384  0.0231
 3155W        W23435   7.251   2.117  13.461 -0.0510 -0.3769  0.0979
 3156W        W23436  15.395   5.447   0.176 -0.1393  0.0070  0.0843
 3157W        W23437   5.278   2.117  11.673 -0.1059 -0.0110  0.0027
 3158W        W23438   8.574  12.820  14.091  0.2230 -0.0200 -0.0921
 3159W        W23439  13.143  16.904   4.083  0.0301 -0.5029  0.1520
 3160W        W23440  12.568   0.728  11.347 -0.1654 -0.2629 -0.3364
 3161W        W23441  17.509  12.291  12.188 -0.2432  0.1359 -0.2744
 3162W        W23442  12.493   5.652   0.497  0.3086 -0.1560 -0.2918
 3163W        W23443   5.051   2.210   0.611  0.0114  0.1382 -0.2851
 3164W        W23444  18.155  17.070  13.894 -0.0352 -0.4276 -0.2948
 3165W        W23445  13.399   1.768   1.681  0.2653  0.1353  0.1398
 3166W        W23446   7.504   7.983  13.957 -0.2315 -0.3649  0.0483
 3167W        W23447  10.734  17.646   1.551  0.0932  0.1423 -0.1014
 3168W        W23448  10.543  15.565  11.232 -0.1535  0.5757 -0.0907
 3169W        W23449  12.799  13.561   1.779 -0.0117 -0.0616 -0.0728
 3170W        W23450   6.110  18.601  10.006  0.0020 -0.0726  0.0318
 3171W        W23451  14.414  13.453   2.252  0.0192  0.0030  0.0392
 3172W        W23452   7.234   7.457   3.769 -0.0393 -0.3102  0.1503
 3173W        W23453  14.307  16.527   0.663  0.2498 -0.0197 -0.0699
 3174W        W23454   8.094   2.032  12.277  0.1394 -0.0825 -0.0036
 3175W        W23455   1.957  17.151  12.805  0.0198 -0.0462 -0.0450
 3176W        W23456  17.372   4.714  13.903  0.1366 -0.2346  0.1336
 3177W        W23457   3.498  16.200   3.752 -0.0355 -0.1264  0.0108
 3178W        W23458   3.012   0.207  10.686 -0.0223 -0.0219 -0.0780
 3179W        W23459   6.365   2.444  13.874 -0.0639  0.0278 -0.1453
 3180W        W23460  19.371   2.229   1.953 -0.1975  0.0043 -0.1547
 3181W        W23461  12.363   0.668   1.830  0.0331  0.1453 -0.0577
 3182W        W23462  12.942   0.708  10.916 -0.1280  0.0823 -0.0778
 3183W        W23463   9.150  13.640   3.131 -0.1720 -0.0276 -0.0491
 3184W        W23464   3.068  15.859   2.086 -0.0560 -0.1645  0.2421
 3185W        W23465  18.760   2.235  13.971 -0.3577 -0.0337 -0.0950
 3186W        W23466  19.389  12.166   2.739  0.0348 -0.1253 -0.1710
 3187W        W23467  16.381  14.188   3.962 -0.0528 -0.2023 -0.1762
 3188W        W23468  14.366  14.843  13.443 -0.0888 -0.2413  0.2507
 3189W        W23469   6.077   6.921  13.854  0.0153  0.0063  0.1141
 3190W        W23470  15.611   3.139   1.531  0.2833 -0.2295  0.1086
 3191W        W23471  15.249  13.720  13.019  0.0577 -0.3142  0.2671
 3192W        W23472  11.691   7.236   2.897  0.2331 -0.0898 -0.2749
 3193W        W23473  11.125   0.747   2.062  0.2764 -0.1092 -0.0134
 3194W        W23474   1.606  15.038   3.530  0.0530  0.2615 -0.3479
 3195W        W23475   8.672  12.464  11.581 -0.0269 -0.1549 -0.1849
 3196W        W23476   3.741   2.487  11.682  0.1322  0.2719  0.1783
 3197W        W23477  17.433   6.601  12.958  0.2658 -0.1083  0.0052
 3198W        W23478   2.324  19.575   1.884  0.0036 -0.0071 -0.0872
 3199W        W23479   7.307  18.373   2.112 -0.3278 -0.0169 -0.0324
 3200W        W23480  14.124   9.983   4.592  0.1359  0.1454  0.1325
 3201W        W23481   7.420  13.028   0.670  0.0959 -0.0138  0.1554
 3202W        W23482   1.147   9.876   2.089 -0.0227 -0.3458 -0.2021
 3203W        W23483   2.275  17.064   1.142 -0.2516  0.1980 -0.1679
 3204W        W23484   0.122   6.158   1.958  0.1143 -0.3131 -0.0915
 3205W        W23485   7.188   6.464   0.154  0.1198  0.2423 -0.2128
 3206W        W23486  13.776  16.554  13.446 -0.0818 -0.2536  0.5082
 3207W        W23487  10.491   7.131   1.100  0.0674  0.1455  0.2348
 3208W        W23488   4.799   0.851  11.279  0.2539  0.1662  0.2197
 3209W        W23489  11.258  14.783   0.302 -0.0169 -0.0032 -0.0640
 3210W        W23490   0.954   5.684  10.350  0.3851  0.0911  0.2383
 3211W        W23491  18.911   9.618  13.896  0.1982 -0.0808 -0.0869
 3212W        W23492   7.633  13.616   2.107  0.0130  0.2738  0.1979
 3213W        W23493  12.840  17.660  11.628  0.0894  0.0308 -0.2245
 3214W        W23494  16.715   5.345  13.249 -0.1302 -0.2850 -0.0174
 3215W        W23495  19.300   9.931  12.875  0.1863  0.0429 -0.3432
 3216W        W23496  16.586   9.843  13.245  0.3057  0.1051  0.0080
 3217W        W23497  10.385   3.914  12.891  0.3762  0.2154  0.2777
 3218W        W23498  11.860   6.997  11.718 -0.1910  0.0550  0.0291
 3219W        W23499   7.585   1.583   1.429  0.3843 -0.1594  0.0452
 3220W        W23500  12.158  14.850  13.617 -0.1962  0.0511 -0.1269
 3221W        W23501  16.436   5.166  11.359 -0.0722  0.0816 -0.1851
 3222W        W23502   9.353   1.597   0.718  0.1519 -0.1801  0.2052
 3223W        W23503   8.327  11.520   2.369  0.1751  0.2406  0.2048
 3224W        W23504  18.539   0.556  12.273 -0.2492  0.4755 -0.1799
 3225W        W23505   4.272   1.391  10.736 -0.1093  0.3130 -0.0183
 3226W        W23506   0.568   8.807   3.624  0.3432  0.1843 -0.3932
 3227W        W23507  11.626  14.095   1.493 -0.0096  0.1257 -0.1477
 3228W        W23508  12.578   3.642  11.731 -0.1897 -0.7973  0.0712
 3229W        W23509  14.027  18.837  11.246 -0.0775  0.2924 -0.0607
 3230W        W23510  17.283   8.977   2.607 -0.2724 -0.0200 -0.0234
 3231W        W23511  12.849   1.166  14.003 -0.0297  0.0636  0.1662
 3232W        W23512   4.948   5.062  13.543 -0.0096 -0.2278 -0.0460
 3233W        W23513   0.068   9.813   0.008  0.2078  0.2338  0.2865
 3234W        W23514  15.711  17.739  10.149  0.3065 -0.0461 -0.1637
 3235W        W23515  15.518  16.133   1.280 -0.1553  0.1933 -0.2197
 3236W        W23516  13.450  18.764   2.369 -0.0197 -0.1738 -0.0101
 3237W        W23517   8.404   0.815   3.498 -0.2445  0.1094  0.0287
 3238W        W23518   2.789  11.620  12.941  0.0672  0.0807  0.0659
 3239W        W23519  11.519   2.084  12.063 -0.1078  0.1931 -0.1639
 3240W        W23520  10.473   9.923   0.360  0.4637 -0.0436 -0.0349
 3241W        W23521   9.653   1.743  12.445  0.0834  0.0134  0.1459
 3242W        W23522  10.803  12.306   1.868 -0.0136  0.1511  0.1012
 3243W        W23523  14.969  10.307  11.799  0.1001 -0.0450 -0.0247
 3244W        W23524  17.831  10.927   4.674  0.0255 -0.1386 -0.3087
 3245W        W23525   1.536   0.098  12.095 -0.0250  0.1751 -0.0580
 3246W        W23526  13.301  13.348   2.557  0.1218 -0.2372 -0.0004
 3247W        W23527  18.030   4.288  10.775  0.0666  0.0827 -0.4025
 3248W        W23528  17.726  15.366  12.420 -0.4368 -0.0387  0.0107
 3249W        W23529  11.391   1.434   0.381  0.0580 -0.2491 -0.3147
 3250W        W23530   0.906   5.437  11.180  0.1038  0.1094 -0.1300
 3251W        W23531   3.896  12.437   0.054 -0.2661 -0.2249 -0.0723
 3252W        W23532  12.973  18.648  11.210  0.2904  0.1165  0.0196
 3253W        W23533  13.551  15.646  12.899 -0.3212  0.0737 -0.0204
 3254W        W23534   4.381   7.771   2.272  0.2017  0.3414  0.0732
 3255W        W23535   5.113   4.328  13.813 -0.2488 -0.1702 -0.2129
 3256W        W23536  18.992  18.053  12.350  0.2441  0.0257  0.2539
 3257W        W23537   4.969  17.739   0.024 -0.0602 -0.0593 -0.2101
 3258W        W23538  11.335   1.408   4.241  0.2131  0.0083 -0.0716
 3259W        W23539   8.049  13.068   1.421  0.1371  0.0943 -0.0305
 3260W        W23540   8.940  16.406  13.312 -0.0876 -0.4913 -0.0360
 3261W        W23541   0.239   4.294  11.208  0.0538  0.0930  0.0033
 3262W        W23542  13.779  11.399  11.240  0.1007  0.1357  0.4033
 3263W        W23543   7.939   9.967   2.935  0.2464 -0.2073  0.1013
 3264W        W23544   0.897   3.576  10.693 -0.0870 -0.4239  0.0976
 3265W        W23545   0.447  14.211  11.313 -0.1372  0.1811 -0.1092
 3266W        W23546  16.965  12.419  13.610 -0.1114 -0.0078 -0.0699
 3267W        W23547   6.803   1.695  13.561  0.0408 -0.1873 -0.0767
 3268W        W23548   4.879   4.075   0.068 -0.1857 -0.0630 -0.1574
 3269W        W23549   4.655  16.730  10.412 -0.0143  0.1664  0.1549
 3270W        W23550  14.549   6.471   1.511  0.0422 -0.3040 -0.1209
 3271W        W23551  18.996   7.744   1.306 -0.0148  0.0391  0.2195
 3272W        W23552   7.784   8.515  11.415  0.1069 -0.1797 -0.0220
 3273W        W23553   0.010   1.843  10.817  0.0415 -0.1518 -0.3911
 3274W        W23554   0.495   6.827   1.401 -0.0358  0.2051 -0.0079
 3275W        W23555   8.781   3.969   0.895 -0.1723 -0.1083  0.0972
 3276W        W23556  10.068  13.563   9.776 -0.1304  0.1210  0.2509
 3277W        W23557  10.845   2.905   2.387  0.0914 -0.2516 -0.0675
 3278W        W23558  13.684   3.093   3.560  0.1642  0.2201 -0.4947
 3279W        W23559   1.112   2.813   1.172 -0.0416 -0.1739  0.0388
 3280W        W23560   6.316   0.264   0.736 -0.0536 -0.3100 -0.0863
 3281W        W23561  10.366  11.065   4.006  0.2561 -0.1190  0.1254
 3282W        W23562  13.535   5.775  12.107  0.0568  0.0650  0.2051
 3283W        W23563  18.566  17.250  10.515 -0.2505 -0.3777  0.2226
 3284W        W23564  14.076  12.816   3.636 -0.3964  0.3026 -0.1655
 3285W        W23565   8.716  19.024  13.374 -0.1614 -0.2492  0.0002
 3286W        W23566   5.068   3.611   0.124  0.0699  0.2733  0.2075
 3287W        W23567  16.271   0.902  11.572 -0.0137 -0.2004  0.2038
 3288W        W23568  18.643  14.270   2.039  0.2543 -0.0419 -0.1761
 3289W        W23569  14.129  10.575   1.529  0.3290 -0.0167 -0.3235
 3290W        W23570   6.271   1.831  10.808  0.0586 -0.0256  0.0845
 3291W        W23571   5.858  14.174   2.349  0.0113  0.3098 -0.2616
 3292W        W23572   6.001  12.310   3.576 -0.2653 -0.2344  0.1226
 3293W        W23573   5.523  14.169   1.924  0.1532 -0.2740  0.0973
 3294W        W23574   3.271   4.967   0.269 -0.2682  0.1557  0.1951
 3295W        W23575   4.893  15.284  11.419 -0.0634  0.2316  0.2264
 3296W        W23576  15.255  18.885  12.846  0.0542  0.2850 -0.1350
 3297W        W23577   6.648  18.158   1.342  0.2400 -0.0814 -0.2592
 3298W        W23578  15.079   2.614  12.701  0.2277 -0.0283 -0.3188
 3299W        W23579  18.665  15.722   0.224  0.0448 -0.0405  0.1959
 3300W        W23580  12.190   2.009   3.713  0.2416 -0.0196 -0.2004
 3301W        W23581   7.894   9.641   0.880  0.1246  0.0880 -0.2174
 3302W        W23582  18.488  18.847   3.733  0.2092  0.0074 -0.0464
 3303W        W23583  14.119  13.170  13.696  0.1091  0.1648 -0.2229
 3304W        W23584   4.686   2.113  10.995  0.0393 -0.1671 -0.5356
 3305W        W23585   0.960   2.172  12.715 -0.0564  0.0992 -0.0747
 3306W        W23586   5.320   5.854  13.434  0.2566 -0.1029  0.2993
 3307W        W23587   8.960   1.692   3.246 -0.0158  0.1720  0.4898
 3308W        W23588  18.533   7.549  13.668  0.3575  0.0408  0.0066
 3309W        W23589   2.310   2.908   3.203  0.3129 -0.2968 -0.0102
 3310W        W23590   5.583  11.331  10.955 -0.0255 -0.0574 -0.1871
 3311W        W23591  16.396   5.758   3.604 -0.1753  0.1517 -0.1102
 3312W        W23592   2.265   0.256  10.460  0.0636 -0.0878 -0.2248
 3313W        W23593  13.057   7.534   1.857  0.1936  0.2762 -0.0269
 3314W        W23594  19.369   2.941  10.476 -0.0462  0.0317 -0.1877
 3315W        W23595   3.257   3.679  10.406  0.0850 -0.1388  0.2535
 3316W        W23596   3.452  13.844  10.972 -0.0488 -0.0213 -0.3456
 3317W        W23597   4.062   3.416  12.713 -0.0442  0.0562  0.0751
 3318W        W23598   0.552  11.196  14.035  0.0871 -0.1453  0.2703
 3319W        W23599  14.022  13.250  11.110  0.3296  0.1987  0.1949
 3320W        W23600   0.101  12.250   2.261  0.1750  0.0589  0.0269
 3321W        W23601  19.359  10.448  12.784 -0.0713 -0.4123  0.0195
 3322W        W23602  11.771   0.411  11.575 -0.2054  0.2947  0.0629
 3323W        W23603  11.740   4.142  13.110 -0.0098  0.3477  0.2449
 3324W        W23604  16.355  13.006  12.950 -0.1443  0.1568 -0.1000
 3325W        W23605  11.721   1.006   3.613  0.1685  0.0230  0.1969
 3326W        W23606   3.373   9.845  13.829  0.1277  0.2898 -0.0563
 3327W        W23607   5.223  18.069  11.484 -0.0486 -0.3617 -0.1111
 3328W        W23608  12.331   7.585   4.860  0.1344 -0.3835 -0.1350
 3329W        W23609  10.476   9.155  11.888 -0.2131  0.0128 -0.2297
 3330W        W23610   0.809  12.503   4.112 -0.1267 -0.1079  0.0885
 3331W        W23611  13.577   9.753  12.963 -0.0593 -0.0550  0.3783
 3332W        W23612  19.172   5.735   3.606  0.0161 -0.0347 -0.0221
 3333W        W23613  15.351   7.014   1.417  0.1651  0.0433 -0.2468
 3334W        W23614  16.098  10.976   3.511  0.0203  0.1273 -0.1208
 3335W        W23615   4.392   4.116   0.165  0.0443 -0.4250  0.0468
 3336W        W23616   2.677   8.776   3.815 -0.0925 -0.3023  0.0061
 3337W        W23617   4.228   3.075   3.613  0.0773  0.0345  0.0626
 3338W        W23618  13.304  11.576   1.504 -0.1220 -0.1882  0.0058
 3339W        W23619  12.319   6.796   1.229 -0.0687  0.1414 -0.1389
 3340W        W23620  15.442   2.132   0.106  0.0718  0.3129 -0.1164
 3341W        W23621  18.046   7.472  11.924  0.0349 -0.0097  0.1633
 3342W        W23622   7.338   2.187   9.973  0.0719 -0.0876 -0.0278
 3343W        W23623   5.858  10.932  10.899 -0.2458 -0.0407  0.1517
 3344W        W23624  10.975  15.525  10.908  0.1647 -0.0129  0.0566
 3345W        W23625  14.703   3.856   9.906  0.2452  0.1367 -0.0399
 3346W        W23626  18.748   7.149   1.980 -0.0895  0.0796  0.0813
 3347W        W23627  15.572  16.244  13.103 -0.2304  0.3401  0.1165
 3348W        W23628  18.033  11.883   1.684 -0.0035  0.2145 -0.0016
 3349W        W23629  15.690   8.078   1.264  0.0774  0.1525  0.0989
 3350W        W23630   1.049   0.199  10.523 -0.0336  0.3268 -0.0481
 3351W        W23631   7.692   9.988   1.427 -0.3471 -0.1313  0.3056
 3352W        W23632  16.610   0.517   2.842  0.2879  0.1056 -0.0019
 3353W        W23633   5.863   2.214  12.988 -0.3725  0.0019  0.0232
 3354W        W23634   8.534  15.714   1.395  0.1951 -0.0228 -0.2586
 3355W        W23635   7.059   0.392  12.577 -0.0341  0.2208 -0.3526
 3356W        W23636   4.030   8.275   0.729 -0.5752 -0.2046 -0.0665
 3357W        W23637   5.045   2.278  12.191  0.2154  0.0602  0.1103
 3358W        W23638  17.604  17.307  12.302  0.0266  0.1711  0.0787
 3359W        W23639   7.360  15.565   2.781 -0.0113  0.0597 -0.0096
 3360W        W23640   6.962  12.813  11.528 -0.0972  0.1495  0.2643
 3361W        W23641  17.211  14.013  10.183 -0.0838  0.1030  0.1028
 3362W        W23642  12.018  13.179  12.111  0.0302  0.0952  0.1278
 3363W        W23643   6.163   8.649  13.543  0.1662  0.0451 -0.3140
 3364W        W23644  18.751   5.212   1.320 -0.1082  0.1261 -0.0547
 3365W        W23645   6.162   8.876   4.703 -0.0379 -0.2110  0.1477
 3366W        W23646  15.469  10.359  10.516  0.2059  0.3245  0.0284
 3367W        W23647   3.211  13.581   3.383 -0.0768 -0.1610  0.5321
 3368W        W23648  15.607   2.978  10.975  0.0005 -0.1234 -0.3086
 3369W        W23649   4.018   3.755   0.023 -0.2917 -0.0527  0.0926
 3370W        W23650   0.808   4.261   2.531  0.0088  0.0023  0.3316
 3371W        W23651  16.129   0.444  11.043  0.3501 -0.0955  0.0378
 3372W        W23652  12.870   6.252  12.666  0.2702  0.0984  0.0741
 3373W        W23653   9.233  10.228  11.683 -0.0769  0.2211 -0.2355
 3374W        W23654  12.556   7.515   1.959  0.2224  0.0806  0.0314
 3375W        W23655  13.953  14.336  11.175  0.0185 -0.0734  0.0022
 3376W        W23656  13.495  16.010   2.566 -0.3227 -0.1783 -0.0124
 3377W        W23657   9.975  15.091   3.071  0.0051  0.2059  0.1757
 3378W        W23658   3.686   1.161   4.214  0.2426 -0.1249 -0.3351
 3379W        W23659  14.392  10.339  12.766 -0.1059 -0.3136  0.1207
 3380W        W23660  17.320   1.312  12.894  0.2542 -0.4346 -0.3266
 3381W        W23661   7.391   1.307  11.052  0.2583 -0.2467 -0.0491
 3382W        W23662  16.003  15.836  10.235 -0.0528 -0.2549 -0.0581
 3383W        W23663   4.459  12.410  14.085 -0.2283  0.0508 -0.3033
 3384W        W23664   4.740  12.990  12.175 -0.3474 -0.0639 -0.2328
 3385W        W23665   6.965  19.698   1.414 -0.0623 -0.0443  0.2011
 3386W        W23666   1.955  19.231   1.091 -0.3164  0.2263  0.2513
 3387W        W23667   8.416  18.942  10.659 -0.2395  0.0112 -0.2239
 3388W        W23668  14.906   2.842  10.320 -0.0027 -0.2187  0.1945
 3389W        W23669   9.697   9.377   3.416 -0.0556  0.1293 -0.1672
 3390W        W23670  18.300  17.851   0.937  0.2993  0.1983 -0.1226
 3391W        W23671  16.323   1.824  10.926  0.1940 -0.2096 -0.2393
 3392W        W23672  15.663   2.740  11.716 -0.1698 -0.1029 -0.2776
 3393W        W23673  12.426   4.450  12.300 -0.0388 -0.0875  0.2912
 3394W        W23674   0.957  14.851  13.080  0.1555 -0.1774 -0.1398
 3395W        W23675   4.319   1.455   2.677  0.1861 -0.0688  0.0063
 3396W        W23676  17.154  16.058  11.427 -0.1115  0.1230  0.1654
 3397W        W23677   7.898   5.668  11.906 -0.0998 -0.2600  0.0168
 3398W        W23678   0.025   9.143  13.213 -0.2318 -0.0502 -0.0692
 3399W        W23679   6.398  11.921   0.442 -0.3865  0.0041  0.2101
 3400W        W23680   0.362   4.770   4.525 -0.2855 -0.1909  0.0677
 3401W        W23681  12.406   6.633  10.300  0.2309 -0.0496  0.1986
 3402W        W23682  11.253   5.182   2.025 -0.2122 -0.3220 -0.0433
 3403W        W23683  15.660  10.495   0.877 -0.0512 -0.2496 -0.2848
 3404W        W23684  14.362   2.727   0.872  0.0263  0.1408 -0.0773
 3405W        W23685  19.785   9.467   1.329 -0.3317 -0.1755  0.0826
 3406W        W23686   0.525   1.435   1.294  0.1115 -0.3513 -0.2863
 3407W        W23687  15.673  15.296  13.570  0.3409  0.3944 -0.1787
 3408W        W23688  12.334   1.565   3.355 -0.2129 -0.0520  0.0780
 3409W        W23689   5.818   1.340  13.493 -0.0362 -0.0844 -0.1643
 3410W        W23690   9.215  16.182   4.664  0.1870 -0.3857 -0.1110
 3411W        W23691  13.574   8.408   1.322 -0.1220  0.1809 -0.0102
 3412W        W23692  19.142   9.151   1.752  0.1753  0.0323 -0.0737
 3413W        W23693   6.050  16.012   1.130  0.1126 -0.3678  0.1174
 3414W        W23694   3.227   3.636   0.682  0.0216 -0.1333 -0.3905
 3415W        W23695   2.719  14.882   0.652  0.1710  0.2832  0.1551
 3416W        W23696  17.762   9.216   0.326  0.0633  0.2267  0.0831
 3417W        W23697   3.100   7.668   3.354 -0.0580 -0.2818 -0.5155
 3418W        W23698   4.344  13.187  11.948  0.0927  0.1929 -0.1744
 3419W        W23699   1.839   9.178   0.553  0.0565 -0.1927 -0.0113
 3420W        W23700  16.493   3.022  13.232  0.3974 -0.0673  0.0324
 3421W        W23701  10.755   2.013   1.973 -0.2642 -0.0312 -0.4668
 3422W        W23702   4.686   8.492   3.993 -0.1504  0.5563 -0.1108
 3423W        W23703   5.087   7.290  11.116  0.0669  0.3522 -0.1150
 3424W        W23704   6.480  18.569  12.154  0.0021 -0.1055  0.0108
 3425W        W23705   9.907  12.855   3.209  0.0796  0.2536 -0.1131
 3426W        W23706   0.454  19.139   0.798 -0.2778  0.1781 -0.1830
 3427W        W23707  17.650   5.175  12.408  0.0649 -0.0385 -0.0838
 3428W        W23708   4.584  18.207   2.379  0.0313 -0.2431 -0.3531
 3429W        W23709  15.251   0.212   2.500 -0.2440  0.1501  0.0650
 3430W        W23710   5.965   5.930   1.866  0.0041  0.0432  0.0537
 3431W        W23711   8.758   9.671  12.339  0.0354 -0.0828 -0.0605
 3432W        W23712   1.763   7.199  12.249 -0.0897  0.3995  0.2025
 3433W        W23713  10.387  17.579   2.722  0.3637 -0.3056  0.0231
 3434W        W23714   3.540   8.572   1.504  0.0773  0.0630 -0.3365
 3435W        W23715  16.162  18.664  12.628  0.4090 -0.1400  0.0745
 3436W        W23716   7.510  18.135  11.659 -0.0182  0.2276 -0.2026
 3437W        W23717   1.033  14.093   4.024 -0.2318  0.0608  0.1232
 3438W        W23718  15.879  18.757  13.003  0.1804  0.0690 -0.2713
 3439W        W23719   1.620  10.098   4.837 -0.1904  0.1774 -0.1573
 3440W        W23720   5.822   4.522  13.241 -0.0475 -0.1236 -0.0498
 3441W        W23721  11.084  16.441   0.777 -0.3453  0.1781 -0.6072
 3442W        W23722   9.800   6.818  11.695  0.1062 -0.2575 -0.1725
 3443W        W23723  10.740   8.621   2.976  0.1354  0.1285  0.1948
 3444W        W23724   0.007  11.310   0.517  0.1886  0.3337 -0.0821
 3445W        W23725  13.897   4.625  11.998 -0.0777 -0.3058 -0.0001
 3446W        W23726  18.494  15.769  12.889  0.2330  0.2477 -0.1188
 3447W        W23727   3.405  19.717  11.345  0.0411 -0.0887  0.1955
 3448W        W23728   4.444  15.840   2.291  0.0927  0.1883 -0.0063
 3449W        W23729  13.774   1.350  10.574 -0.0131  0.0463  0.2520
 3450W        W23730  13.888  10.103   1.915 -0.1297 -0.1187  0.3644
 3451W        W23731   7.832  17.201  13.897 -0.0849  0.0895 -0.0354
 3452W        W23732  14.424  17.014   0.829 -0.1294 -0.1682  0.1220
 3453W        W23733   2.036  17.513  13.671  0.1083  0.1603 -0.1841
 3454W        W23734  14.190   6.067   1.368 -0.2704 -0.1695 -0.1446
 3455W        W23735   7.603  11.760   1.932 -0.1278  0.3694  0.1571
 3456W        W23736   9.340  14.300   2.675 -0.1821  0.0614  0.2876
 3457W        W23737  15.204   2.530   0.352 -0.1481  0.0318 -0.3824
 3458W        W23738  11.383   2.460  11.073  0.0828  0.0623  0.2561
 3459W        W23739   2.982   0.411   1.465  0.0217  0.2675  0.2877
 3460W        W23740  13.250   4.226  11.311 -0.3213 -0.0247 -0.4725
 3461W        W23741  15.454  16.196   9.115 -0.0878 -0.0282 -0.0213
 3462W        W23742   9.213  13.163   3.438  0.1721 -0.2471  0.2784
 3463W        W23743   8.981   4.181  13.771 -0.0266  0.0719  0.1165
 3464W        W23744   7.766  18.458  10.140  0.0598 -0.0164 -0.2276
 3465W        W23745   9.229  17.010   3.567  0.1617 -0.1406  0.0177
 3466W        W23746   7.340  15.382   2.343 -0.0673  0.3298  0.2210
 3467W        W23747   4.770  15.561   3.755  0.1187  0.0378 -0.0527
 3468W        W23748  13.520  10.465   3.695 -0.0639 -0.0056 -0.0929
 3469W        W23749   9.057  13.266   0.439 -0.1952  0.2072  0.1313
 3470W        W23750   7.043  18.515  13.089 -0.0374 -0.2363 -0.2769
 3471W        W23751  12.359  16.077  10.543  0.0549  0.2572 -0.3348
 3472W        W23752  13.118   7.567  11.692  0.1784  0.1086  0.2393
 3473W        W23753  17.055   9.224   3.835 -0.1066  0.2067  0.0733
 3474W        W23754   1.123   9.074   0.024  0.0666  0.2278  0.0228
 3475W        W23755   6.182   1.872   3.098 -0.0964  0.0993  0.3543
 3476W        W23756   7.026  13.345  11.316 -0.0070 -0.0303 -0.0210
 3477W        W23757   4.373   9.559  10.874 -0.2019  0.2702  0.1165
 3478W        W23758  16.717   3.493  10.509  0.0989  0.2423 -0.1615
 3479W        W23759  11.913   1.852  13.956 -0.1239  0.0725  0.1175
 3480W        W23760   9.771  14.593   0.775 -0.2766 -0.1167 -0.1010
 3481W        W23761   5.029  18.263   3.903 -0.1792 -0.0780 -0.1094
 3482W        W23762  10.496  14.946  13.632 -0.1085  0.1274  0.6436
 3483W        W23763  19.086  14.558  14.088  0.1113 -0.0207  0.0327
 3484W        W23764  11.590   7.710  12.034 -0.1448  0.1486 -0.0779
 3485W        W23765   3.033  13.953   3.014  0.0014 -0.0180 -0.2389
 3486W        W23766   1.968   0.581   2.793 -0.0243  0.1876  0.0523
 3487W        W23767   5.388  18.236   0.265 -0.2195 -0.1469 -0.0508
 3488W        W23768  13.129   6.286   2.079 -0.1441 -0.0529 -0.1438
 3489W        W23769  14.298   0.323   4.023  0.1540 -0.0709  0.2467
 3490W        W23770  17.235   5.886   9.882 -0.1250 -0.1381  0.0183
 3491W        W23771   7.700   2.215   2.625 -0.0631  0.0965  0.2532
 3492W        W23772   9.630  15.078   0.568 -0.1397 -0.0188  0.2462
 3493W        W23773   5.988  13.288   0.501  0.3159  0.1156 -0.0432
 3494W        W23774   2.510   5.891  11.350  0.2418 -0.2482  0.0988
 3495W        W23775  16.827   6.181  10.167  0.0429 -0.0731 -0.2577
 3496W        W23776   8.803   6.491   9.728 -0.2585  0.3585 -0.0424
 3497W        W23777  19.065  15.684   4.108  0.0888 -0.1462 -0.0180
 3498W        W23778   5.402   3.245  12.757 -0.1119  0.0470  0.2823
 3499W        W23779   4.108  15.739  11.532 -0.0890 -0.3192 -0.2283
 3500W        W23780  14.806   8.037  10.532 -0.1675 -0.0241 -0.0185
 3501W        W23781   4.739  14.329  14.019  0.0538 -0.0241 -0.3255
 3502W        W23782   8.041   2.358  10.565 -0.2335  0.0629 -0.0634
 3503W        W23783   0.803   1.518  11.446  0.1300  0.1218 -0.0255
 3504W        W23784   8.506  10.172   2.946  0.1398 -0.1555 -0.0262
 3505W        W23785   8.083  10.326   0.147  0.4433 -0.1385 -0.2103
 3506W        W23786  10.428  10.036   1.176  0.0164 -0.0280 -0.1050
 3507W        W23787   7.865   9.839   2.405 -0.0871  0.3872 -0.1337
 3508W        W23788  12.401   2.881   3.688 -0.3428 -0.2202 -0.1588
 3509W        W23789   2.086  11.571   0.990 -0.2207  0.2196  0.1022
 3510W        W23790   6.921  11.633  13.336 -0.2874 -0.0189  0.0432
 3511W        W23791   7.061  14.474   3.393  0.1873 -0.3937 -0.2493
 3512W        W23792  15.684   6.961   1.055  0.2966  0.0978  0.0286
 3513W        W23793   6.915   1.081  12.776  0.3675 -0.2183 -0.0733
 3514W        W23794   1.085  10.297   4.713  0.0292 -0.2809  0.1346
 3515W        W23795  19.386   0.740  11.282 -0.1976  0.2948 -0.3701
 3516W        W23796  15.677   5.460   8.776  0.3613 -0.1480  0.0955
 3517W        W23797   6.430  13.193   0.095 -0.2935 -0.1308  0.1089
 3518W        W23798   4.969  12.375   1.588 -0.2002 -0.0329  0.1282
 3519W        W23799  15.170  11.515  12.202  0.2448 -0.0769  0.2478
 3520W        W23800  14.725   9.779   3.337 -0.0251  0.0735  0.1849
 3521W        W23801   8.001   2.371   1.895  0.2444  0.0420  0.1658
 3522W        W23802  19.103   3.029   2.272  0.0319 -0.0655  0.0550
 3523W        W23803  15.582   3.827   0.751 -0.0209 -0.0913 -0.2808
 3524W        W23804  18.169   7.966   2.766 -0.0415 -0.0682  0.0130
 3525W        W23805  19.633   0.137   2.440 -0.3144 -0.4559 -0.0038
 3526W        W23806  16.091  11.364   2.472 -0.0358  0.1979 -0.2072
 3527W        W23807   2.324   1.387  13.479  0.1422 -0.0808 -0.1146
 3528W        W23808  12.411   0.315   3.051  0.0750 -0.0583 -0.2613
 3529W        W23809  17.918   4.203   9.172 -0.0262 -0.1854  0.0575
 3530W        W23810  17.544   4.378   0.119 -0.1552  0.1838 -0.2177
 3531W        W23811  11.612  10.155  12.303 -0.0222  0.0238  0.0275
 3532W        W23812  12.876   1.775  11.744 -0.0426  0.2116 -0.4549
 3533W        W23813   5.207  10.511  11.998  0.1394 -0.1943 -0.2626
 3534W        W23814   6.841   5.779   0.746  0.0301 -0.1684  0.1378
 3535W        W23815  14.709   8.308  11.089 -0.0013 -0.1144  0.2256
 3536W        W23816   5.455  16.138  11.967  0.1477 -0.0489 -0.1679
 3537W        W23817   7.401  12.174   2.577 -0.0612  0.1116 -0.0973
 3538W        W23818   8.145   8.897  11.503  0.1016 -0.1895 -0.0472
 3539W        W23819   6.300  12.514  10.805 -0.1274  0.2564 -0.3082
 3540W        W23820   2.220  12.030   0.672  0.0078  0.2536 -0.1281
 3541W        W23821  14.665   3.869   9.401 -0.2163 -0.1077 -0.2201
 3542W        W23822   3.974   0.461   9.698  0.2125 -0.2124 -0.3003
 3543W        W23823  10.015   1.540   2.732  0.2600  0.1112  0.0214
 3544W        W23824  17.727  16.156  12.744 -0.1248  0.1070 -0.0294
 3545W        W23825   5.398  16.752   1.280  0.0553  0.1136  0.0873
 3546W        W23826   5.209  18.952   2.737 -0.1809  0.1886 -0.2295
 3547W        W23827   5.592   7.014   1.615  0.1037 -0.1852  0.0858
 3548W        W23828   1.394  17.297  12.887 -0.0845 -0.1076 -0.0658
 3549W        W23829   9.045   1.975   0.542  0.1870 -0.1311 -0.1307
 3550W        W23830   9.945  15.443  11.784 -0.2584 -0.0116 -0.0618
 3551W        W23831   4.411   1.626  13.517 -0.0981  0.0700 -0.1451
 3552W        W23832   8.678   0.577   1.216 -0.1503  0.2380 -0.1610
 3553W        W23833  13.885  17.996  12.425  0.2193  0.1588 -0.2740
 3554W        W23834   8.284   5.870   1.648  0.0232 -0.1402  0.0441
 3555W        W23835  10.666  18.396  12.962  0.0661 -0.0420  0.2548
 3556W        W23836  17.533   9.046  14.028 -0.1130  0.1530  0.1000
 3557W        W23837   9.126   5.140  10.702 -0.0945  0.0432 -0.0043
 3558W        W23838  10.488  18.120  13.583  0.0371  0.5487 -0.1421
 3559W        W23839   5.175  19.217   3.580 -0.0600 -0.0421  0.1459
 3560W        W23840   3.983   1.632  10.371  0.1641  0.3124 -0.1499
 3561W        W23841  10.990   4.458  12.595 -0.2203  0.3531 -0.1960
 3562W        W23842   1.228  13.140  11.854  0.0195  0.1859  0.0972
 3563W        W23843   3.597   7.891   9.756  0.1923  0.0849 -0.1169
 3564W        W23844   2.870   5.787   0.814 -0.1136  0.2359 -0.2185
 3565W        W23845   7.717   6.230   3.921 -0.2609 -0.1652 -0.0287
 3566W        W23846   3.459   9.991  13.056 -0.1192 -0.1438  0.0813
 3567W        W23847  15.374   2.338  12.327  0.0221 -0.0040  0.2274
 3568W        W23848   3.928  10.728  13.471  0.2031  0.2283 -0.2740
 3569W        W23849  13.630   2.019   2.782 -0.0378  0.4055  0.4452
 3570W        W23850   5.685  10.382   3.939 -0.2193  0.0687  0.2511
 3571W        W23851  11.548   6.023  13.439  0.2896  0.0236  0.1123
 3572W        W23852   2.188   8.589   3.718  0.1265 -0.2170  0.0567
 3573W        W23853   8.395   8.598   4.797  0.0063  0.0074 -0.0252
 3574W        W23854  10.080  16.918   0.373  0.0986  0.0717 -0.0150
 3575W        W23855  13.916  10.214   9.961  0.1657  0.1716 -0.1561
 3576W        W23856  11.793  15.717   1.711  0.0276  0.1309 -0.1500
 3577W        W23857   4.198   0.333  10.214 -0.0206  0.2081  0.1535
 3578W        W23858  12.528  12.414   2.800 -0.2691  0.1264  0.3428
 3579W        W23859  18.404  18.571  12.509 -0.1548 -0.4130 -0.2366
 3580W        W23860   7.804   3.402   4.126 -0.2396 -0.0130  0.1431
 3581W        W23861   3.633  13.301  13.156 -0.0157 -0.0008 -0.1273
 3582W        W23862   6.707  11.501  12.491 -0.0962  0.2462 -0.2094
 3583W        W23863   3.262  14.978  12.133 -0.0227 -0.0778 -0.1607
 3584W        W23864   9.049  10.497   4.828 -0.0983 -0.2094  0.0977
 3585W        W23865  11.964  13.761   1.278 -0.3311  0.1085  0.0173
 3586W        W23866   7.825  17.107   0.788 -0.2141  0.0591 -0.0568
 3587W        W23867  13.705   9.304   2.205  0.1669  0.4416 -0.1912
 3588W        W23868   7.012   0.294   4.164  0.1407 -0.0669 -0.3087
 3589W        W23869  18.240   5.946  13.381 -0.1974  0.0838 -0.4188
 3590W        W23870   9.099   6.823  12.321  0.0680 -0.0319 -0.2838
 3591W        W23871  15.983  12.409   1.121  0.3555 -0.3045  0.0466
 3592W        W23872   4.221   0.549  11.217  0.0582  0.1848 -0.1915
 3593W        W23873  18.619  19.775  13.681 -0.0593  0.1081 -0.1845
 3594W        W23874  15.787  11.914   3.897 -0.1520  0.0486 -0.1587
 3595W        W23875   2.338  16.187   1.785  0.0295  0.1947  0.1085
 3596W        W23876  18.890  15.797  12.555 -0.3852  0.1768  0.0360
 3597W        W23877  15.049  11.207  13.859  0.3090 -0.3062 -0.2708
 3598W        W23878  11.697   2.451  10.679  0.0826 -0.3567  0.0891
 3599W        W23879  17.530  14.285  11.801  0.3021  0.1246  0.3486
 3600W        W23880  16.349   2.578  14.089  0.2391  0.1045 -0.0418
 3601W        W23881   0.828   7.562  12.758  0.0699 -0.0623 -0.0864
 3602W        W23882  11.029   6.029   3.526 -0.0082  0.2342 -0.1545
 3603W        W23883   9.914   0.870  12.422  0.5042  0.2516  0.0662
 3604W        W23884   0.467  15.646  11.314  0.0611  0.3050  0.1975
 3605W        W23885   1.004   4.369  13.508  0.0572  0.1280  0.0702
 3606W        W23886   0.641   1.233  13.878  0.2574  0.1576  0.1236
 3607W        W23887  16.659  15.627  11.726 -0.1553 -0.0526 -0.1045
 3608W        W23888  14.642   6.963  12.677  0.0961  0.4646  0.2078
 3609W        W23889   7.134   9.490  10.528  0.2508  0.0366  0.4058
 3610W        W23890   7.390  14.610  13.150  0.1233  0.0750  0.0591
 3611W        W23891   6.427   8.596  12.934 -0.0117 -0.0054 -0.0679
 3612W        W23892  16.969  18.496  12.038  0.0534  0.3538 -0.1199
 3613W        W23893   4.994  19.322  13.623  0.0748  0.1390  0.0913
 3614W        W23894  17.685  19.714  13.774  0.3890  0.1169  0.1380
 3615W        W23895  15.805   9.471   1.936 -0.4426 -0.1580 -0.0462
 3616W        W23896   8.493  19.233   3.848  0.0703 -0.0339  0.1490
 3617W        W23897   7.811   4.292   0.826  0.0433  0.0146 -0.2650
 3618W        W23898  11.693  14.779   0.890 -0.0656  0.0397  0.3750
 3619W        W23899   2.317  13.336   2.674 -0.2094  0.1204  0.1487
 3620W        W23900   3.596  12.386  12.649 -0.2223  0.1468  0.0327
 3621W        W23901  11.175   0.133   2.250 -0.1055 -0.0810 -0.0201
 3622W        W23902   1.817  12.768  10.022  0.0915  0.3870  0.0859
 3623W        W23903   3.498   4.000   1.644 -0.0682 -0.2506  0.1318
 3624W        W23904  14.970  13.547   0.910 -0.2011  0.0569 -0.1916
 3625W        W23905   6.033  18.133  12.108  0.2865 -0.1714 -0.1116
 3626W        W23906  17.675   4.012  12.062 -0.0250 -0.0335 -0.0895
 3627W        W23907  14.381   4.143   4.703 -0.3051 -0.1558  0.2686
 3628W        W23908   5.605  15.419  13.026  0.0747  0.0786  0.3203
 3629W        W23909   3.249   7.118  11.127  0.1120 -0.1717  0.0530
 3630W        W23910   0.405   7.689   2.639 -0.1793  0.1247  0.1405
 3631W        W23911  17.377  14.361  13.158  0.1444 -0.0538  0.3430
 3632W        W23912   4.117  17.806   3.006 -0.0099 -0.2920 -0.0554
 3633W        W23913  11.569   5.097  13.689  0.2989 -0.0389  0.2140
 3634W        W23914  16.434   1.423   1.671  0.1173  0.0272  0.0458
 3635W        W23915  11.931   9.294  12.750 -0.2682  0.1613  0.1100
 3636W        W23916  17.954   0.977   5.203  0.0072  0.1792 -0.1199
 3637W        W23917  11.779   6.906   4.535 -0.0941  0.1114  0.0509
 3638W        W23918  15.591  10.059   1.787  0.3692 -0.2348  0.2613
 3639W        W23919  18.630   8.767   2.667 -0.2461  0.3909 -0.0078
 3640W        W23920  14.834  13.874  13.462 -0.1321  0.0936  0.1884
 3641W        W23921  14.037  15.747  10.623 -0.0936  0.1614  0.0042
 3642W        W23922  12.961   5.913   9.716 -0.0639 -0.2922  0.0444
 3643W        W23923   9.849   0.204   3.504 -0.0697 -0.3169 -0.1907
 3644W        W23924   4.681  10.311   3.418  0.0817 -0.2299 -0.2490
 3645W        W23925   1.104  12.325   3.660 -0.0013  0.1741  0.1171
 3646W        W23926  15.939   7.340  10.646 -0.2778  0.0172 -0.1391
 3647W        W23927  14.395  15.570  10.948  0.0002 -0.0247  0.0857
 3648W        W23928   9.860  10.631  13.234 -0.1394  0.2175 -0.2337
 3649W        W23929  17.490   8.908   1.656 -0.0264  0.0263 -0.2227
 3650W        W23930  15.609  16.395  10.059  0.0657 -0.1290  0.0245
 3651W        W23931  13.592  16.256   0.341 -0.0809 -0.0176 -0.0141
 3652W        W23932  17.571   2.225  13.324  0.0143 -0.1275 -0.1990
 3653W        W23933   4.772   9.365   4.021 -0.1991  0.4284  0.2358
 3654W        W23934   8.258  13.959   4.260  0.0418 -0.2071  0.1603
 3655W        W23935   4.565  15.968  11.986 -0.1523 -0.2717 -0.2405
 3656W        W23936   8.948  17.539   0.010  0.0538  0.2938  0.2638
 3657W        W23937  17.192  10.192  11.714  0.0686  0.0535 -0.3094
 3658W        W23938  13.266   0.415  12.081  0.2324  0.2929  0.0893
 3659W        W23939  11.191  16.425   3.675  0.1719 -0.0297 -0.1494
 3660W        W23940   7.244  18.906  13.669 -0.2285  0.2209  0.0075
 3661W        W23941  10.675  18.950  13.701  0.1128 -0.1802 -0.1247
 3662W        W23942  16.080   0.336  10.575 -0.1973 -0.1468  0.0879
 3663W        W23943   9.838  14.164   2.780 -0.5259  0.0082  0.1650
 3664W        W23944   8.326   0.428  12.057 -0.2980 -0.1467  0.1970
 3665W        W23945   3.745  19.425  10.861 -0.0597  0.0148  0.1670
 3666W        W23946   7.575   1.952  10.356  0.0305  0.2683  0.1991
 3667W        W23947  16.563  19.354   1.275 -0.2823 -0.0560 -0.0088
 3668W        W23948   0.956  12.475   2.335 -0.0434  0.3788 -0.1025
 3669W        W23949   2.037   4.013  12.085  0.1196  0.1389 -0.1126
 3670W        W23950  17.049  19.687  11.399 -0.0286 -0.0469 -0.0893
 3671W        W23951  12.246  13.958   0.110 -0.3829 -0.0902 -0.3609
 3672W        W23952  16.825  10.179   0.822  0.0739 -0.2067 -0.0299
 3673W        W23953   8.546   2.112   3.004 -0.0780  0.2775  0.0387
 3674W        W23954  12.908   7.290  12.930  0.1543  0.0877  0.1317
 3675W        W23955   1.909  17.141   1.567 -0.1908  0.1515 -0.2340
 3676W        W23956   9.341   3.269   9.481  0.1437  0.1235 -0.2542
 3677W        W23957   0.980  17.730  12.876 -0.1380 -0.2457  0.1360
 3678W        W23958  15.250   5.863  11.668 -0.1250 -0.2873 -0.0376
 3679W        W23959   9.313   8.273   1.961  0.0706  0.0372 -0.0691
 3680W        W23960   5.783  17.419   2.984 -0.2154 -0.0299  0.4536
 3681W        W23961   6.808  12.683   0.355 -0.4430 -0.0597 -0.1355
 3682W        W23962   2.638   9.835   3.292  0.0429 -0.2078 -0.0721
 3683W        W23963   0.369  14.855   1.992  0.2547 -0.0629  0.1079
 3684W        W23964  10.937  18.779   0.652 -0.0838 -0.1296  0.0467
 3685W        W23965   0.546  13.857   0.030 -0.2006  0.1674  0.0695
 3686W        W23966   7.971  10.877  10.963  0.6737 -0.3651 -0.1963
 3687W        W23967  19.257   5.952   1.362  0.0080  0.1108 -0.0523
 3688W        W23968  11.617   2.724   0.835 -0.1364 -0.1511  0.1137
 3689W        W23969  14.416  11.733   0.442  0.0072  0.1005 -0.0954
 3690W        W23970  13.059  14.470  11.634  0.2828  0.0522 -0.2801
 3691W        W23971   6.648  10.886   0.172 -0.0202  0.3489 -0.0719
 3692W        W23972  14.508   6.234  11.459  0.1868 -0.0614  0.1566
 3693W        W23973   3.628   8.051   3.931 -0.0989  0.0507 -0.0115
 3694W        W23974  19.632   9.627  13.429 -0.3107 -0.0792  0.2644
 3695W        W23975  10.600   4.358   3.194 -0.0266 -0.0992  0.2218
 3696W        W23976  16.045   8.142  12.677 -0.0905  0.2075 -0.0877
 3697W        W23977  17.010  10.926   1.041  0.1551 -0.0557  0.1316
 3698W        W23978   6.104  16.768  12.207  0.0006  0.1236  0.0375
 3699W        W23979   3.747   3.239  11.257 -0.2394 -0.2554 -0.0722
 3700W        W23980   2.488  19.042   2.968 -0.1598 -0.1206  0.0280
 3701W        W23981   1.712  16.237   9.658 -0.2563  0.0507  0.4374
 3702W        W23982   4.861   2.608  10.894 -0.1364 -0.1432 -0.2079
 3703W        W23983   3.267   0.443  12.508 -0.1831  0.1351  0.1723
 3704W        W23984   2.080   0.689   0.042  0.1661  0.1568  0.1340
 3705W        W23985   4.799  14.226  13.536 -0.1133 -0.2267  0.2222
 3706W        W23986  10.349   7.047  13.161  0.0257  0.0286 -0.0731
 3707W        W23987   0.229  18.684  10.583  0.1104  0.2138 -0.0011
 3708W        W23988   2.517  17.564   2.943  0.4300 -0.0922  0.0067
 3709W        W23989  14.631   0.177   2.650 -0.5217  0.0744 -0.0278
 3710W        W23990  13.525  17.397   1.801 -0.2785 -0.0928  0.1195
 3711W        W23991   3.936   7.952   2.032 -0.1814 -0.0583 -0.3225
 3712W        W23992  19.162   7.986   2.641  0.2833  0.0585 -0.1412
 3713W        W23993  12.339   5.237   0.093  0.1147 -0.3674  0.0415
 3714W        W23994   0.734  10.461   2.881  0.0248 -0.1397 -0.1192
 3715W        W23995  16.084   6.927  12.536  0.2087 -0.2150  0.0049
 3716W        W23996  17.691   0.589  12.430 -0.0564  0.1322  0.0557
 3717W        W23997   4.370  14.666   2.003 -0.0135 -0.1167  0.2138
 3718W        W23998   1.323   3.161   3.145 -0.1543  0.1482 -0.1254
 3719W        W23999  19.011  11.874   0.227  0.0887  0.4687  0.1221
 3720W        W24000  17.816  17.732   1.050  0.2727 -0.2883  0.1119
 3721W        W24001   9.497  15.503   1.167  0.0414  0.1013  0.2726
 3722W        W24002   3.857   0.589  13.321  0.2248 -0.0324  0.1039
 3723W        W24003   3.318  19.440   0.465  0.0522 -0.0127 -0.2232
 3724W        W24004  18.841  18.041   4.689  0.0270  0.1508  0.1003
 3725W        W24005   6.186   9.656  10.286  0.1930  0.1170 -0.1266
 3726W        W24006   4.841  10.254   2.496  0.0630 -0.0110 -0.0944
 3727W        W24007   5.768  15.165  11.265  0.0763  0.3857 -0.0153
 3728W        W24008   6.762  19.061   2.273  0.1418 -0.4486  0.0818
 3729W        W24009  17.936   3.871   0.656 -0.1019 -0.3485  0.2052
 3730W        W24010   2.501   0.637   2.893 -0.0977  0.1349  0.0877
 3731W        W24011  10.959   3.822   2.056 -0.5562 -0.0819 -0.0780
 3732W        W24012   9.042  17.682   0.523 -0.0786  0.0063 -0.1472
 3733W        W24013  11.789  17.857   0.223 -0.0389 -0.3668  0.1168
 3734W        W24014   8.802   1.304  13.705  0.1713 -0.0276  0.2321
 3735W        W24015  19.492   8.691   3.135 -0.0211  0.2159 -0.1075
 3736W        W24016  12.496  12.623   0.071 -0.0495  0.0892  0.2845
 3737W        W24017   0.379  18.446  13.445  0.0688  0.2327  0.0767
 3738W        W24018   3.681  15.973   0.993  0.0668 -0.1407  0.2179
 3739W        W24019  16.090   5.425  13.027 -0.0323  0.0759 -0.0650
 3740W        W24020  10.432  13.117  10.641 -0.0139 -0.0245  0.0315
 3741W        W24021   0.341  13.829  11.637 -0.0273  0.1612  0.0780
 3742W        W24022   9.643  16.606   0.106  0.3794  0.3491 -0.2961
 3743W        W24023   2.706  11.109  13.309  0.2730 -0.1357 -0.0170
 3744W        W24024  16.981   4.126  12.566  0.0357  0.2089  0.2403
 3745W        W24025  12.103  16.692  12.666  0.4544  0.0105 -0.0210
 3746W        W24026  12.435  14.614   1.467 -0.0054  0.1169 -0.2656
 3747W        W24027  18.502  14.880  12.316  0.1579 -0.0692 -0.1102
 3748W        W24028   9.803   4.241  13.583  0.3126 -0.1463  0.1229
 3749W        W24029  17.830   6.805   3.722 -0.1745  0.3072 -0.2987
 3750W        W24030  15.958  18.446  13.363  0.1765  0.2517  0.0408
 3751W        W24031  12.896  13.464  12.459  0.0231  0.0208 -0.1814
 3752W        W24032  11.479  19.331  10.882  0.3554  0.1668  0.3304
 3753W        W24033   3.883  12.970  13.972  0.0547  0.5623  0.0721
 3754W        W24034   2.555  13.940   2.112  0.2014 -0.0421  0.2582
 3755W        W24035   8.118  12.741   3.058  0.0449 -0.1541  0.0808
 3756W        W24036  16.856  17.615  13.113  0.2055 -0.1132  0.0466
 3757W        W24037   5.235   8.269  11.278 -0.0052 -0.0644  0.6010
 3758W        W24038   1.844   9.439  10.747  0.0168  0.1389  0.0244
 3759W        W24039  19.659   3.612   1.720  0.1287  0.1045 -0.0881
 3760W        W24040  16.058  10.794  13.051 -0.0285  0.2093  0.0964
 3761W        W24041  18.012  16.983  10.716 -0.0670  0.0600  0.2723
 3762W        W24042   8.372   3.353  10.383 -0.1238 -0.1596  0.0571
 3763W        W24043  13.261   9.391  11.147 -0.1563  0.0671  0.1400
 3764W        W24044  14.087   7.174   0.597  0.3724  0.2680  0.3078
 3765W        W24045   4.517  12.760   2.518  0.0563  0.2720  0.0663
 3766W        W24046  10.202   5.224   2.327  0.1214  0.1974  0.1447
 3767W        W24047   0.333   1.763  13.852 -0.0385 -0.1344 -0.0399
 3768W        W24048   0.810  19.070   2.852 -0.3334 -0.0893 -0.0287
 3769W        W24049  19.704  13.308   3.066 -0.0423 -0.2236  0.0386
 3770W        W24050  14.489  14.652  12.245  0.0433 -0.2608  0.1177
 3771W        W24051   9.745  16.860  11.225 -0.1392 -0.2082  0.1918
 3772W        W24052  15.946  11.284  13.816  0.3532  0.0599 -0.1390
 3773W        W24053   3.430   7.517   4.292 -0.2800 -0.3697 -0.8115
 3774W        W24054  13.759  16.414  13.946  0.0152  0.1527 -0.1909
 3775W        W24055   2.111  17.547  13.129 -0.2875 -0.0996  0.1500
 3776W        W24056   6.483  11.972   2.790 -0.0512  0.1986 -0.1319
 3777W        W24057   8.110  15.425  13.151  0.2378  0.4916  0.0716
 3778W        W24058  19.546  15.870  11.363  0.1892 -0.1511 -0.1216
 3779W        W24059   4.081  13.493  12.242 -0.0601  0.1711 -0.3434
 3780W        W24060  15.352   6.999  11.496  0.2990  0.1800  0.1674
 3781W        W24061  13.367   3.395  11.536 -0.2594 -0.0407 -0.1904
 3782W        W24062  10.195  15.907   1.238  0.1108  0.1311  0.0921
 3783W        W24063  13.127  12.328  13.555  0.0229 -0.2318  0.0581
 3784W        W24064   0.001  18.772   0.205 -0.3199  0.1719 -0.1473
 3785W        W24065  13.834  18.571   1.856 -0.3004 -0.1572 -0.1854
 3786W        W24066   2.315   2.052  14.103  0.0128 -0.0202  0.0986
 3787W        W24067   8.828  12.794  12.226  0.2383  0.2800 -0.0108
 3788W        W24068   4.735   5.373  14.006  0.1915 -0.0125 -0.0801
 3789W        W24069   9.174   8.996   0.512  0.0723  0.1239 -0.2354
 3790W        W24070   7.337   3.826   0.025  0.3996  0.0137  0.1332
 3791W        W24071  15.717   8.625  13.963  0.1412  0.0123  0.0604
 3792W        W24072  15.618  14.955   1.437 -0.3312  0.0736  0.0645
 3793W        W24073   7.957   8.561  12.289  0.1057  0.1544  0.0311
 3794W        W24074   0.711   8.336   0.566 -0.0807 -0.3134  0.0858
 3795W        W24075  15.025  16.543  12.274 -0.0558 -0.5316 -0.1902
 3796W        W24076  16.988   6.913  12.313 -0.0771  0.0598 -0.1445
 3797W        W24077   4.675   9.058  12.561 -0.1876  0.1612 -0.1513
 3798W        W24078   6.119  15.009   1.767 -0.1286 -0.1455  0.1909
 3799W        W24079   4.060   2.635   0.542 -0.0791 -0.1052 -0.0280
 3800W        W24080   8.744  10.965  13.916  0.1271 -0.1108 -0.2396
 3801W        W24081  10.078  14.254  13.069  0.0011 -0.0545 -0.0825
 3802W        W24082   5.344   3.480   2.383  0.1009 -0.3311 -0.0041
 3803W        W24083  18.188  17.085  10.273  0.0708  0.1879  0.1507
 3804W        W24084  18.787   8.060   0.390 -0.2903 -0.1158  0.0441
 3805W        W24085  11.249   8.555   0.174  0.1286  0.1338 -0.1738
 3806W        W24086   4.898  15.513   2.318  0.0142  0.2023  0.0316
 3807W        W24087  10.257  13.562   1.127 -0.0592 -0.0381  0.0674
 3808W        W24088   5.435   0.357  10.981  0.0595 -0.2026 -0.0062
 3809W        W24089   1.694   6.625  12.995  0.2212  0.1732  0.1754
 3810W        W24090   9.996   5.516   2.689  0.1811  0.1735 -0.3085
 3811W        W24091  11.208   6.922   0.661 -0.1617 -0.1186 -0.0184
 3812W        W24092   5.746   8.874  13.843 -0.2020 -0.1105  0.1320
 3813W        W24093  15.030   4.705  13.560 -0.0713  0.2016  0.0858
 3814W        W24094   0.855   0.181   3.738  0.0065  0.0089  0.2545
 3815W        W24095   3.561   6.547   3.239  0.2933 -0.0307 -0.1145
 3816W        W24096  11.701  18.175  11.961  0.2649  0.0354  0.0221
 3817W        W24097   5.414   2.306   2.937 -0.0701 -0.0960 -0.1912
 3818W        W24098   6.622   6.580  11.992 -0.0350 -0.3987 -0.1722
 3819W        W24099  16.437   1.908   1.301  0.1157  0.2432  0.0386
 3820W        W24100   5.297  13.360  12.836 -0.2231 -0.0357  0.1145
 3821W        W24101  18.368   0.376   9.140 -0.0942 -0.2103  0.0560
 3822W        W24102   1.396  16.148   0.768 -0.1022 -0.2702 -0.0982
 3823W        W24103  13.360   7.732   2.368  0.1194 -0.1171 -0.1657
 3824W        W24104  18.348  17.119   0.450  0.1871  0.0348  0.2410
 3825W        W24105   0.790   4.812  11.246  0.0319 -0.0088 -0.2600
 3826W        W24106  13.922   9.777   2.842 -0.1830  0.2500 -0.1268
 3827W        W24107  11.472  11.496  12.394 -0.1476  0.2192  0.1773
 3828W        W24108   2.724   7.602   0.890  0.1143 -0.2617 -0.0667
 3829W        W24109   1.771  15.220  12.155 -0.0179 -0.1428  0.3214
 3830W        W24110   0.007  12.364   0.255  0.0800 -0.1752  0.1018
 3831W        W24111  17.417  11.028  10.529  0.0687  0.0016  0.0522
 3832W        W24112  18.611   2.590  13.391 -0.2058  0.0467  0.1498
 3833W        W24113   0.545   0.213   2.079  0.2526 -0.0915 -0.0125
 3834W        W24114  15.860  16.083   1.966 -0.1491 -0.2108 -0.1140
 3835W        W24115   6.258   6.046  11.278 -0.2574 -0.0578  0.0167
 3836W        W24116  11.069  19.367  10.492 -0.0122  0.1427  0.4110
 3837W        W24117  19.494  17.852   2.705  0.1338  0.3379  0.1348
 3838W        W24118   7.770   7.518   2.137  0.2340  0.1470  0.1920
 3839W        W24119   3.693   9.243  13.064  0.1444  0.1293 -0.0864
 3840W        W24120  15.134  10.645   2.346  0.0464 -0.1136  0.3145
 3841W        W24121  12.192   9.363  12.098  0.0289 -0.1241 -0.1573
 3842W        W24122  18.409  16.837   2.038  0.0827  0.0504 -0.0744
 3843W        W24123  17.905  15.571  11.908  0.0236  0.2107  0.1234
 3844W        W24124   9.048   8.789  11.337  0.1577 -0.1342  0.1868
 3845W        W24125   5.480   4.507  12.794 -0.0087 -0.3925 -0.1248
 3846W        W24126  11.560   5.740  12.075 -0.3382 -0.2670  0.0654
 3847W        W24127  11.103   4.458   0.362  0.1290  0.1449  0.2946
 3848W        W24128   1.495   4.790   0.890  0.0221 -0.0533 -0.1710
 3849W        W24129  13.745   1.501  13.974  0.2193 -0.0210 -0.1784
 3850W        W24130  16.639  16.658  13.275  0.0483 -0.1979 -0.0085
 3851W        W24131  15.491   8.859  11.061  0.3627  0.0046 -0.1783
 3852W        W24132   5.606   7.679   3.527 -0.0448  0.0499 -0.0817
 3853W        W24133   0.197  10.106  11.920 -0.1459  0.0837 -0.0095
 3854W        W24134   9.379  18.261   4.342  0.0801 -0.0237 -0.0569
 3855W        W24135   2.578   1.609  14.025 -0.0891 -0.1371  0.0154
 3856W        W24136   6.178  14.711   2.388  0.2470 -0.1568  0.0617
 3857W        W24137  14.702   6.430  12.604 -0.3741  0.0332 -0.1203
 3858W        W24138  18.877  15.669  10.086  0.1974  0.1516  0.0398
 3859W        W24139  16.203   6.858  14.056 -0.1442  0.1001 -0.1627
 3860W        W24140  11.263   3.049   1.041 -0.2571  0.2899 -0.1983
 3861W        W24141   4.241  16.190  10.791 -0.0170 -0.0633 -0.1878
 3862W        W24142   4.079  13.507  12.952  0.2259  0.1673 -0.3544
 3863W        W24143  15.140  18.942   0.134 -0.0227  0.2389 -0.3609
 3864W        W24144   0.922  11.679  11.142 -0.1026 -0.3470 -0.0281
 3865W        W24145   2.684   6.890   0.881 -0.2267 -0.0089 -0.0809
 3866W        W24146   3.082   8.545   3.344 -0.2382 -0.4261 -0.1882
 3867W        W24147   8.775   9.866   1.257  0.4139  0.3659  0.3197
 3868W        W24148   8.176  16.196   1.329  0.0331 -0.3588 -0.0581
 3869W        W24149  16.267   5.169   0.471  0.2709  0.0408 -0.1550
 3870W        W24150   4.317  14.054  13.332  0.0171 -0.2233 -0.1160
 3871W        W24151   7.627   0.366  11.791  0.2723  0.0530 -0.0302
 3872W        W24152  16.458   6.499  12.487 -0.0379  0.0057  0.4974
 3873W        W24153  14.012  19.473  11.034 -0.0431  0.1649 -0.1499
 3874W        W24154   1.900   7.349   4.597 -0.2624  0.0306  0.1227
 3875W        W24155   7.268   9.126   4.232 -0.2171 -0.0030  0.0927
 3876W        W24156   1.777  10.004   3.723 -0.1915 -0.2044 -0.0504
 3877W        W24157   0.014  15.379  11.805  0.1387  0.0019 -0.1845
 3878W        W24158  16.936  11.389  11.179  0.2434 -0.2319  0.4205
 3879W        W24159  10.185  17.806   3.619  0.0252  0.0154  0.3730
 3880W        W24160   6.000  17.596   1.163  0.0955  0.1084  0.2164
 3881W        W24161   5.351  13.567   1.623  0.0382 -0.1402 -0.0253
 3882W        W24162  15.712  15.290  10.909 -0.1265  0.0225 -0.0556
 3883W        W24163  18.268   6.689   2.717  0.2520 -0.1972  0.1651
 3884W        W24164   7.762  11.080  11.593  0.0286 -0.0135  0.2404
 3885W        W24165   2.065  19.626   2.372 -0.2711 -0.1171  0.2387
 3886W        W24166  12.198  19.535  11.748 -0.0485 -0.1775  0.0921
 3887W        W24167   3.912   7.417  12.787 -0.2300 -0.3243  0.2053
 3888W        W24168  11.189  13.587  12.744  0.2871 -0.0671  0.1958
 3889W        W24169   4.645  18.862  12.524 -0.0180  0.0837 -0.0484
 3890W        W24170   5.875  14.598   0.289 -0.1171  0.0909  0.4151
 3891W        W24171   0.071   6.821  13.709  0.0700 -0.0603 -0.3298
 3892W        W24172   6.517  11.987   1.251 -0.1776  0.0231  0.3130
 3893W        W24173  18.500  19.396  11.801 -0.2061  0.2256 -0.1828
 3894W        W24174  10.030  11.345   1.600 -0.2199  0.3007  0.0188
 3895W        W24175   3.120  13.289   1.567 -0.2633  0.0295 -0.1244
 3896W        W24176   4.700   6.271  13.375 -0.1079  0.2632 -0.0674
 3897W        W24177  17.770  16.799  12.395  0.2557 -0.3773 -0.0598
 3898W        W24178   8.136   6.453  11.218 -0.0309  0.0895  0.1679
 3899W        W24179  11.119  17.271  12.140  0.1743 -0.0457  0.3038
 3900W        W24180   3.469  18.892   4.310  0.0326  0.2473  0.2392
 3901W        W24181   8.194   0.157   3.435 -0.0187 -0.3071  0.0498
 3902W        W24182  18.312   8.813   0.745  0.0446 -0.1114 -0.2142
 3903W        W24183   7.927  13.609  11.482  0.0853 -0.1536  0.0952
 3904W        W24184  14.621  13.200   1.717  0.0443 -0.2810  0.0512
 3905W        W24185   3.355   4.550  11.723  0.0689 -0.2131 -0.0098
 3906W        W24186  16.083  16.101  11.253  0.2125 -0.2365 -0.3504
 3907W        W24187   9.676  14.123   3.642 -0.0972  0.0393 -0.0874
 3908W        W24188   3.197   1.373  13.447  0.1403  0.0338 -0.0995
 3909W        W24189   1.977  19.665   3.064 -0.0776 -0.0810  0.0624
 3910W        W24190   9.147   3.302   2.659 -0.2712 -0.0860  0.4388
 3911W        W24191   5.040   5.668  10.978  0.0265 -0.1174 -0.1845
 3912W        W24192  15.857   5.793   1.520 -0.3348  0.1817  0.1010
 3913W        W24193  14.400  15.759  13.732  0.4382  0.0387 -0.1795
 3914W        W24194  12.643  13.691   2.321  0.1352 -0.2396  0.0032
 3915W        W24195  15.648  18.782  13.911 -0.1353 -0.2669  0.0781
 3916W        W24196   3.446  16.552  13.083 -0.2523  0.1958  0.1150
 3917W        W24197   8.692  18.568   2.255  0.1934  0.0714 -0.0257
 3918W        W24198  11.023   6.147   1.792  0.1504 -0.0739 -0.0302
 3919W        W24199   3.146  19.171   1.382 -0.0544  0.0774 -0.1967
 3920W        W24200  16.837  16.904  12.517  0.2418 -0.2810 -0.0522
 3921W        W24201   9.912   2.608  10.636  0.2345  0.1107 -0.2509
 3922W        W24202  15.412   5.104  12.263  0.0417 -0.3683  0.3392
 3923W        W24203   1.355   9.411  13.401 -0.4535 -0.0680 -0.0573
 3924W        W24204  17.476  13.345   1.870  0.0794 -0.0043  0.0003
 3925W        W24205  11.614  16.211  12.003  0.0461  0.0608 -0.0531
 3926W        W24206   2.540   2.941  11.892 -0.1588  0.0291 -0.3405
 3927W        W24207  17.806   3.010  11.149  0.0400  0.1352 -0.1852
 3928W        W24208  12.659   0.490   0.591  0.2494  0.1217 -0.0676
 3929W        W24209   9.393   1.424  10.986  0.3007 -0.2479 -0.2090
 3930W        W24210  10.649  12.781   9.637  0.1026 -0.0480  0.2665
 3931W        W24211  17.348   4.404  12.102 -0.0988 -0.0976  0.0985
 3932W        W24212   2.978  11.388  11.559  0.1340 -0.0036 -0.3490
 3933W        W24213   5.500  13.885  12.983  0.0221 -0.0496 -0.1330
 3934W        W24214   3.109   4.609  13.600 -0.1050 -0.0350  0.2403
 3935W        W24215  18.422   8.182  14.089 -0.1814 -0.3051 -0.0830
 3936W        W24216   3.741  13.734  12.663 -0.1424 -0.0093  0.0404
 3937W        W24217   1.066   5.009   0.653 -0.2658 -0.1246  0.2001
 3938W        W24218  14.241  12.800  12.809 -0.1974 -0.2473 -0.1626
 3939W        W24219  14.428  18.376   2.828 -0.2140  0.2062 -0.1454
 3940W        W24220  19.606   5.372   1.489  0.0119 -0.0284  0.0592
 3941W        W24221  17.808  12.733  12.329 -0.2446 -0.1469  0.3725
 3942W        W24222  19.378   7.946   1.672  0.0149 -0.0232  0.0914
 3943W        W24223   4.267   3.309  14.039  0.1947  0.1133  0.0565
 3944W        W24224  12.942  18.028   1.567  0.2818 -0.1686  0.2443
 3945W        W24225   6.730  11.709   9.434  0.1896 -0.0066 -0.0538
 3946W        W24226  14.486  12.658   1.594  0.2917 -0.1244  0.1331
 3947W        W24227  14.581   3.553   2.695  0.0017  0.2756 -0.1589
 3948W        W24228   2.772   7.125  12.473 -0.0757 -0.2473 -0.0366
 3949W        W24229   1.453   4.978  13.969  0.1652 -0.0452 -0.1593
 3950W        W24230  18.001   4.921  12.114 -0.4180  0.0580 -0.1184
 3951W        W24231  10.772   2.684  13.321 -0.3191 -0.1020  0.2144
 3952W        W24232   2.771   5.585   3.822  0.2449 -0.0075  0.1270
 3953W        W24233   3.753  11.352   2.442  0.1026 -0.0913  0.2536
 3954W        W24234   8.475  11.112   0.377  0.0001 -0.0689  0.3113
 3955W        W24235  11.771  14.079  13.401  0.0847 -0.0362  0.3225
 3956W        W24236   8.971  17.973   1.505  0.1925  0.0416 -0.1311
 3957W        W24237  17.726  16.985   9.384  0.0109 -0.0988 -0.1689
 3958W        W24238  15.620  14.535  13.290 -0.1927 -0.0815 -0.1434
 3959W        W24239  16.654   9.008  12.950  0.1929  0.0679 -0.2788
 3960W        W24240  13.135   8.958   1.326  0.1735 -0.0529  0.2429
 3961W        W24241   3.092  18.415  10.213  0.1163 -0.2047 -0.1482
 3962W        W24242   2.724   7.707   2.998 -0.3107  0.1181 -0.3481
 3963W        W24243   4.419   3.700   0.369  0.3475  0.1818 -0.1287
 3964W        W24244   9.035   2.682  13.908 -0.0720 -0.3022 -0.0925
 3965W        W24245   7.075   2.822   3.856 -0.0358 -0.1691 -0.2889
 3966W        W24246   2.161   6.049   3.063  0.0138  0.2864 -0.1440
 3967W        W24247  15.769  14.970   0.712 -0.1570 -0.0200  0.0882
 3968W        W24248   3.575  19.125  11.296 -0.3092 -0.3118 -0.2926
 3969W        W24249   9.089   6.654   0.417 -0.2465 -0.2108 -0.0822
 3970W        W24250  13.332   6.016   0.504  0.4461 -0.2226  0.0952
 3971W        W24251  11.805  13.481   0.874 -0.1022  0.2954 -0.0323
 3972W        W24252  10.142  10.301  12.971  0.2078  0.2232  0.1281
 3973W        W24253   3.265   4.385   1.861  0.0624 -0.1877  0.2665
 3974W        W24254   7.572   3.312   0.995  0.0508  0.2813 -0.2120
 3975W        W24255  18.403  15.828  12.368 -0.0562  0.3432 -0.1640
 3976W        W24256  19.461   5.171  12.324  0.3508 -0.1570  0.3942
 3977W        W24257  14.610  13.134   1.203  0.0114  0.2144  0.0443
 3978W        W24258   9.646   3.075   2.195  0.2778 -0.0361  0.1832
 3979W        W24259  19.155   4.872   0.569  0.0961  0.0414  0.0586
 3980W        W24260  16.272   8.689  10.390  0.1200  0.0123  0.1305
 3981W        W24261   2.814  17.567  12.779 -0.1172 -0.4718 -0.2476
 3982W        W24262   1.822   6.945   3.886  0.1551  0.2050 -0.1271
 3983W        W24263   1.094   8.026  11.985 -0.0521 -0.0753 -0.0124
 3984W        W24264   6.481   7.847   3.434  0.0694 -0.2724 -0.2085
 3985W        W24265   9.938  14.248   0.016 -0.0798  0.2576  0.1805
 3986W        W24266   8.468   6.712  13.015 -0.1155 -0.2625 -0.0111
 3987W        W24267  13.601  13.986   0.074 -0.0907  0.0585  0.1619
 3988W        W24268   7.836   2.611   4.360 -0.4700 -0.1499  0.0843
 3989W        W24269   3.478   9.620  12.206 -0.1566 -0.1099  0.0681
 3990W        W24270  14.852  10.425   0.656  0.0413 -0.1632 -0.2046
 3991W        W24271   4.837   3.241  12.999 -0.0921 -0.2167 -0.0192
 3992W        W24272  13.891  10.898  11.188 -0.1083 -0.0387  0.0097
 3993W        W24273   4.852  12.153   0.301  0.5527  0.1730  0.1019
 3994W        W24274   0.960  14.199   1.969  0.0773 -0.2250 -0.0742
 3995W        W24275  10.419   4.683  10.682 -0.2400 -0.1468 -0.2714
 3996W        W24276  18.512  13.788  10.774  0.1411 -0.2769 -0.2427
 3997W        W24277  19.494   6.996   0.201  0.0255  0.2302  0.5108
 3998W        W24278  19.168  18.030  11.518 -0.0280 -0.1046 -0.2102
 3999W        W24279   6.488   7.252  10.354 -0.1349 -0.1012 -0.0355
 4000W        W24280  10.781   7.476  11.083  0.1411  0.2872 -0.0274
 4001W        W24281  16.720  11.876   1.391  0.0173 -0.0653  0.0880
 4002W        W24282  10.790   3.370  10.384 -0.0523  0.1198 -0.1415
 4003W        W24283  10.695   7.504  13.641 -0.4521  0.1067 -0.1526
 4004W        W24284   6.692   0.701   2.309 -0.0118  0.2371  0.0127
 4005W        W24285   4.520   1.726   3.863  0.0267  0.0356 -0.1837
 4006W        W24286  19.288  10.569  10.771  0.2646  0.0357  0.2513
 4007W        W24287   1.081   2.946  12.583 -0.2196 -0.0582  0.1646
 4008W        W24288  15.012   8.028  11.412 -0.1789 -0.0925 -0.0579
 4009W        W24289  15.461  11.082  12.212 -0.0638  0.1733  0.0070
 4010W        W24290  10.313   0.022  13.754  0.0076  0.3764  0.3735
 4011W        W24291   1.265   8.367   1.056 -0.0259 -0.1141 -0.4256
 4012W        W24292   0.703   0.594   2.354 -0.2166  0.1569  0.0207
 4013W        W24293   9.584   0.865   0.680 -0.0889 -0.4823 -0.0585
 4014W        W24294  10.924  17.942   0.450  0.0259 -0.0232 -0.3837
 4015W        W24295   5.767   8.026   1.685 -0.1072  0.3266  0.2175
 4016W        W24296   6.038  14.697  12.967  0.2942  0.2619  0.1053
 4017W        W24297  16.498  17.266  11.607 -0.2753 -0.0988  0.1032
 4018W        W24298   1.256   9.004  13.011  0.0925 -0.0464 -0.1698
 4019W        W24299  11.709  19.324   0.531 -0.0735 -0.4442  0.2189
 4020W        W24300  17.324  12.386   2.176 -0.1772 -0.1085 -0.3822
 4021W        W24301   4.962  11.927  11.868 -0.5110  0.2665  0.1304
 4022W        W24302  16.533  15.005  11.938  0.0469  0.2015 -0.0966
 4023W        W24303  19.446   7.385  11.824  0.1622 -0.1248 -0.0385
 4024W        W24304  17.886  11.979  11.995  0.0732 -0.1639 -0.0596
 4025W        W24305   6.319   8.789   2.575  0.0363  0.2450  0.2619
 4026W        W24306   0.888  17.650   0.363  0.1697 -0.0217  0.0692
 4027W        W24307  18.381  14.235  11.929  0.0545 -0.2976 -0.1611
 4028W        W24308  15.357   6.960   0.207  0.0561 -0.0592 -0.1124
 4029W        W24309   6.322   7.773   1.296 -0.0952  0.1183  0.1157
 4030W        W24310  16.422  15.500  10.302 -0.3193  0.0589  0.1058
 4031W        W24311  14.074  16.177   2.439 -0.0318  0.4584  0.0962
 4032W        W24312   8.170  10.252   2.593  0.0444  0.2784 -0.0256
 4033W        W24313   5.626  18.406  12.129  0.0556  0.1685 -0.4424
 4034W        W24314   0.437  17.279   2.217 -0.2005  0.0136  0.2275
 4035W        W24315   3.582   1.411   1.420 -0.1180  0.1357  0.1950
 4036W        W24316  10.924   4.518  10.554 -0.1919  0.0620  0.1425
 4037W        W24317   3.747   4.533   1.788 -0.1454 -0.0435  0.1147
 4038W        W24318  18.038  10.241  12.084 -0.2611  0.1132 -0.1710
 4039W        W24319   9.243   1.339   9.032  0.1907  0.2605  0.2550
 4040W        W24320  14.222   0.021   3.027 -0.2081 -0.0161  0.0185
 4041W        W24321  16.393   6.489  10.133  0.0960 -0.2990  0.2560
 4042W        W24322   0.436   5.269  11.254 -0.4006 -0.0547 -0.4389
 4043W        W24323  11.748  12.680   3.616 -0.0638 -0.2170  0.0055
 4044W        W24324  13.600  11.661   1.007  0.2109  0.2234  0.1844
 4045W        W24325   3.806  15.495   0.876  0.0665 -0.3827 -0.1342
 4046W        W24326  19.670   8.815  10.995 -0.1285 -0.1992 -0.2333
 4047W        W24327   3.046  16.478   1.010  0.2690 -0.1548 -0.2314
 4048W        W24328   7.712   8.920   4.407 -0.0292  0.0906 -0.0236
 4049W        W24329  16.457  14.165   1.597 -0.3929 -0.1084  0.0149
 4050W        W24330  15.603   6.644   2.929  0.0239 -0.0134  0.1590
 4051W        W24331   1.695  12.038  13.168  0.0491  0.3016  0.3563
 4052W        W24332  14.181   3.786   1.735  0.2749  0.1944  0.1739
 4053W        W24333  10.969  12.663   3.463 -0.1136  0.2034  0.2972
 4054W        W24334   8.142  13.869  13.960 -0.2071 -0.1300 -0.0083
 4055W        W24335  10.825  19.507   2.499  0.0679  0.0341 -0.3659
 4056W        W24336  13.271  18.855   9.290 -0.1198  0.0898  0.3319
 4057W        W24337  17.550  12.098   0.933 -0.0469 -0.0741 -0.0189
 4058W        W24338  17.065  11.932  12.199  0.0837  0.3551 -0.1022
 4059W        W24339   1.695  14.292   0.812 -0.0901  0.0321  0.1850
 4060W        W24340  11.461  10.497  11.926 -0.0305  0.1171 -0.2587
 4061W        W24341   9.837  13.532  11.393  0.1627  0.0176  0.2248
 4062W        W24342  14.235   3.728   8.965 -0.1286  0.0557  0.2084
 4063W        W24343  16.343  14.128  12.181 -0.0181 -0.1553  0.1126
 4064W        W24344  15.469  18.348  12.962  0.1115 -0.0591  0.2567
 4065W        W24345   6.652   3.451  12.756 -0.1200  0.2713 -0.2260
 4066W        W24346   0.694   7.321  11.358  0.0873 -0.0220 -0.2769
 4067W        W24347  10.898  15.512  11.590  0.2166 -0.3092  0.1676
 4068W        W24348   5.935   1.745   2.402 -0.1044  0.0434 -0.2211
 4069W        W24349  10.129   6.302  13.049  0.0910  0.0124  0.0777
 4070W        W24350  10.961  10.484   0.334  0.0508 -0.3375  0.0292
 4071W        W24351  14.035   4.330   0.401 -0.1819 -0.0014  0.2384
 4072W        W24352   7.931   6.313   2.983 -0.2125  0.2045  0.2882
 4073W        W24353  12.851   6.944   1.110  0.1816  0.0928  0.0554
 4074W        W24354   9.803  19.773  13.693  0.2462 -0.0559  0.2894
 4075W        W24355  16.559   6.183  11.140  0.0390 -0.2569 -0.1250
 4076W        W24356   0.057  12.652  11.578 -0.0756 -0.0865 -0.0495
 4077W        W24357  16.669   4.175  13.554  0.0873  0.2155  0.1909
 4078W        W24358  18.535  14.970   3.614  0.1132  0.0646  0.2453
 4079W        W24359  12.593  12.958   3.876 -0.0275 -0.1128 -0.0019
 4080W        W24360  11.298   7.086  12.694  0.0436  0.1867  0.1036
 4081W        W24361  18.120   2.016  11.633 -0.5393 -0.1994  0.1112
 4082W        W24362  16.597  12.094   2.061  0.2329 -0.0599 -0.1863
 4083W        W24363  14.575  16.808  10.485  0.0632 -0.1700 -0.0197
 4084W        W24364   8.035   0.839  11.928  0.0944  0.3312  0.0294
 4085W        W24365   5.558   2.988   2.411 -0.0097 -0.2948  0.0734
 4086W        W24366  13.008  16.393   1.121  0.1653  0.1749 -0.0838
 4087W        W24367  13.835  10.893   3.518 -0.2647  0.0073  0.0951
 4088W        W24368   5.446   8.902   0.097 -0.2046  0.3061  0.2052
 4089W        W24369   5.513  18.921  12.136 -0.1405  0.2662  0.1201
 4090W        W24370   5.488  18.215   2.633 -0.1582 -0.1875  0.3165
 4091W        W24371   8.914  19.188  11.801 -0.1804  0.0927  0.1020
 4092W        W24372  11.166   4.274   1.796 -0.2000 -0.2041  0.1608
 4093W        W24373   6.102  18.125  13.196  0.0749 -0.1286  0.4468
 4094W        W24374  11.380   5.071   1.555  0.1566 -0.1568 -0.0025
 4095W        W24375  11.575  18.841   3.168 -0.0656  0.0167  0.0978
 4096W        W24376   0.506  11.323   0.757 -0.0438 -0.1624  0.1282
 4097W        W24377  17.557  19.270  10.960 -0.3763  0.0879 -0.3351
 4098W        W24378   3.104   8.286   3.848  0.0891 -0.5217  0.1306
 4099W        W24379  10.152   7.527   4.471  0.2355 -0.0761 -0.2949
 4100W        W24380   0.869  16.929   3.548 -0.0032  0.0786 -0.0112
 4101W        W24381  10.721  11.290  10.972  0.1569  0.1170 -0.0971
 4102W        W24382  18.899   7.941   2.075 -0.1759  0.1625  0.1213
 4103W        W24383  10.317  17.943  10.980 -0.2257  0.0052  0.0400
 4104W        W24384  17.905   4.264  13.811  0.0169 -0.1285 -0.1925
 4105W        W24385   9.731   8.841   2.568  0.0430 -0.0657 -0.1391
 4106W        W24386   1.201   1.312  10.576 -0.1181  0.1290 -0.0452
 4107W        W24387  15.522   0.956   0.852  0.2173 -0.0003  0.0629
 4108W        W24388   4.525   3.237  12.099 -0.0225  0.1632 -0.0412
 4109W        W24389  11.872   9.142   0.682 -0.2660  0.0087  0.0963
 4110W        W24390   5.521   5.775  11.733  0.0993  0.0649  0.1180
 4111W        W24391   1.266  15.169   0.410 -0.0928 -0.2472 -0.0961
 4112W        W24392   1.779   1.186   2.876  0.2007  0.1028  0.0686
 4113W        W24393  14.501  17.582  13.495 -0.0165 -0.1164  0.3669
 4114W        W24394  13.111  10.925   3.287 -0.0917  0.1226  0.0710
 4115W        W24395   9.959   2.802   2.526 -0.2289  0.1213  0.0165
 4116W        W24396   5.731  15.218   1.602  0.0176 -0.0219  0.0890
 4117W        W24397  13.415   5.410  10.196 -0.1478  0.0931  0.0219
 4118W        W24398   4.569  14.001   1.773 -0.0961  0.1140 -0.0083
 4119W        W24399   1.751   5.829   4.160 -0.3695 -0.0029 -0.0532
 4120W        W24400  14.093   0.047   2.583 -0.0294  0.0394  0.2002
 4121W        W24401   6.125   3.499  10.098  0.2217 -0.2464 -0.2792
 4122W        W24402  15.005  15.128   2.792 -0.4540  0.1237 -0.0898
 4123W        W24403  10.659   6.002  12.337  0.3627 -0.0287 -0.3887
 4124W        W24404  11.264  19.087  11.951 -0.0598 -0.1580  0.1908
 4125W        W24405   1.138  16.206  13.527 -0.1225 -0.0461 -0.2081
 4126W        W24406  12.990  13.822   2.649 -0.0603 -0.0903  0.0540
 4127W        W24407   2.084   1.717  10.398  0.3225 -0.1838  0.1503
 4128W        W24408   2.251  15.981   3.859 -0.0478 -0.0709 -0.1299
 4129W        W24409   3.800  16.984  11.102  0.2021  0.2007 -0.0301
 4130W        W24410  11.479   6.394   0.888 -0.0684 -0.1968  0.0386
 4131W        W24411  11.755  15.387  11.572  0.0332  0.0335 -0.0426
 4132W        W24412  14.183   1.034  13.861  0.0470 -0.1140  0.2675
 4133W        W24413   8.587  19.601   2.422 -0.0594  0.0830 -0.2735
 4134W        W24414  13.042  17.405   0.801 -0.1320 -0.0433  0.3107
 4135W        W24415   0.095  16.883  12.315 -0.0462  0.1947  0.1169
 4136W        W24416  17.520  16.121  13.659  0.1665  0.0168 -0.3060
 4137W        W24417   2.287   1.808  10.950 -0.1754 -0.2993 -0.2556
 4138W        W24418   1.977   2.193  10.353 -0.1583  0.0598  0.3245
 4139W        W24419  11.558  19.562  13.459  0.1539 -0.4322 -0.1789
 4140W        W24420   3.174   7.613   1.376 -0.0780  0.0171 -0.0804
 4141W        W24421  13.215   8.037   3.258 -0.1557 -0.1225 -0.0102
 4142W        W24422  13.086  18.523   1.707  0.2223  0.2486  0.1502
 4143W        W24423   3.205  11.117  12.473  0.0619  0.0184  0.0213
 4144W        W24424   3.256  16.160  12.198  0.1691  0.0529 -0.0374
 4145W        W24425   6.883   7.255   9.344  0.1098  0.3123  0.0482
 4146W        W24426  12.784   8.430   0.942 -0.1584  0.0412 -0.1081
 4147W        W24427  13.871   3.417  11.094 -0.1959 -0.0890 -0.0151
 4148W        W24428  14.028   0.485   1.675 -0.0687  0.2780 -0.1937
 4149W        W24429  16.961   3.657  11.771  0.2520  0.0191 -0.1833
 4150W        W24430  12.508   0.639   3.452  0.2631  0.1751  0.1158
 4151W        W24431  11.604  11.781   2.438 -0.0907 -0.1768 -0.1543
 4152W        W24432   8.915  16.021  10.617  0.0132  0.0433 -0.0719
 4153W        W24433   7.619   7.424  11.646  0.3069 -0.1334 -0.1450
 4154W        W24434  11.832   3.193   2.373  0.0545  0.1053 -0.2420
 4155W        W24435  17.429   3.904  11.636  0.1528 -0.0024 -0.0385
 4156W        W24436   1.410  12.423  10.762  0.1062 -0.0653 -0.0694
 4157W        W24437  18.336  11.034   3.461 -0.2125  0.2853  0.1273
 4158W        W24438   8.936   4.326  12.433 -0.1875  0.2041  0.2194
 4159W        W24439   6.537  12.829   2.561 -0.3273  0.0312  0.2373
 4160W        W24440  15.326  11.488   1.960 -0.2625 -0.0643  0.1361
 4161W        W24441   9.484  14.052  13.861  0.3859 -0.2177 -0.1200
 4162W        W24442   1.047  16.827   0.947  0.1007 -0.1466 -0.0804
 4163W        W24443   2.264   5.408  11.874  0.0797  0.1493 -0.1066
 4164W        W24444  13.399   3.420  12.424 -0.3051  0.1420 -0.2775
 4165W        W24445  18.081   4.873   3.122  0.0837 -0.1623  0.0935
 4166W        W24446   4.024   9.921   3.841  0.2021  0.3713 -0.1191
 4167W        W24447   9.374  10.628   1.594 -0.1193  0.0701 -0.1114
 4168W        W24448  18.996  19.642  11.217 -0.2258  0.0822 -0.2097
 4169W        W24449  16.886   7.786  13.904 -0.0219  0.2113 -0.1146
 4170W        W24450  17.413  10.578   1.046  0.4228 -0.2142  0.1059
 4171W        W24451  19.669  18.285  10.372 -0.1864 -0.1598  0.0478
 4172W        W24452  15.192  12.819  12.725 -0.2741  0.1183  0.3470
 4173W        W24453   8.445  14.974  10.799 -0.1084  0.3918 -0.0540
 4174W        W24454  11.114  11.640   1.135  0.1612  0.0730  0.2280
 4175W        W24455  13.813  19.210   6.523  0.2602 -0.0315  0.0205
 4176W        W24456  10.750  18.654  10.464  0.1565 -0.0667  0.2012
 4177W        W24457   4.668  10.542   2.954 -0.0377 -0.2736  0.1853
 4178W        W24458   7.194  17.889  13.604 -0.1032  0.2254 -0.0343
 4179W        W24459   3.163  12.085   3.733 -0.3357 -0.0266 -0.2681
 4180W        W24460  17.910  10.016  14.003 -0.1548  0.0137  0.0503
 4181W        W24461  13.640   7.953   3.646  0.3670  0.1352  0.1924
 4182W        W24462   6.537   5.983  12.016 -0.0146 -0.0398  0.3646
 4183W        W24463   7.144   2.139  10.738  0.1421  0.1403 -0.0456
 4184W        W24464  17.161  14.133   3.461  0.3683 -0.1707 -0.0656
 4185W        W24465  10.548  19.185  11.286  0.3462  0.2280  0.2324
 4186W        W24466   6.376   4.801  13.525  0.2705  0.0909 -0.0345
 4187W        W24467   8.667  19.304   2.798 -0.1424 -0.0535 -0.1514
 4188W        W24468  14.660   5.691   2.940 -0.0106  0.3620 -0.1857
 4189W        W24469   5.870   4.931  13.597 -0.1432 -0.1007 -0.4253
 4190W        W24470  16.979   5.335   3.139 -0.1400 -0.0569  0.6391
 4191W        W24471  10.059   4.275   2.416 -0.4076 -0.0992  0.2516
 4192W        W24472   5.478   5.017  12.374  0.0881  0.0112  0.2314
 4193W        W24473   2.661  18.378  13.444 -0.0738  0.0113 -0.0437
 4194W        W24474  16.773   5.841   2.230 -0.3621  0.0141 -0.0558
 4195W        W24475   2.629  15.466  13.467  0.1141  0.2622  0.0088
 4196W        W24476  16.433  10.619  12.585 -0.0550  0.1234 -0.0614
 4197W        W24477  15.956  15.924   3.375  0.2320  0.0340 -0.2125
 4198W        W24478   4.031   9.806   2.416 -0.0149  0.0877 -0.0309
 4199W        W24479   4.001  19.331   3.493  0.0781  0.0291 -0.2256
 4200W        W24480  17.545   5.922  13.185 -0.2165  0.0578 -0.0954
 4201W        W24481   7.279   4.728   2.301  0.0440 -0.0105 -0.0735
 4202W        W24482  12.992   0.744  12.801  0.1459 -0.2341 -0.0584
 4203W        W24483   1.654  12.237   0.434  0.2273  0.0613 -0.3907
 4204W        W24484   2.663   3.192   1.282 -0.0540  0.0102  0.2248
 4205W        W24485   8.321   6.195   2.013  0.0373 -0.1860 -0.0145
 4206W        W24486  15.986  16.193   2.465  0.1123 -0.1551 -0.0972
 4207W        W24487  12.716  18.798   9.410 -0.1467 -0.3281  0.0912
 4208W        W24488   5.007   7.835  12.225  0.4637 -0.3152  0.0642
 4209W        W24489   7.511   4.128   1.180 -0.2697 -0.0381  0.0171
 4210W        W24490  16.070  11.201   0.763 -0.3883  0.0413  0.1228
 4211W        W24491   7.913  12.918   3.594 -0.1295  0.1435  0.3837
 4212W        W24492  11.418   8.252  13.284 -0.1733  0.3916 -0.1663
 4213W        W24493   8.892  16.554  13.775  0.1597  0.0932  0.0012
 4214W        W24494   3.340  18.440   0.371  0.1952 -0.3015 -0.1961
 4215W        W24495  12.534   2.917  12.206 -0.0336 -0.2594 -0.1927
 4216W        W24496   9.497   7.897  12.800  0.0942 -0.2247  0.0390
 4217W        W24497   3.855   3.822  11.383  0.1163 -0.2018 -0.0386
 4218W        W24498   1.426   9.543   2.341 -0.0601 -0.3062  0.0896
 4219W        W24499   6.824   2.328   3.727 -0.0292  0.2390 -0.4292
 4220W        W24500   5.993  16.476   0.517 -0.0933  0.1468 -0.3185
 4221W        W24501  19.361   3.898   0.245  0.1691 -0.3289 -0.2873
 4222W        W24502  17.968   2.268  12.638  0.1078 -0.0961 -0.0417
 4223W        W24503   9.854  19.782   1.674 -0.2706  0.2769 -0.0014
 4224W        W24504  13.440   3.840  13.998 -0.2355 -0.1354 -0.2494
 4225W        W24505   3.958   4.086   3.420 -0.1998 -0.1641  0.1548
 4226W        W24506   5.289  14.658   0.004 -0.4295  0.2226 -0.0839
 4227W        W24507  13.735  10.278  10.533 -0.2923 -0.0184  0.0907
 4228W        W24508   3.172   0.763  13.006  0.0336 -0.0787 -0.0682
 4229W        W24509   3.888   8.573   3.034 -0.0258  0.1133 -0.1440
 4230W        W24510   6.607  19.391  12.389 -0.3178  0.1789  0.3648
 4231W        W24511   4.178   7.861  12.745  0.0170  0.0306  0.3793
 4232W        W24512   6.913  14.839   3.035 -0.1248 -0.0637  0.0517
 4233W        W24513   7.416   1.182   1.757  0.1932 -0.2255  0.0730
 4234W        W24514  15.112  16.569   3.171  0.0201 -0.0855 -0.1374
 4235W        W24515  18.287  12.500   3.441  0.3591 -0.2223 -0.1582
 4236W        W24516   3.347  15.622   2.676  0.0457 -0.0729  0.3656
 4237W        W24517  13.994   5.622  12.363  0.3072 -0.0155  0.1083
 4238W        W24518   6.265   8.791  10.864  0.0423  0.2537  0.3199
 4239W        W24519   0.353  15.546   9.558  0.0915  0.2270  0.0013
 4240W        W24520  14.351  13.097  10.737 -0.0842  0.0457 -0.1709
 4241W        W24521   4.476   8.642  12.257 -0.0495  0.0689  0.0570
 4242W        W24522  14.697   5.061   3.739 -0.0712 -0.1469  0.2192
 4243W        W24523  17.851   9.892  12.482  0.1483 -0.1018 -0.3224
 4244W        W24524   4.411  12.247  12.661  0.0091 -0.0373 -0.0921
 4245W        W24525   9.316  13.789  11.342 -0.1362 -0.1226 -0.2277
 4246W        W24526  15.152   5.181   1.448  0.1777 -0.0001 -0.1474
 4247W        W24527   5.533  16.036  12.469 -0.2094  0.1041  0.0095
 4248W        W24528  13.465  19.751  10.954  0.1856 -0.1659 -0.3095
 4249W        W24529  15.713   5.894   1.980 -0.2611 -0.1309 -0.2403
 4250W        W24530   0.201   2.028  12.626 -0.0418  0.1626  0.0879
 4251W        W24531  15.082   9.123  10.919  0.1684  0.0544  0.0211
 4252W        W24532   7.661  16.572   2.863  0.1314 -0.1429 -0.0921
 4253W        W24533  10.893  13.220   0.020 -0.0265  0.2573  0.1818
 4254W        W24534   8.418  16.491   1.009 -0.0287  0.1996  0.0636
 4255W        W24535   3.863   6.290  11.370 -0.0610  0.2170 -0.0208
 4256W        W24536  16.676  14.453  12.111 -0.0287  0.0341 -0.1648
 4257W        W24537  19.333  14.171  12.447  0.1282  0.1265 -0.0989
 4258W        W24538   5.030  13.457   3.180  0.2539  0.1454 -0.2072
 4259W        W24539  18.444  10.303  13.392 -0.0841 -0.0098  0.3195
 4260W        W24540  14.598  13.579  11.629  0.5199  0.2564  0.0927
 4261W        W24541   9.613   5.400  11.101 -0.2621  0.1605 -0.0019
 4262W        W24542   6.528  15.079   1.491 -0.1761  0.1417 -0.2092
 4263W        W24543  14.260   3.996  13.787  0.0633 -0.1085  0.0587
 4264W        W24544  16.758   0.556   3.343 -0.0506  0.2931  0.0888
 4265W        W24545  12.661   2.548  11.038 -0.3359  0.4208  0.0654
 4266W        W24546  12.261  16.896  14.078  0.1016  0.3584 -0.1135
 4267W        W24547  17.058  11.400  13.704  0.5743 -0.0516 -0.2098
 4268W        W24548   0.752  15.259  11.324 -0.0169  0.1902 -0.1910
 4269W        W24549   7.417  15.886  12.619 -0.0071  0.0591 -0.1247
 4270W        W24550   4.461  18.362   3.825  0.1101  0.4278  0.1682
 4271W        W24551   5.816   1.298  12.638  0.0101  0.2362  0.4240
 4272W        W24552  16.934  17.467   1.756 -0.3097  0.1108  0.2903
 4273W        W24553   3.487   7.929   0.723  0.0656  0.0534  0.0182
 4274W        W24554  18.266  16.694  13.310  0.0000  0.0061  0.2315
 4275W        W24555   7.412  18.860  12.300 -0.0199 -0.1002  0.1249
 4276W        W24556   4.035   6.761   3.485  0.1261 -0.0793 -0.2145
 4277W        W24557  16.531  17.276   2.267 -0.3036  0.0017 -0.0958
 4278W        W24558   1.100  12.180   4.355  0.1237 -0.1524 -0.1608
 4279W        W24559   8.659  12.296  12.930 -0.0653  0.0556 -0.1125
 4280W        W24560  18.328   5.439   0.516 -0.3161  0.0212 -0.0172
 4281W        W24561   0.232   1.614  10.234 -0.3173  0.0104 -0.0937
 4282W        W24562  15.314   1.299   3.053 -0.0913  0.0811  0.1043
 4283W        W24563  12.307  18.767  10.098  0.3326 -0.0197 -0.0083
 4284W        W24564  13.516   2.488  13.368 -0.0500  0.0764  0.0501
 4285W        W24565   7.056   9.346   1.080 -0.1318 -0.0905 -0.0939
 4286W        W24566  13.554  13.825  12.804 -0.0160  0.0296  0.0753
 4287W        W24567  11.211   6.602  10.213 -0.2345  0.0466  0.1757
 4288W        W24568  10.767  11.797  11.479 -0.0494  0.0499  0.0246
 4289W        W24569   5.075   0.464  11.357  0.3184  0.2490  0.0662
 4290W        W24570  18.100  17.633   0.500  0.1934  0.1681 -0.0454
 4291W        W24571  19.066  14.229  11.062  0.2189  0.0650  0.1585
 4292W        W24572  16.833   9.272  10.977 -0.0343 -0.1872 -0.2088
 4293W        W24573   2.934   2.353   4.074 -0.0386 -0.2903  0.0027
 4294W        W24574  19.496   8.015  12.453  0.5331  0.1957 -0.2697
 4295W        W24575   8.119  10.959   0.771  0.0039 -0.0515 -0.1643
 4296W        W24576  18.328  14.254  10.530  0.0383 -0.0727  0.2210
 4297W        W24577  13.701  13.645   1.734  0.2358 -0.0613  0.0838
 4298W        W24578  16.553   8.453   0.292 -0.2243 -0.1259  0.0408
 4299W        W24579  13.618  15.786   1.648 -0.0899  0.1108  0.3205
 4300W        W24580  13.567   0.137   9.698  0.1242 -0.0582 -0.0272
 4301W        W24581   0.905   6.857   2.383 -0.0262 -0.1097  0.0108
 4302W        W24582  14.191  17.880   2.976  0.1012 -0.0424  0.3375
 4303W        W24583  12.455  18.025   9.608  0.2482  0.3253  0.1008
 4304W        W24584  16.734  10.628  11.618  0.1672 -0.0106  0.5751
 4305W        W24585  11.499  13.245  11.900  0.0943  0.2820  0.1817
 4306W        W24586   7.200   4.331   3.282  0.2333 -0.0486  0.2643
 4307W        W24587   2.087   8.852   2.057  0.1605 -0.1531 -0.0333
 4308W        W24588   0.872  13.003   4.081 -0.2107 -0.2650 -0.1021
 4309W        W24589   9.138  18.904   1.450 -0.1067 -0.1337  0.0040
 4310W        W24590   2.875   1.571   0.825 -0.4980 -0.0720 -0.1516
 4311W        W24591   0.080   2.079   0.722  0.2483 -0.0752  0.2288
 4312W        W24592   4.675  15.251   0.293  0.0331  0.2207  0.0225
 4313W        W24593   4.706   4.524   1.435 -0.0079  0.0953  0.2782
 4314W        W24594   5.135   6.225  13.683 -0.1597  0.1057 -0.2391
 4315W        W24595   4.665  16.210   0.715  0.0873 -0.4823 -0.3100
 4316W        W24596  11.421   4.418   3.149 -0.2219 -0.1309 -0.1597
 4317W        W24597  12.377   4.499  13.854  0.1810  0.0491  0.0465
 4318W        W24598   6.226  13.132  13.297 -0.0299 -0.0290  0.0908
 4319W        W24599  15.765  14.326  10.852  0.1240  0.0171 -0.2426
 4320W        W24600  12.677   7.607  12.619 -0.1409  0.3204 -0.2206
 4321W        W24601  12.475  19.748  12.537 -0.0744  0.0702 -0.1285
 4322W        W24602   6.346   4.212  12.426  0.0628  0.3866  0.0672
 4323W        W24603  14.469  17.622  10.084  0.1751 -0.2430 -0.1205
 4324W        W24604   9.922  12.063   0.895  0.1315  0.0402  0.1409
 4325W        W24605  15.033  12.792   2.846 -0.2396  0.0431 -0.1492
 4326W        W24606  17.772   7.012   1.657 -0.0786  0.1170  0.0809
 4327W        W24607  12.860   1.510   1.308  0.0202 -0.1986  0.3067
 4328W        W24608  15.455   8.399  13.595 -0.0833 -0.1510 -0.1432
 4329W        W24609  10.342   6.750   3.788 -0.0662  0.2385  0.1394
 4330W        W24610  17.461  10.261   1.467  0.2541 -0.3178  0.0586
 4331W        W24611  19.689  17.610   2.264 -0.2663  0.0686  0.2856
 4332W        W24612   7.782   2.559   1.485  0.3315  0.2665 -0.1824
 4333W        W24613   2.047   9.344   2.841  0.1167 -0.0725 -0.0848
 4334W        W24614   0.636  18.767   1.750  0.1088  0.3137 -0.0350
 4335W        W24615   4.622  16.796   0.619 -0.0776  0.2438  0.1628
 4336W        W24616   6.265  17.930   1.504  0.0419 -0.2044  0.0332
 4337W        W24617   1.595  10.059  12.122 -0.1211 -0.0538 -0.2770
 4338W        W24618  12.056   1.976  10.477  0.0726  0.0305  0.0190
 4339W        W24619   9.392  17.639   1.224  0.0823 -0.0013 -0.1959
 4340W        W24620  11.911  10.998   3.421  0.0478  0.0012 -0.1820
 4341W        W24621   6.767  11.056   1.892 -0.0258 -0.0974  0.2116
 4342W        W24622   7.349   8.843   3.806 -0.1190 -0.0742  0.1119
 4343W        W24623   5.015   8.822   1.906  0.4249 -0.1413  0.1369
 4344W        W24624  12.579  16.497  13.985 -0.1186  0.0742  0.1350
 4345W        W24625  11.920   1.667  13.471 -0.0342 -0.0062  0.0216
 4346W        W24626  16.131   6.585  12.946  0.1543  0.0190 -0.2654
 4347W        W24627   2.020   5.439   4.336  0.0363 -0.0736 -0.0201
 4348W        W24628  16.932  11.134   3.437 -0.1764  0.1585 -0.1122
 4349W        W24629   4.729  13.038   0.497  0.1341 -0.1716  0.0568
 4350W        W24630   1.113   7.507  11.119 -0.4158  0.0526 -0.1676
 4351W        W24631  14.858   0.307   2.209 -0.1674 -0.0265 -0.0424
 4352W        W24632  11.807  16.473  10.590  0.1347  0.1424  0.4611
 4353W        W24633  19.107   8.578   2.805  0.1590 -0.0601 -0.0011
 4354W        W24634   2.322   4.205   1.820 -0.0212 -0.0635 -0.1272
 4355W        W24635  16.117  14.333  11.516  0.1121 -0.0281 -0.2178
 4356W        W24636   6.591   8.186   1.677 -0.1223  0.0849  0.0061
 4357W        W24637   7.711  10.156   0.988 -0.0490 -0.2257 -0.1209
 4358W        W24638   1.851  13.707  12.456  0.1679 -0.0758  0.1112
 4359W        W24639   4.443   9.835   3.372  0.1496  0.1098 -0.1333
 4360W        W24640  10.471   7.180  10.831 -0.0508 -0.3574 -0.0354
 4361W        W24641  18.534   5.575  10.319  0.1062 -0.1761 -0.2660
 4362W        W24642   5.727  18.593  11.659  0.0667  0.0087  0.1209
 4363W        W24643  15.250   9.530  13.101  0.1829  0.3645  0.2134
 4364W        W24644   1.510   7.956   0.279 -0.1766 -0.3735 -0.2315
 4365W        W24645   6.755  12.150  10.662  0.0349 -0.1270 -0.1272
 4366W        W24646  18.078  17.104   3.408 -0.3355  0.0767  0.1035
 4367W        W24647  13.488   2.144  10.126  0.2833 -0.0290 -0.0861
 4368W        W24648   3.301  10.027  12.486 -0.2051  0.0844 -0.1821
 4369W        W24649   3.488   7.177  11.597 -0.4891 -0.1849 -0.3297
 4370W        W24650   9.022  18.465   1.130 -0.3968 -0.0756  0.1995
 4371W        W24651   3.664  15.795   0.508  0.1950 -0.0446  0.4049
 4372W        W24652  19.303  13.443   3.416 -0.2470 -0.1055 -0.0646
 4373W        W24653   8.850   5.733   3.828  0.2496  0.0108 -0.0887
 4374W        W24654   2.363  13.649   1.735 -0.2905 -0.0176 -0.1701
 4375W        W24655   0.607   3.874   2.136  0.0777 -0.0211  0.0485
 4376W        W24656   2.011   1.264   0.616  0.0377  0.0203  0.1341
 4377W        W24657  12.693  15.440   0.006 -0.3299  0.2073 -0.0005
 4378W        W24658  14.784  15.956   2.333  0.0036 -0.1772  0.0525
 4379W        W24659  14.004   8.457   2.299  0.1514 -0.1021  0.0455
 4380W        W24660   6.640  13.163   3.320  0.0172 -0.1474 -0.2627
 4381W        W24661  18.375   2.208   0.692  0.1426 -0.1456 -0.0508
 4382W        W24662  13.174   7.096   2.378  0.1804 -0.1528  0.1881
 4383W        W24663   0.655   1.608   9.899 -0.1395  0.0172  0.1874
 4384W        W24664  11.151  19.319  13.643  0.0742 -0.0852  0.0347
 4385W        W24665  17.403   9.540   0.080  0.0612 -0.3416 -0.2157
 4386W        W24666  19.735  16.489   0.847  0.0062 -0.1112  0.0604
 4387W        W24667  17.021   6.289   0.718  0.1323  0.1807  0.0862
 4388W        W24668   0.628  11.047  11.468  0.1383  0.2769  0.0494
 4389W        W24669   6.748   1.983   0.954 -0.0995 -0.0431 -0.0693
 4390W        W24670  12.069  11.886   2.153  0.0272 -0.1041  0.1279
 4391W        W24671   4.971  10.336   1.110  0.2648 -0.1061  0.1680
 4392W        W24672  11.054  12.996  12.186 -0.2973  0.1306  0.0705
 4393W        W24673  12.758   3.775   3.259 -0.0426 -0.0341  0.0310
 4394W        W24674   9.600   5.849   1.219  0.3561  0.1114  0.2461
 4395W        W24675   9.989  19.284   1.367  0.1084  0.0713  0.4436
 4396W        W24676  16.150   5.365  10.364  0.0101 -0.2452 -0.0089
 4397W        W24677  10.041   2.403   2.893  0.1433 -0.2511  0.1043
 4398W        W24678   1.370  16.388  12.686 -0.0523  0.0504 -0.3535
 4399W        W24679   8.484  18.791   0.175 -0.1828  0.0094 -0.0015
 4400W        W24680   0.557  19.472  11.084 -0.0287 -0.2163 -0.0571
 4401W        W24681  12.765   8.194   0.232  0.3675  0.4423 -0.1072
 4402W        W24682   1.753   8.535   0.823  0.0844 -0.0306  0.0533
 4403W        W24683   6.192  14.455  11.667  0.1384 -0.3782 -0.1701
 4404W        W24684   6.791  17.032  13.744  0.2898 -0.0032  0.2246
 4405W        W24685  13.719  12.166  13.237  0.0386 -0.1651  0.1604
 4406W        W24686   7.101  13.702   2.182 -0.0361 -0.2248 -0.1487
 4407W        W24687   6.956  11.998  13.698  0.0182 -0.3817 -0.3433
 4408W        W24688   1.569   7.317  11.095  0.1213  0.2557  0.2813
 4409W        W24689   9.449  17.005  11.618 -0.4413 -0.2279  0.1901
 4410W        W24690   0.113   0.800   0.948  0.3421  0.2117 -0.1180
 4411W        W24691   4.048   4.268   2.550  0.0451 -0.0986  0.0623
 4412W        W24692   8.600  19.711   0.028  0.0741 -0.0045 -0.2417
 4413W        W24693   8.560  12.737  13.217 -0.0817  0.0646 -0.1154
 4414W        W24694   1.604   5.001  10.763  0.1631  0.0015 -0.0576
 4415W        W24695   8.352   4.889   1.475  0.1740  0.0101  0.0967
 4416W        W24696  19.169  10.906  11.191  0.0862  0.0639 -0.1773
 4417W        W24697  16.146  10.623   0.809 -0.2034 -0.0408  0.0234
 4418W        W24698   2.246   7.273  13.178 -0.0885 -0.1989 -0.0378
 4419W        W24699  12.762  12.291  11.860  0.5034 -0.0909  0.1018
 4420W        W24700   5.603  13.722   2.054 -0.0758  0.0161 -0.1647
 4421W        W24701  16.742  11.083  13.411  0.0030  0.3306 -0.0271
 4422W        W24702  10.071  16.462   1.770  0.0654  0.1725  0.2830
 4423W        W24703  11.494  12.859   0.621 -0.1365  0.1716  0.2425
 4424W        W24704   8.555   4.403  13.573  0.2185 -0.0136  0.0615
 4425W        W24705   0.237  14.473  11.745  0.1220 -0.1218  0.0461
 4426W        W24706   6.495   7.913  10.722  0.3637  0.1453 -0.3437
 4427W        W24707  12.650   6.019  10.552 -0.1208  0.0851  0.1330
 4428W        W24708  17.460  19.739   2.787 -0.0821  0.1275  0.0157
 4429W        W24709  17.581  12.561  13.336  0.0299 -0.1013  0.1047
 4430W        W24710   6.841  11.134  11.605  0.1233 -0.0972 -0.0651
 4431W        W24711   6.096   0.483  10.993  0.2524 -0.4323 -0.3135
 4432W        W24712   6.477   1.367   3.046 -0.1624 -0.1287  0.0054
 4433W        W24713  12.966  13.944  11.387  0.0054  0.1790  0.0814
 4434W        W24714  19.395   8.698  13.241  0.2645 -0.0363  0.0869
 4435W        W24715   8.914   9.040   3.733 -0.0411 -0.2403  0.5381
 4436W        W24716   1.103  16.357  10.937  0.3336 -0.2603  0.0917
 4437W        W24717  12.703  18.709   0.825 -0.0718  0.1735  0.0027
 4438W        W24718  10.467  15.731   0.824 -0.0608 -0.1384 -0.4520
 4439W        W24719   6.213   0.840  10.645 -0.3312  0.2774  0.2942
 4440W        W24720   2.199   3.156   2.754 -0.1521 -0.3464  0.0614
 4441W        W24721  12.534   5.234   2.192  0.1212  0.0967 -0.0714
 4442W        W24722  11.835   6.744   0.756  0.1369  0.0887 -0.0017
 4443W        W24723  12.731   2.955   2.750 -0.1497  0.0080 -0.1543
 4444W        W24724  17.263  19.446   0.183 -0.3322 -0.1422  0.2573
 4445W        W24725  18.850  18.067   1.697  0.0376 -0.2063 -0.0723
 4446W        W24726   8.845   5.768  11.371 -0.0263  0.0293  0.0013
 4447W        W24727  17.341  15.387  13.351  0.0388 -0.2294 -0.2395
 4448W        W24728  18.829  10.604   3.934  0.1951  0.1528  0.1956
 4449W        W24729   9.580   8.835  13.195  0.2209  0.0276 -0.1065
 4450W        W24730  13.384  17.669  13.185  0.2555 -0.0376  0.3284
 4451W        W24731   0.887   2.602   1.638 -0.4738 -0.2440  0.0488
 4452W        W24732  15.769  11.894   0.985  0.1923 -0.0183 -0.2526
 4453W        W24733   9.910   9.939   0.489 -0.0888 -0.2076 -0.0753
 4454W        W24734  14.126  16.220   2.965 -0.1046 -0.1094 -0.2435
 4455W        W24735  12.005   9.568   3.115 -0.3529 -0.1845  0.0024
 4456W        W24736  16.930  15.610  11.215  0.0271  0.1748  0.2329
 4457W        W24737   4.079  11.320   0.950  0.0178  0.3559  0.0211
 4458W        W24738  16.541   9.305  11.994  0.2108  0.3693  0.3843
 4459W        W24739   1.239   8.230   0.570 -0.0831 -0.1422 -0.0810
 4460W        W24740  15.922  11.317  12.088 -0.1324 -0.1014 -0.0518
 4461W        W24741  14.456   4.457  12.783  0.0735  0.0514 -0.1263
 4462W        W24742   3.384  13.439   2.322 -0.0057  0.0276  0.0779
 4463W        W24743   4.397  15.511   2.851 -0.0450 -0.1630 -0.0016
 4464W        W24744  10.910   7.412   2.600  0.1322 -0.2821 -0.1755
 4465W        W24745  10.284   1.016   0.482  0.2866 -0.0060 -0.1822
 4466W        W24746   6.700   8.025   5.126 -0.2873 -0.1347 -0.0354
 4467W        W24747  11.588  16.572   2.363 -0.4371  0.0605 -0.1366
 4468W        W24748  18.624   2.182  10.349  0.0705 -0.0397  0.2061
 4469W        W24749   6.746  19.765   0.050 -0.2637 -0.0500 -0.0390
 4470W        W24750   0.752  18.245  13.658  0.0948  0.2121 -0.0033
 4471W        W24751  18.053   7.100  13.504 -0.4630  0.0651 -0.1034
 4472W        W24752  17.738  19.384   3.141 -0.3092  0.1211 -0.1766
 4473W        W24753   0.989  12.329   2.809 -0.1892 -0.0479 -0.0443
 4474W        W24754  10.506   6.135   1.818 -0.0110  0.1399  0.2915
 4475W        W24755  18.332   8.007   3.262 -0.0985 -0.0778 -0.0031
 4476W        W24756   1.941  12.742   1.760  0.1209  0.0819  0.0397
 4477W        W24757   0.272  15.035   4.731  0.0296 -0.1500  0.1014
 4478W        W24758   7.729  10.706  12.396 -0.0372  0.0387  0.1254
 4479W        W24759   0.396   4.689   2.334 -0.0516  0.0539 -0.0269
 4480W        W24760  12.053   1.736  12.021 -0.0493  0.2562 -0.0290
 4481W        W24761   2.011   9.857  10.520 -0.0014 -0.1916  0.0438
 4482W        W24762   8.132   7.387  11.564 -0.1707  0.2824 -0.0158
 4483W        W24763   8.329  11.194   4.677  0.4072  0.0651 -0.0269
 4484W        W24764   8.129  10.594   2.204  0.2435 -0.1444  0.3587
 4485W        W24765   8.333  18.840  13.764 -0.1172 -0.0969 -0.1941
 4486W        W24766  16.320  16.006   1.506 -0.1840  0.0053  0.2658
 4487W        W24767   9.912   6.641   4.226  0.1652 -0.0886  0.2796
 4488W        W24768   7.132  16.416  12.716 -0.0307 -0.2637 -0.3321
 4489W        W24769   5.006  14.473   3.638  0.2329  0.0382 -0.0053
 4490W        W24770  15.215  10.629   3.267 -0.0689  0.2626 -0.1088
 4491W        W24771   0.111  18.737  11.796 -0.2432 -0.1903 -0.0649
 4492W        W24772   0.414  12.489   1.117 -0.2033  0.0250 -0.0428
 4493W        W24773  16.440   9.464  11.310 -0.0474 -0.0700 -0.0977
 4494W        W24774   2.743   1.286  10.770 -0.0158  0.1513  0.0332
 4495W        W24775   6.254   0.923   8.873  0.0795 -0.1469 -0.2727
 4496W        W24776   1.391   3.313  12.403  0.1761 -0.2900 -0.1750
 4497W        W24777  11.846   3.763  13.468  0.0350 -0.1967  0.1435
 4498W        W24778  13.088   6.824  10.834  0.1476 -0.0281 -0.1442
 4499W        W24779  18.558  11.756   2.336 -0.2085  0.4826 -0.0695
 4500W        W24780   1.243   0.648  10.487  0.0576  0.0126  0.3970
 4501W        W24781   9.185  11.860   3.864 -0.2416  0.0069 -0.0754
 4502W        W24782   9.808  12.079  13.693  0.0044  0.0918 -0.0238
 4503W        W24783   8.076  14.405  12.495  0.2303 -0.0846 -0.1616
 4504W        W24784   3.102  12.494   1.773  0.2585  0.0613 -0.1093
 4505W        W24785   9.686   6.759   3.760  0.0841 -0.2532  0.0545
 4506W        W24786   8.235   6.660   2.072 -0.1133  0.1608  0.2853
 4507W        W24787  15.710  12.147   4.324  0.0136  0.1325  0.0115
 4508W        W24788   5.090  12.692   1.158  0.0729  0.0553 -0.3048
 4509W        W24789   4.807   9.019   0.691 -0.0622  0.2591 -0.3933
 4510W        W24790   8.717  15.149   1.403  0.1046 -0.0551  0.0766
 4511W        W24791  16.465  17.052   3.786 -0.0325  0.2687  0.2043
 4512W        W24792   6.409   7.898   2.930  0.0147  0.1659  0.3383
 4513W        W24793  15.819  17.285  10.458  0.1235  0.2047 -0.3988
 4514W        W24794   8.296  17.186   0.665  0.1844  0.3721 -0.0261
 4515W        W24795   0.990  19.676   1.368 -0.2233 -0.0630 -0.0419
 4516W        W24796   4.552  15.731   0.510  0.0513 -0.2227 -0.2561
 4517W        W24797   3.688   8.973  14.026 -0.0766  0.0223  0.0069
 4518W        W24798  13.344   2.365  12.566  0.0672 -0.0039  0.0471
 4519W        W24799  10.112  18.663   1.148  0.3501  0.3432 -0.4052
 4520W        W24800   4.775   2.663   2.350 -0.3451  0.1655  0.3784
 4521W        W24801  10.973  14.703   3.178 -0.2614 -0.1196  0.0684
 4522W        W24802   9.256  12.902  11.187 -0.2732 -0.3441  0.0798
 4523W        W24803  13.743   1.514   0.429 -0.2917  0.6708  0.4399
 4524W        W24804  10.156   4.076  10.259 -0.1806 -0.0188  0.1230
 4525W        W24805   4.864  19.356  11.637 -0.3423  0.0967  0.1106
 4526W        W24806  13.516  16.092  12.633 -0.1133  0.0921 -0.3022
 4527W        W24807  14.861  16.893   2.186 -0.0152  0.2500 -0.2094
 4528W        W24808   3.047   9.185   1.858 -0.2491  0.1288 -0.1742
 4529W        W24809  16.700   2.861  13.748 -0.2235  0.1968 -0.2471
 4530W        W24810  10.680   1.027   3.482 -0.0393  0.3846 -0.0320
 4531W        W24811   6.891   2.914  11.264 -0.0908 -0.2700  0.0764
 4532W        W24812  16.660  10.634   2.879 -0.1866  0.1043  0.3560
 4533W        W24813  10.549   7.645   1.759  0.2653  0.2050  0.0807
 4534W        W24814  17.015   8.071  10.705  0.2715 -0.0898  0.0813
 4535W        W24815  11.869  16.512   9.694 -0.3942  0.1835 -0.1283
 4536W        W24816  17.129  19.350  11.814 -0.0337 -0.4586  0.1179
 4537W        W24817   5.828   7.827  13.544  0.1401  0.0820  0.0216
 4538W        W24818   1.073   4.023   1.123 -0.0166 -0.1273  0.1251
 4539W        W24819   6.053  17.928   4.091  0.0729  0.1610  0.1207
 4540W        W24820   4.817   7.130  11.689  0.0962  0.1828 -0.1036
 4541W        W24821   4.221  13.780   2.103 -0.0943 -0.0071 -0.2060
 4542W        W24822   0.109  12.277  11.961  0.5720  0.3680 -0.1652
 4543W        W24823  13.147   9.302   2.956 -0.1340  0.1086  0.0158
 4544W        W24824  14.827  15.329  10.576  0.0562 -0.1109 -0.0457
 4545W        W24825  15.491   3.066  12.158 -0.0728  0.2952 -0.2835
 4546W        W24826  13.772  12.025   2.242  0.1004 -0.1039  0.1245
 4547W        W24827  16.140  12.308   3.915  0.0185 -0.1626 -0.3780
 4548W        W24828  18.380  19.744   0.866 -0.0471 -0.1710  0.1723
 4549W        W24829   4.416  11.753  12.503 -0.3405 -0.2476 -0.0281
 4550W        W24830  17.316  19.622  12.997  0.0039  0.0351  0.1419
 4551W        W24831   1.071  11.037   3.453 -0.1557 -0.1513  0.1015
 4552W        W24832   2.395  14.661  11.787  0.4399 -0.0029 -0.1565
 4553W        W24833   7.964  18.012   0.185 -0.0726 -0.0606  0.0925
 4554W        W24834   6.395   3.138   1.351 -0.1105 -0.0215  0.1168
 4555W        W24835   4.435  14.053  11.405 -0.1961  0.5215 -0.1146
 4556W        W24836  13.580  13.230   4.126  0.2059  0.0722 -0.0189
 4557W        W24837   1.997   9.117  12.293  0.2622  0.0316  0.0797
 4558W        W24838   7.846  15.386  11.119 -0.2063  0.0055 -0.1447
 4559W        W24839   3.906  10.427   2.461 -0.1748  0.0023 -0.1142
 4560W        W24840   3.725   0.529   2.947 -0.1591 -0.0594 -0.1573
 4561W        W24841   7.113  14.973   0.130 -0.0578  0.3992 -0.0501
 4562W        W24842  19.366  15.163   1.684  0.4039 -0.0260 -0.2098
 4563W        W24843   2.237  14.181   4.060 -0.1849  0.0105  0.4548
 4564W        W24844   8.028   0.393  12.639  0.0912 -0.1136 -0.2696
 4565W        W24845  19.270  14.549   9.569 -0.0259  0.4196  0.2253
 4566W        W24846  17.841   3.140   2.458  0.0440 -0.2197  0.4182
 4567W        W24847   6.169  19.152  12.884 -0.1977  0.0603 -0.1007
 4568W        W24848  13.185  12.039  13.171 -0.0962  0.0428  0.2934
 4569W        W24849   6.505  13.507   3.673  0.1022  0.2306  0.1542
 4570W        W24850  12.686  19.502   2.580  0.0957  0.1049  0.0273
 4571W        W24851   7.688  15.191  10.587  0.1566 -0.1259 -0.0212
 4572W        W24852  12.927   5.245  12.786  0.3279  0.0389 -0.0339
 4573W        W24853  11.646   4.820   4.418 -0.2476  0.2123 -0.0923
 4574W        W24854   0.055   8.297  10.322 -0.2264 -0.1008  0.0251
 4575W        W24855   8.328   5.301   0.390  0.1141  0.0321  0.1844
 4576W        W24856   2.839  17.173   3.159  0.0158 -0.1194 -0.2002
 4577W        W24857  19.099   9.506  11.864 -0.0768  0.0595  0.1003
 4578W        W24858   5.953   1.821  13.273  0.3039 -0.1486  0.2870
 4579W        W24859  15.966  14.200  10.433 -0.1505  0.1317 -0.0751
 4580W        W24860   4.130  15.464   0.482  0.2752 -0.3288 -0.1241
 4581W        W24861  18.657  16.764  12.604  0.0430  0.0550 -0.1323
 4582W        W24862   5.194   3.908   9.496  0.2539  0.1983 -0.1423
 4583W        W24863  17.082  11.121  12.875  0.0156  0.0117 -0.2253
 4584W        W24864   5.589   0.297   1.977 -0.0973  0.0573  0.0714
 4585W        W24865  17.392  17.438   1.920 -0.1304  0.2689 -0.4568
 4586W        W24866   9.388  10.991   9.625 -0.3682  0.3739 -0.0074
 4587W        W24867   2.945   2.491  10.032 -0.1285  0.1073 -0.0238
 4588W        W24868   4.278   1.554  12.465  0.0264  0.1558  0.0027
 4589W        W24869  16.643   2.504   2.693 -0.2055  0.0965 -0.1107
 4590W        W24870   9.671  14.395  10.793 -0.2090 -0.2930 -0.2736
 4591W        W24871  18.964  12.622   4.839 -0.0094  0.0819 -0.1511
 4592W        W24872   3.130  17.324  13.326  0.0371 -0.0196 -0.1321
 4593W        W24873   3.933  14.081  11.041 -0.2529  0.0341 -0.0890
 4594W        W24874   2.677   0.420  11.005 -0.3585 -0.1352  0.2819
 4595W        W24875  12.931  11.103   9.099  0.0177 -0.3266 -0.1566
 4596W        W24876   9.511  19.414   0.107 -0.1205  0.1675  0.3573
 4597W        W24877   5.811  13.844   1.546 -0.0999  0.1466  0.0808
 4598W        W24878  12.587   1.594  12.924  0.0370  0.5476  0.2606
 4599W        W24879   3.738   3.303   3.848 -0.0556  0.1917 -0.1285
 4600W        W24880  14.444   7.799   0.096 -0.0756  0.1756  0.0972
 4601W        W24881   6.719  12.500   0.819  0.1964 -0.3248  0.2299
 4602W        W24882   9.278   3.703  10.198 -0.2428 -0.3143 -0.2247
 4603W        W24883  18.211   3.406  14.002 -0.0306  0.0036  0.6369
 4604W        W24884  18.017   7.628  11.457  0.0018 -0.2002  0.2350
 4605W        W24885  12.018   6.044   1.808  0.0714 -0.0324  0.4488
 4606W        W24886  17.470   0.542  11.889  0.0925 -0.0116 -0.1941
 4607W        W24887  17.692   4.659  12.488 -0.0064 -0.2375 -0.1475
 4608W        W24888  13.002   8.920   1.829  0.2148 -0.0366 -0.1961
 4609W        W24889  16.259  15.895   3.813  0.1331 -0.0210  0.2579
 4610W        W24890  14.590   6.357   2.515  0.1023 -0.4575  0.2242
 4611W        W24891   6.614   7.610   3.903 -0.0843 -0.0215  0.4358
 4612W        W24892   3.848   8.840   1.237  0.0128  0.0922 -0.4876
 4613W        W24893   9.335   2.484  11.873 -0.1812 -0.1649 -0.2150
 4614W        W24894  10.665  12.654  11.933 -0.0483  0.1914  0.4011
 4615W        W24895   1.780  17.784   0.313  0.0253  0.5599  0.0133
 4616W        W24896   5.301  17.339  13.239  0.0907 -0.1082  0.0121
 4617W        W24897  17.591   7.102   2.974  0.2753 -0.2926 -0.3312
 4618W        W24898   0.647   7.163  13.193 -0.1067  0.0311 -0.0999
 4619W        W24899   0.825   3.020  13.843  0.2058  0.3201 -0.1697
 4620W        W24900   6.090   1.398  13.027  0.0598  0.0536  0.1678
 4621W        W24901   6.067   2.651  12.919  0.0384  0.0702 -0.2164
 4622W        W24902   2.304  16.767  12.746 -0.3085 -0.2113 -0.3022
 4623W        W24903  12.187  12.677  13.773  0.0505 -0.2096  0.0911
 4624W        W24904   4.579   8.245  11.914  0.0066 -0.0117  0.0632
 4625W        W24905   9.381  12.970  13.721  0.0885 -0.0004 -0.3783
 4626W        W24906  12.816   6.658   1.619 -0.2377  0.0279  0.0352
 4627W        W24907  12.877   6.213   0.639 -0.1976  0.0129  0.4084
 4628W        W24908  15.484   5.317   2.375  0.0249  0.1004 -0.1638
 4629W        W24909   3.066  15.517  10.745  0.1835  0.2171 -0.1069
 4630W        W24910  18.688   3.162  11.624  0.1900  0.0260 -0.4088
 4631W        W24911   8.376  13.697  11.753 -0.2487 -0.2072 -0.2005
 4632W        W24912  13.875   9.762   2.346  0.1736  0.2435  0.0815
 4633W        W24913  17.932   1.997  13.017  0.1053  0.2882 -0.0725
 4634W        W24914   4.822   7.163  13.312  0.0475 -0.1495  0.0049
 4635W        W24915   7.495  17.385   4.072 -0.1306 -0.1179 -0.2865
 4636W        W24916  13.060  10.639   1.559 -0.0476 -0.0960  0.0634
 4637W        W24917  17.098   7.964  10.179  0.1352 -0.0754 -0.0634
 4638W        W24918   8.995  15.757   2.191 -0.0536  0.0641  0.1409
 4639W        W24919  18.830   5.266  13.302 -0.3327  0.0809  0.1873
 4640W        W24920  11.058  17.087   1.281 -0.0824  0.0603 -0.1421
 4641W        W24921   7.357  15.045   1.913  0.0015 -0.0359 -0.4097
 4642W        W24922  13.935   9.114  10.686  0.0010  0.0750  0.3601
 4643W        W24923   5.357  13.392   2.840  0.0320  0.3764 -0.2819
 4644W        W24924   0.275  10.707   1.608  0.0988  0.0086  0.1576
 4645W        W24925   6.249   9.250  11.149 -0.0441 -0.0876  0.2199
 4646W        W24926   5.460   9.307   4.038  0.2104 -0.5088  0.1605
 4647W        W24927  13.120  15.455  12.881  0.0162 -0.1759  0.0239
 4648W        W24928   4.998  11.665  12.443  0.3592  0.3102 -0.0784
 4649W        W24929   9.078  15.242   2.184  0.3822 -0.2845 -0.0583
 4650W        W24930   6.597   7.013  10.777 -0.3140 -0.0877  0.0137
 4651W        W24931   4.263  19.166   3.137 -0.0725 -0.4831  0.2113
 4652W        W24932   5.389  16.159   2.514 -0.3105 -0.1135  0.2048
 4653W        W24933  12.108   8.435   2.827 -0.0007 -0.2236 -0.0426
 4654W        W24934  10.900   2.879  10.267 -0.1219  0.0682 -0.0899
 4655W        W24935   0.090   1.846  12.182  0.0949 -0.3781  0.1894
 4656W        W24936   0.828  15.725   0.689  0.1121 -0.0362 -0.0833
 4657W        W24937   3.615   4.323  13.670  0.1434  0.0188  0.0493
 4658W        W24938   1.794   4.525  13.266  0.1506  0.0202  0.0627
 4659W        W24939  17.123   8.588  10.560  0.1937  0.3082  0.3053
 4660W        W24940  17.787   9.653   3.658  0.0040  0.1513 -0.2911
 4661W        W24941   3.379  12.717   2.870  0.0457  0.1855  0.1213
 4662W        W24942  14.122   6.147   0.497 -0.0168  0.0689 -0.3487
 4663W        W24943   9.516   3.673  11.820 -0.0115 -0.2535 -0.0824
 4664W        W24944   2.160   6.986   1.975  0.1561  0.3500 -0.0221
 4665W        W24945   1.804   0.823  12.914 -0.0729 -0.1235 -0.1296
 4666W        W24946  13.793   1.635   2.213 -0.1622  0.0448  0.0511
 4667W        W24947  10.314  13.455  10.203  0.0586  0.3618  0.1336
 4668W        W24948   8.287  14.453   3.476 -0.0444  0.2077 -0.0205
 4669W        W24949  11.976   0.320   2.131 -0.0507  0.0525  0.2208
 4670W        W24950  15.414   8.410   2.682 -0.0380 -0.1388  0.1421
 4671W        W24951   3.197   7.215   2.503  0.0806  0.0781 -0.0432
 4672W        W24952   6.262   7.935   2.447  0.2937 -0.0041  0.0835
 4673W        W24953  15.720  16.787   1.865 -0.0488 -0.2753 -0.1764
 4674W        W24954  18.828  19.502   2.735 -0.1442 -0.0970  0.1974
 4675W        W24955  14.544   4.451  10.894 -0.0236 -0.2450 -0.3000
 4676W        W24956  13.067  18.442  12.261 -0.3348  0.1152 -0.1560
 4677W        W24957   3.536  17.801  12.033  0.0176 -0.2347  0.1331
 4678W        W24958   3.701  12.008  11.250 -0.3752 -0.4293  0.1952
 4679W        W24959   6.355   8.398   2.941  0.0932 -0.2227  0.2600
 4680W        W24960  19.515  11.513  11.832  0.2165  0.1228  0.0187
 4681W        W24961   8.107   8.188   2.883  0.2301 -0.0136  0.2343
 4682W        W24962   0.718  16.880   1.298 -0.2160 -0.0520  0.2560
 4683W        W24963   5.933  16.607  13.091 -0.0609  0.2822 -0.0954
 4684W        W24964   0.111   5.841  10.164  0.5793 -0.0299  0.3301
 4685W        W24965  17.275   8.443  10.034  0.1911  0.0804  0.0280
 4686W        W24966   5.523   9.385   3.512  0.1701 -0.0677  0.0629
 4687W        W24967   6.930   4.543  10.517  0.1674 -0.2638  0.3101
 4688W        W24968   4.817   1.691  10.790  0.2107  0.1505 -0.2168
 4689W        W24969   5.652   9.617  13.172 -0.1982 -0.0386  0.1381
 4690W        W24970   1.876   5.348  13.681  0.0633 -0.0132 -0.2001
 4691W        W24971   2.410   4.133   3.632  0.2592 -0.1185 -0.0816
 4692W        W24972  19.619  12.522   3.351  0.1749  0.3363 -0.1901
 4693W        W24973  17.643   2.653   1.051  0.2402 -0.2018  0.1138
 4694W        W24974  19.050  13.473   2.689 -0.1398 -0.2892 -0.1582
 4695W        W24975  13.799   5.771   0.372 -0.0042  0.0218 -0.3612
 4696W        W24976  17.525   3.473  10.846  0.1740 -0.0392  0.2257
 4697W        W24977   9.970  11.889   3.184  0.1560 -0.0052 -0.0629
 4698W        W24978  13.124   3.297   2.565  0.2842  0.1388 -0.1219
 4699W        W24979   9.354   8.453  10.457  0.0563 -0.0485  0.0879
 4700W        W24980   3.825  15.888   2.018 -0.1381  0.0527 -0.2848
 4701W        W24981   8.454  16.809  10.335  0.0321 -0.2681  0.2627
 4702W        W24982  17.660   5.550  14.005 -0.1204 -0.4440 -0.0498
 4703W        W24983   5.761  10.550  11.182  0.0845  0.0803  0.1977
 4704W        W24984  11.503  19.663   1.653  0.0256  0.0947 -0.1700
 4705W        W24985  15.193   8.486  12.631 -0.3879  0.0790 -0.1021
 4706W        W24986   1.654  17.170  11.100 -0.1995 -0.0489 -0.1296
 4707W        W24987   8.343  12.290   1.978  0.2047 -0.1073  0.4525
 4708W        W24988   0.331  14.442   1.747 -0.2064 -0.0292  0.0580
 4709W        W24989   2.057   1.232  10.249  0.0602  0.1824 -0.0105
 4710W        W24990   2.299  10.420  11.771 -0.2501  0.1113  0.1158
 4711W        W24991   8.751   9.701  10.680 -0.1699  0.3213  0.0856
 4712W        W24992  12.190  17.055  10.507  0.0858  0.1144 -0.4636
 4713W        W24993   7.121   0.551   0.499  0.0363 -0.2760 -0.0759
 4714W        W24994   4.341   8.602   3.243  0.1747 -0.0268  0.0209
 4715W        W24995   9.596   6.267  12.488  0.1315  0.2276  0.0401
 4716W        W24996  15.384  16.017   1.756 -0.0259 -0.0854 -0.0636
 4717W        W24997   2.251   2.101   2.587  0.0789  0.2544  0.2460
 4718W        W24998   4.990  17.019   4.021  0.1557 -0.0478  0.2404
 4719W        W24999  18.152  13.807  13.054 -0.0806  0.3213 -0.2946
 4720W        W25000   7.280  10.288  12.542  0.0353  0.1920  0.0308
 4721W        W25001  14.932  17.549  11.510  0.0039  0.0810  0.3433
 4722W        W25002   5.599  11.451   3.811 -0.4734 -0.2675 -0.0619
 4723W        W25003   6.422   4.230   2.407 -0.0320 -0.0035  0.4400
 4724W        W25004   3.328   4.607  12.253  0.1716 -0.2923  0.1858
 4725W        W25005  16.242  16.779   1.051 -0.3295 -0.1468 -0.1843
 4726W        W25006   6.803  13.553  10.052  0.0001  0.0943 -0.2360
 4727W        W25007   2.072   1.673  13.163  0.0953  0.0092 -0.1799
 4728W        W25008  13.277  17.480  11.832 -0.1892  0.2693 -0.0306
 4729W        W25009   9.419   4.394  12.195 -0.2192 -0.0250 -0.1835
 4730W        W25010   4.129  15.160   3.345 -0.2072  0.2459  0.2000
 4731W        W25011   0.974  16.361  12.424 -0.1707  0.1537 -0.1320
 4732W        W25012   4.212   5.299   1.298 -0.0198 -0.1095  0.1454
 4733W        W25013   3.955  13.000  12.217 -0.0474 -0.2081 -0.0966
 4734W        W25014  17.005  19.287   1.975 -0.3009  0.0095 -0.0674
 4735W        W25015   3.709  10.937   5.021  0.0903 -0.3790 -0.3285
 4736W        W25016   0.108  15.361  12.661 -0.2973 -0.1291  0.1703
 4737W        W25017  11.603   6.660  12.746  0.0603 -0.0785 -0.1447
 4738W        W25018   8.952   9.347  13.514 -0.0404  0.0780 -0.1596
 4739W        W25019  11.582   4.021  11.299  0.1041 -0.1694 -0.0819
 4740W        W25020  12.360  11.616   9.474 -0.1721  0.0508 -0.1105
 4741W        W25021  11.972   6.997   3.749 -0.1185 -0.3049  0.1085
 4742W        W25022  11.797   1.006   9.955 -0.2003  0.1308  0.2733
 4743W        W25023   3.204  10.298  10.809  0.1872  0.2228 -0.3708
 4744W        W25024  13.215   9.435  12.744  0.1526 -0.3107 -0.1159
 4745W        W25025   3.249   2.639  11.965  0.2381  0.1610 -0.2417
 4746W        W25026  16.942  12.787  13.920 -0.0657  0.1208 -0.2530
 4747W        W25027  14.087  14.819   9.637 -0.1576  0.1490  0.4723
 4748W        W25028   2.231  15.329   9.774  0.2245 -0.0700  0.1964
 4749W        W25029   3.726   0.532  11.103 -0.0597  0.1656  0.1210
 4750W        W25030   4.319  10.768   1.850 -0.1530  0.2397  0.2317
 4751W        W25031   7.596   6.481   2.592  0.0219  0.0959  0.1287
 4752W        W25032   6.338   9.919  12.164 -0.0859 -0.2792  0.0624
 4753W        W25033   0.718   3.295   1.187 -0.1620 -0.4121  0.2837
 4754W        W25034   0.997   3.561   3.153 -0.0374  0.0812 -0.0347
 4755W        W25035  15.900  17.109  13.274  0.1586 -0.1812 -0.1067
 4756W        W25036   2.580  18.610   3.284 -0.0513  0.0390 -0.1733
 4757W        W25037  14.788   0.136   3.265 -0.0130 -0.0941  0.2016
 4758W        W25038   0.345  18.873   2.130  0.1221  0.1701 -0.2639
 4759W        W25039   6.799   2.706  12.386  0.0450  0.3702 -0.0158
 4760W        W25040  14.249  11.993   3.570  0.0961 -0.1754 -0.0559
 4761W        W25041   1.443  13.492   0.850  0.2235  0.0007  0.1272
 4762W        W25042  14.731   2.512  12.314  0.1511 -0.1030 -0.2806
 4763W        W25043   3.181  19.324  11.502 -0.0667  0.2085  0.0052
 4764W        W25044   0.698  14.853  11.935 -0.5582  0.3273  0.1603
 4765W        W25045  16.034  16.365  12.575 -0.0927 -0.2396  0.1091
 4766W        W25046   0.881  17.036  13.644 -0.1354  0.2564 -0.4144
 4767W        W25047  10.518  14.980  10.514  0.3254 -0.1294  0.0285
 4768W        W25048   9.074  19.428  12.313  0.0549  0.0941 -0.0975
 4769W        W25049  18.457   8.249   3.669  0.0837 -0.0492  0.1222
 4770W        W25050   3.980  15.033   1.905  0.2305  0.1179 -0.2751
 4771W        W25051  11.180   6.725   3.255 -0.0299 -0.2312 -0.2605
 4772W        W25052   2.693   4.198   0.274 -0.0783  0.1748 -0.0466
 4773W        W25053   3.000   8.006  12.090  0.1386 -0.2985 -0.2524
 4774W        W25054   1.612  13.684  12.933 -0.2371 -0.2376  0.1727
 4775W        W25055  15.698   8.987   0.186 -0.2014  0.0400  0.1413
 4776W        W25056   3.729   1.064  13.156  0.0622 -0.5628 -0.3200
 4777W        W25057   1.207   5.942  12.431  0.0887 -0.2524 -0.0180
 4778W        W25058   7.834  15.045  13.935  0.0215  0.0369 -0.1278
 4779W        W25059  15.411  16.704   2.801 -0.0866 -0.1659 -0.5382
 4780W        W25060  13.530  18.757  11.125 -0.0620  0.4064 -0.2296
 4781W        W25061  17.314   0.401  11.334 -0.0368 -0.3899  0.0504
 4782W        W25062  18.926   0.867  10.840 -0.0743  0.1573 -0.0667
 4783W        W25063   4.905  12.258   3.580 -0.2762  0.1244 -0.2553
 4784W        W25064   6.252  13.910   3.411 -0.0180  0.0941  0.1068
 4785W        W25065  18.176   7.336   0.348  0.3150 -0.0430  0.2634
 4786W        W25066   3.998   7.602   9.859  0.2807  0.2994 -0.0795
 4787W        W25067   8.425  13.121  10.947  0.5046 -0.1029 -0.0469
 4788W        W25068   8.416   3.667   1.146  0.0943 -0.3480  0.2453
 4789W        W25069  18.434   0.819   1.976 -0.0015  0.3431  0.0602
 4790W        W25070  10.001   9.265  11.241 -0.1713  0.0301  0.1467
 4791W        W25071  19.275   7.570  12.282  0.0819 -0.1898 -0.2687
 4792W        W25072   8.089   1.727   3.693 -0.2478 -0.3301  0.3686
 4793W        W25073  19.493  19.579   2.891 -0.0520  0.1524  0.1823
 4794W        W25074   5.750  18.342   1.078 -0.1364 -0.2262 -0.0188
 4795W        W25075  12.024  16.423  13.911  0.2014  0.0039 -0.1449
 4796W        W25076   1.446  14.056   3.750  0.0284 -0.1230 -0.1055
 4797W        W25077  13.770  14.216  10.274  0.0233  0.0666  0.2351
 4798W        W25078  19.384   6.082  13.805 -0.0620  0.1788  0.2277
 4799W        W25079  16.602   9.278   0.623  0.0743 -0.0205  0.3017
 4800W        W25080  10.075  16.277  10.720  0.2221  0.3239  0.0608
 4801W        W25081   5.645   0.982   2.719  0.1361 -0.0864 -0.0076
 4802W        W25082   7.744   7.426   1.384  0.2397 -0.2673 -0.0097
 4803W        W25083   5.789  15.127   2.278 -0.1256  0.0201 -0.4518
 4804W        W25084  19.261  16.599   3.992  0.0156 -0.3161 -0.4603
 4805W        W25085   8.553  15.988   0.437  0.1196 -0.0574  0.0850
 4806W        W25086   4.844  13.503   0.600 -0.0617  0.0144 -0.1016
 4807W        W25087  12.884   5.820   2.211 -0.0056 -0.0974  0.1605
 4808W        W25088  14.280   1.417   3.124 -0.2839 -0.2321 -0.5625
 4809W        W25089  14.407   3.007  13.626 -0.0485 -0.1571  0.0242
 4810W        W25090  18.887  12.693  13.653 -0.0380  0.1269 -0.3197
 4811W        W25091   1.867  11.515   2.705 -0.0467  0.1075  0.1076
 4812W        W25092   6.341   3.065   0.425  0.0808 -0.0397 -0.3186
 4813W        W25093  16.416  12.404  13.207 -0.1500  0.0321  0.0702
 4814W        W25094  12.851  15.041   0.319  0.3997  0.4833  0.2153
 4815W        W25095   3.705  18.232   4.741  0.2355 -0.1105 -0.0102
 4816W        W25096  17.176  12.319  14.072 -0.2992  0.3019  0.1381
 4817W        W25097  16.058  12.239  13.556 -0.2649  0.0304  0.0934
 4818W        W25098   4.420   7.868  12.255 -0.2655 -0.2670 -0.3872
 4819W        W25099  18.523  15.159   0.060 -0.2985 -0.0447  0.0808
 4820W        W25100  13.568   4.422   2.069 -0.4484  0.0285  0.3861
 4821W        W25101   0.629   9.598   3.879 -0.0918 -0.0271  0.0835
 4822W        W25102  17.450   1.831  11.349  0.1877  0.1069 -0.1308
 4823W        W25103  16.967   4.602  11.356  0.0846 -0.2330  0.1866
 4824W        W25104  11.863   7.107  13.070 -0.1404 -0.0770  0.3376
 4825W        W25105  13.128   1.230   0.932 -0.0992 -0.0735  0.3010
 4826W        W25106  10.023   9.702  13.705 -0.3900  0.1193 -0.1924
 4827W        W25107  16.830  16.132   1.770  0.0479 -0.3680 -0.2774
 4828W        W25108   4.429   1.174   0.467 -0.0275 -0.1402  0.1484
 4829W        W25109  11.897   6.072   1.331 -0.1983 -0.0733 -0.0932
 4830W        W25110   4.045   0.147   1.310 -0.1952  0.2813 -0.0940
 4831W        W25111   0.221   3.379  12.314 -0.0991  0.3585  0.1210
 4832W        W25112   1.672  15.793   1.697  0.0709  0.0775  0.1587
 4833W        W25113  14.619   2.953   1.468  0.0619  0.1014  0.0500
 4834W        W25114   6.482   2.754   0.941  0.0337  0.0061 -0.0655
 4835W        W25115  14.227  16.628  13.651 -0.0395  0.1178 -0.0465
 4836W        W25116   1.254  18.111  13.238  0.1286  0.2099 -0.1271
 4837W        W25117   8.575  19.200   4.369 -0.2114  0.1441  0.1008
 4838W        W25118   8.163  15.541   2.900  0.0269  0.3307  0.3926
 4839W        W25119  18.806   9.285  11.418 -0.1154 -0.4103 -0.1603
 4840W        W25120  13.815   5.536   2.658  0.0653 -0.3154  0.1465
 4841W        W25121   0.484   2.075  11.617  0.0863  0.0480 -0.1198
 4842W        W25122  10.491   4.672   4.521 -0.0245 -0.0463  0.2049
 4843W        W25123   3.433  10.432   1.978 -0.0459  0.0944  0.6140
 4844W        W25124  10.507   5.183  12.343 -0.0131  0.2568  0.3632
 4845W        W25125  15.176  12.652   0.895 -0.0033 -0.2230  0.0294
 4846W        W25126   9.526   5.867   9.992 -0.0859 -0.3410 -0.1132
 4847W        W25127   1.211   4.701  12.666 -0.1668 -0.1111 -0.2049
 4848W        W25128  17.786  12.436   1.234 -0.0552  0.2259 -0.2430
 4849W        W25129   8.301   7.427  11.095 -0.1094 -0.2118  0.1434
 4850W        W25130   9.998  18.403  10.907 -0.3278  0.0104  0.1683
 4851W        W25131   6.714  13.840   2.636 -0.0064  0.0507 -0.2830
 4852W        W25132  12.962  10.644   4.325  0.2035  0.0502 -0.0035
 4853W        W25133  11.262   9.736   0.823 -0.1345 -0.2230 -0.0934
 4854W        W25134   3.338  11.167  11.237 -0.2870  0.0355  0.1574
 4855W        W25135  12.422  11.502  12.296 -0.1175  0.1274 -0.0320
 4856W        W25136  13.232   6.601   3.417  0.3002 -0.1766 -0.0233
 4857W        W25137   6.337  18.030   0.011  0.0052 -0.1888 -0.0110
 4858W        W25138   1.317   7.268   1.433 -0.1388 -0.3044  0.0628
 4859W        W25139   3.698  16.353   1.825  0.0499 -0.0598  0.1160
 4860W        W25140  19.483   5.631  12.543  0.1495 -0.0998 -0.1436
 4861W        W25141  14.369   2.671   3.180  0.0689  0.2355  0.1466
 4862W        W25142   8.652  12.936   3.389 -0.1049  0.0129  0.2861
 4863W        W25143   8.687   0.025   1.091  0.0623  0.1945  0.2770
 4864W        W25144  16.574  17.628  13.531  0.3752  0.3163 -0.0822
 4865W        W25145   4.754  10.151  12.028 -0.1483  0.1379  0.2862
 4866W        W25146  16.867  16.116  10.192 -0.0551 -0.1248 -0.0628
 4867W        W25147  11.839  19.490  13.098 -0.5143 -0.1906  0.3084
 4868W        W25148   4.154   8.983  13.645 -0.0957 -0.0393 -0.0961
 4869W        W25149   0.496   3.333  14.094  0.0365 -0.0087 -0.0070
 4870W        W25150  10.483  10.264   4.518 -0.2705 -0.3014  0.1424
 4871W        W25151  18.391  18.351   1.424  0.0077  0.2852  0.1502
 4872W        W25152   7.017   6.455  11.129  0.1012 -0.2996 -0.3106
 4873W        W25153   5.429  15.732   0.871 -0.0586 -0.0808 -0.0405
 4874W        W25154   1.687   4.566  11.675 -0.3388 -0.1316  0.0923
 4875W        W25155  10.979   4.314  13.930 -0.1162 -0.0792 -0.1530
 4876W        W25156  13.809   0.271   0.207 -0.3519 -0.0584 -0.0331
 4877W        W25157   3.793  13.207  12.701  0.1485  0.2340  0.1775
 4878W        W25158  16.421   4.482  11.419  0.0472 -0.3703 -0.2179
 4879W        W25159   0.457  13.432  11.007 -0.0258 -0.1037  0.2279
 4880W        W25160  18.357  15.951   1.111  0.0966  0.1431 -0.1609
 4881W        W25161   1.666   5.922  13.771  0.2264 -0.0748  0.0547
 4882W        W25162  11.649   7.978  11.576 -0.0301 -0.0956 -0.1715
 4883W        W25163  17.139  13.109  12.647  0.2932 -0.2728  0.2363
 4884W        W25164  14.896  12.067   1.230  0.0645  0.0360 -0.2187
 4885W        W25165  13.024  16.672   3.637  0.5509 -0.0818 -0.0371
 4886W        W25166   8.018   5.633   3.455  0.0627  0.0493  0.3386
 4887W        W25167  11.084   2.690   2.012 -0.3341 -0.0614 -0.0138
 4888W        W25168  13.809  12.998  14.091 -0.1525 -0.3102  0.2396
 4889W        W25169   9.605   9.346   2.520 -0.2651  0.2409  0.0593
 4890W        W25170  19.470  17.164  12.396 -0.0655  0.2316 -0.2748
 4891W        W25171  12.123   4.438   3.473  0.2301 -0.1379  0.0895
 4892W        W25172  17.090  13.812   0.387  0.0122  0.0238  0.1572
 4893W        W25173   4.204  16.818   9.115 -0.1396 -0.0383  0.0594
 4894W        W25174   2.545   4.182  12.784  0.1853  0.1060 -0.0907
 4895W        W25175  14.789  10.546  12.570  0.2693  0.1779 -0.0789
 4896W        W25176  13.341  19.718   0.752  0.1426 -0.0938  0.1779
 4897W        W25177   0.140   0.729  11.430  0.3450 -0.3040  0.0443
 4898W        W25178   1.150   3.469   1.880 -0.0293 -0.1583 -0.0159
 4899W        W25179   1.095  16.694   1.737 -0.0017 -0.0125  0.2547
 4900W        W25180   4.193  15.893  13.741 -0.0071  0.0496 -0.0846
 4901W        W25181   3.336   1.769   1.746  0.1049 -0.1842 -0.1452
 4902W        W25182  11.681  14.537   1.865  0.1570  0.2291 -0.0902
 4903W        W25183   5.138  15.308  12.956 -0.1081  0.0538 -0.1019
 4904W        W25184   5.731  11.100   2.069  0.1347 -0.2522  0.1048
 4905W        W25185   1.898   0.332   2.318  0.1174  0.1234 -0.0229
 4906W        W25186  11.216  18.977  14.010 -0.0121 -0.0752  0.0938
 4907W        W25187  18.627   0.718  11.214 -0.2552 -0.1331  0.2490
 4908W        W25188  19.023  15.502  13.879 -0.1676  0.1446  0.0561
 4909W        W25189  15.006   5.990   3.913  0.0222 -0.1863  0.2143
 4910W        W25190   4.402  15.106   1.591  0.2708  0.0611  0.1506
 4911W        W25191  18.910  18.539   0.992 -0.0538 -0.0051 -0.1927
 4912W        W25192  13.789   1.466   9.861  0.2645  0.0097 -0.0906
 4913W        W25193  15.201   2.740   3.386  0.0857  0.0604  0.0537
 4914W        W25194  11.036   5.663   1.727 -0.0371  0.5879 -0.0061
 4915W        W25195  12.122  16.245  12.329 -0.1027  0.1654  0.1245
 4916W        W25196   6.059  13.580   1.076 -0.0469 -0.0907  0.2746
 4917W        W25197   6.298   7.616  12.635  0.1051 -0.0925 -0.0179
 4918W        W25198  13.308  12.185   2.395  0.0969 -0.0959 -0.1315
 4919W        W25199  12.906   1.314   2.233  0.1216 -0.1108  0.1832
 4920W        W25200  11.279   2.272   0.002  0.3479  0.0121 -0.2049
 4921W        W25201   4.584   4.449  12.479  0.1035  0.2043  0.0637
 4922W        W25202  16.152  10.813  10.866  0.0712  0.2703  0.0987
 4923W        W25203  15.971  15.454  13.106 -0.0872  0.1915 -0.0030
 4924W        W25204  19.341   1.048  10.530 -0.0513 -0.2952 -0.1642
 4925W        W25205   8.467   1.743   0.647  0.1538  0.0928  0.3246
 4926W        W25206  10.524   5.033   3.799 -0.0210  0.1205 -0.0250
 4927W        W25207   4.494  16.900   2.822 -0.1812 -0.0078  0.2236
 4928W        W25208   9.483  15.554   2.913  0.0302  0.0468  0.1052
 4929W        W25209   8.584   7.491   1.479 -0.0220  0.1346 -0.1505
 4930W        W25210   0.827  14.920   1.880 -0.2858  0.0582  0.2453
 4931W        W25211  13.406   2.878  11.647  0.0047 -0.2182 -0.2916
 4932W        W25212  11.244   9.326  13.732 -0.0573  0.0752  0.2037
 4933W        W25213   5.524   7.307  11.372 -0.0332  0.0743 -0.2212
 4934W        W25214   6.100  11.350  12.777 -0.1813  0.1944  0.1069
 4935W        W25215   9.567   9.703   9.988 -0.2295 -0.3422 -0.1157
 4936W        W25216   8.327   5.689   1.095  0.1988  0.0540 -0.0495
 4937W        W25217  12.974  13.717   3.795  0.1214 -0.2081 -0.1777
 4938W        W25218   6.081  15.864  12.437 -0.0968  0.0934 -0.0148
 4939W        W25219   7.438  15.925   2.228 -0.1077  0.0603  0.0486
 4940W        W25220   1.552   5.447   1.288  0.4492 -0.1228  0.0427
 4941W        W25221   0.409  10.722  12.372  0.2164 -0.1202 -0.0819
 4942W        W25222   1.993  10.884   2.043 -0.3454 -0.1461 -0.0157
 4943W        W25223  18.490  14.142   0.731  0.1314 -0.3189  0.2533
 4944W        W25224   0.732   3.265  12.342 -0.1721  0.1160  0.0629
 4945W        W25225   0.485   5.821   1.625 -0.0326  0.2754 -0.0584
 4946W        W25226  14.656   0.734  10.346  0.3684  0.3441 -0.0105
 4947W        W25227   9.781  15.339  11.011  0.2711  0.3469  0.0025
 4948W        W25228  18.226  10.331  10.798  0.0542 -0.1157  0.0853
 4949W        W25229  10.964  11.931   0.643 -0.0320 -0.0182 -0.2711
 4950W        W25230   1.254   8.148  12.979  0.0570  0.0958  0.0698
 4951W        W25231   4.415  18.719   4.724 -0.4028  0.2044  0.0578
 4952W        W25232  19.238   0.536   0.987  0.2301 -0.1156 -0.0374
 4953W        W25233   2.772  14.919   3.887 -0.1667 -0.0078 -0.1398
 4954W        W25234  11.931   2.315   0.620  0.2173 -0.3027 -0.2470
 4955W        W25235  17.776  17.759   0.129  0.2637  0.0648  0.2628
 4956W        W25236   7.220  15.000   3.900  0.0493 -0.0111 -0.2324
 4957W        W25237  13.456  18.712   3.981  0.0356 -0.0186  0.1613
 4958W        W25238   4.483   1.819   1.213  0.2223  0.4120 -0.2571
 4959W        W25239  15.293  13.729   1.385  0.0378 -0.2167 -0.0479
 4960W        W25240  19.186  13.971  11.607 -0.0590 -0.1636  0.0276
 4961W        W25241   7.657   5.708   1.085  0.0043 -0.4625  0.2775
 4962W        W25242   3.245   1.789  12.211 -0.0368  0.2117  0.0416
 4963W        W25243   9.448   1.817  11.252 -0.0244 -0.0809  0.2867
 4964W        W25244   8.007   7.763   4.310  0.0324  0.0204 -0.1305
 4965W        W25245  12.248  17.537  10.332  0.1590 -0.5135 -0.0587
 4966W        W25246   2.967   6.277  12.935 -0.1009  0.0208  0.2630
 4967W        W25247   1.476   1.886  10.438 -0.3100  0.1350 -0.1447
 4968W        W25248  18.981   2.552  10.442  0.3930 -0.2322 -0.1165
 4969W        W25249   5.704   1.079   1.173  0.2849  0.1114 -0.2049
 4970W        W25250   4.066  13.723   0.222  0.1058  0.2239  0.1534
 4971W        W25251  17.842  11.895  11.446 -0.1127  0.0308 -0.0684
 4972W        W25252   8.544   4.570   1.150  0.1831 -0.1913 -0.1555
 4973W        W25253  11.929   3.505  11.961  0.0516  0.0595  0.3087
 4974W        W25254  11.173   4.843  11.622  0.1058 -0.3628 -0.1895
 4975W        W25255   5.262  15.108  11.210  0.2104  0.1313 -0.2550
 4976W        W25256  17.266   7.627   0.923 -0.0847 -0.2606 -0.1908
 4977W        W25257   5.366   6.410  10.781  0.1908  0.3685  0.0484
 4978W        W25258  12.705  11.496   4.065  0.2308 -0.0397  0.2524
 4979W        W25259  10.034  16.752   3.131 -0.0723 -0.1703  0.3862
 4980W        W25260  13.538   4.718   1.092  0.0425  0.0744  0.2124
 4981W        W25261  15.302  14.812   3.483  0.1127 -0.0345 -0.1327
 4982W        W25262  15.429  10.315  13.492 -0.0425  0.0508 -0.0536
 4983W        W25263  16.431   0.078  10.286 -0.2012 -0.0125  0.2126
 4984W        W25264   1.134  16.148  13.010 -0.1229  0.3694  0.2316
 4985W        W25265   4.547   2.437  13.538  0.0792  0.0759 -0.1024
 4986W        W25266  18.041  17.473  12.798 -0.2124 -0.5528 -0.0133
 4987W        W25267  18.443   2.253  12.578  0.0296 -0.1127 -0.1400
 4988W        W25268  19.711  11.059   1.838  0.1843  0.3626 -0.1541
 4989W        W25269  19.310   8.675  13.791  0.1864  0.1277 -0.0773
 4990W        W25270  12.207   7.892   1.037 -0.0743 -0.6692  0.0480
 4991W        W25271   8.574   1.405  12.742 -0.1602 -0.3385 -0.0751
 4992W        W25272   9.179   9.256  11.501  0.1174 -0.3824  0.0614
 4993W        W25273  10.122   7.478   3.686  0.2437 -0.0520 -0.0136
 4994W        W25274  16.048  12.816  13.305 -0.3133  0.2791 -0.0561
 4995W        W25275  16.086  18.023  10.084 -0.2597 -0.0717 -0.0038
 4996W        W25276  15.778   6.884  10.769  0.1471  0.4956  0.0715
 4997W        W25277   6.393   1.698   2.615 -0.4227  0.2150 -0.2623
 4998W        W25278  19.205   8.312  12.112 -0.0597 -0.1627 -0.0245
 4999W        W25279   3.231  10.498   3.390 -0.0790 -0.0812 -0.0333
 5000W        W25280  14.061   0.534   3.205  0.1515 -0.5346  0.2892
 5001W        W25281   7.877  16.046  12.268  0.1345 -0.1197  0.2251
 5002W        W25282   9.760   2.595   0.174  0.0052 -0.2051  0.3751
 5003W        W25283  18.679  16.918   2.860 -0.1332  0.0500 -0.2417
 5004W        W25284   1.396   1.556  12.018 -0.0135 -0.1461 -0.1252
 5005W        W25285  16.028   2.078  10.069 -0.0048  0.0038 -0.3229
 5006W        W25286   3.429  14.142  13.301 -0.1211  0.0222  0.0129
 5007W        W25287  17.784   1.757   4.108 -0.1724 -0.1295  0.3411
 5008W        W25288   0.572   7.789   1.113 -0.1536  0.0262  0.0981
 5009W        W25289   3.788   5.813   1.215  0.0122 -0.0037  0.0846
 5010W        W25290  12.913   9.382   1.655  0.1593 -0.0825  0.0475
 5011W        W25291   8.408   0.303  11.209 -0.1961 -0.4300  0.1734
 5012W        W25292  13.316   4.111   2.335  0.1939  0.2167 -0.1337
 5013W        W25293   2.307  11.033   5.174 -0.1616  0.0664 -0.2295
 5014W        W25294   5.617  14.492  12.882  0.2092 -0.0774 -0.2420
 5015W        W25295  11.469   8.661   3.617  0.0796 -0.0654 -0.0082
 5016W        W25296   1.324   3.664  11.574  0.0253  0.1569  0.0879
 5017W        W25297   5.020  12.633   2.617  0.2061 -0.3790  0.2206
 5018W        W25298   5.152  18.421  10.483  0.0426 -0.3336  0.2247
 5019W        W25299   7.342   3.795   2.570 -0.1683 -0.1341 -0.0437
 5020W        W25300  17.382   2.948   1.970  0.0886  0.0251  0.2619
 5021W        W25301  12.430  14.856   0.123  0.1845  0.0602  0.3139
 5022W        W25302   7.212   0.017  10.009  0.1048  0.1671  0.1338
 5023W        W25303   4.637  11.583  12.088  0.3663  0.0638  0.0498
 5024W        W25304  19.424  14.384   0.706 -0.3511 -0.1063 -0.0109
 5025W        W25305   0.141  16.114  13.097  0.0587 -0.0491 -0.0171
 5026W        W25306  16.142  17.900  12.032 -0.0778 -0.0224 -0.1586
 5027W        W25307  19.010   2.964   0.474 -0.1903  0.0784 -0.0565
 5028W        W25308  19.110   9.913   0.288 -0.4013 -0.0583 -0.0521
 5029W        W25309   2.177  13.375  12.840 -0.0566 -0.3582  0.0282
 5030W        W25310  19.361  17.271   1.935  0.0699 -0.4313  0.2637
 5031W        W25311  18.281   1.490  14.022 -0.1686  0.1833 -0.3189
 5032W        W25312   4.058  15.351  13.748 -0.0089 -0.3508  0.0624
 5033W        W25313   4.589  17.250   2.395  0.1682 -0.0417  0.4843
 5034W        W25314  18.071   1.766  13.590  0.1792  0.3378 -0.3905
 5035W        W25315  15.118   2.985   2.295  0.3082  0.4258 -0.1095
 5036W        W25316   3.437  11.706   0.395 -0.1167 -0.2423 -0.0700
 5037W        W25317   0.782  13.377   2.497  0.4001  0.0109 -0.2419
 5038W        W25318  10.979  14.212   2.222  0.1383  0.1507 -0.1825
 5039W        W25319   0.062  18.062   0.119  0.4624  0.3323 -0.3068
 5040W        W25320  15.483   2.274   1.961 -0.2181  0.2115  0.1872
 5041W        W25321   7.354   9.531   2.313 -0.0426 -0.3500  0.2430
 5042W        W25322   4.644  16.208  13.366  0.0046 -0.1838 -0.2283
 5043W        W25323  16.119  13.054  11.046  0.2445 -0.0850  0.3898
 5044W        W25324   9.264  15.049   5.156 -0.0365 -0.0458  0.0684
 5045W        W25325   6.925   4.811   3.352 -0.1476  0.0476 -0.0820
 5046W        W25326  13.100  14.536  13.058  0.0090  0.3212  0.1506
 5047W        W25327   5.566  15.891  13.827 -0.0110  0.2763 -0.2344
 5048W        W25328  16.938   4.163  13.938 -0.1014 -0.0256 -0.0484
 5049W        W25329   3.561  17.574  14.024 -0.0548  0.1300 -0.0819
 5050W        W25330  11.174  10.434   3.355 -0.2244  0.1071  0.0229
 5051W        W25331   4.590  18.170  12.721 -0.0913 -0.2680  0.1066
 5052W        W25332   7.027  19.071   1.773 -0.1544  0.1900  0.2477
 5053W        W25333   4.000  18.646  10.186  0.1068 -0.0612 -0.0053
 5054W        W25334   9.732  11.422   1.245  0.1741 -0.0485  0.1192
 5055W        W25335   8.422  16.875  10.940  0.1838 -0.0181  0.0782
 5056W        W25336  17.872   3.847   2.048 -0.0201  0.1346 -0.2717
 5057W        W25337   1.580   0.774   2.061  0.1336  0.2630  0.2077
 5058W        W25338  14.343  18.799  13.824  0.0053 -0.1390 -0.3867
 5059W        W25339  16.191   7.026  11.008  0.3144  0.3981 -0.0990
 5060W        W25340   7.322   5.465  11.247  0.2594 -0.3193  0.2010
 5061W        W25341  14.213  17.283   1.201 -0.0924  0.1969 -0.2251
 5062W        W25342   5.587   8.400   0.935 -0.1744  0.0339 -0.0905
 5063W        W25343   4.138   7.109   2.577 -0.1855  0.0758 -0.0104
 5064W        W25344  10.725   9.340  10.911 -0.1002  0.1320  0.0909
 5065W        W25345   9.258   5.923   1.656 -0.0282  0.0845  0.0151
 5066W        W25346   1.914   3.466  12.240  0.0113 -0.3589  0.0734
 5067W        W25347   5.074   4.468   1.089  0.0267 -0.1044  0.4359
 5068W        W25348   9.755   2.100   1.980 -0.1648  0.3080  0.0607
 5069W        W25349   6.138   8.989   5.235 -0.1860  0.2246  0.0818
 5070W        W25350   9.006   6.998  11.461  0.0654  0.3318  0.0621
 5071W        W25351   9.859   4.653   0.029 -0.0652 -0.1741 -0.1790
 5072W        W25352  12.375   6.876  10.888  0.2429 -0.3414 -0.1087
 5073W        W25353  11.848  10.333   1.497  0.3988 -0.0963  0.1230
 5074W        W25354   7.056  11.902  12.013  0.0191 -0.0935 -0.2217
 5075W        W25355   5.217   1.747   0.291 -0.2844 -0.1444  0.0267
 5076W        W25356  10.930  17.531   2.396 -0.1715  0.2351  0.0718
 5077W        W25357   1.652  19.464  13.265 -0.1174 -0.0483  0.4092
 5078W        W25358  18.212  15.390   3.980 -0.0229 -0.1231 -0.2281
 5079W        W25359   8.123  12.724   1.035 -0.0731  0.1584 -0.3108
 5080W        W25360   6.816  17.910  14.018 -0.0615 -0.2357  0.0617
 5081W        W25361   2.663  19.645  10.706  0.2368  0.0420  0.1667
 5082W        W25362   0.468   7.842   0.557 -0.0099  0.0563 -0.1685
 5083W        W25363   6.691  13.695  11.384 -0.0825 -0.4916  0.1650
 5084W        W25364  17.152   8.700  13.992 -0.0190 -0.1808  0.0286
 5085W        W25365  16.399  15.675  13.103  0.1702 -0.1683 -0.3190
 5086W        W25366   9.770   7.773   2.718 -0.2817 -0.0010  0.0923
 5087W        W25367   6.807   3.402   0.421 -0.0806  0.0174 -0.3033
 5088W        W25368  19.457  19.565  11.375 -0.2723  0.5779  0.0448
 5089W        W25369  10.189   8.654   2.291  0.1616 -0.1594 -0.0470
 5090W        W25370  13.963  10.609  12.740 -0.3229 -0.0496  0.0225
 5091W        W25371   1.146   9.408   5.113 -0.2287 -0.1166 -0.1465
 5092W        W25372  10.292  11.170   4.876  0.1321 -0.1458  0.0174
 5093W        W25373   3.161   8.934   3.633  0.0986 -0.1013  0.0097
 5094W        W25374  16.121   3.010   0.401 -0.1132  0.0653 -0.1159
 5095W        W25375   1.999   6.270  12.864 -0.1627  0.1033  0.0312
 5096W        W25376   0.075  14.555   3.483 -0.0771  0.1084  0.3884
 5097W        W25377  17.720  13.057  11.445 -0.1470 -0.2392  0.2129
 5098W        W25378   1.446   2.205   2.497 -0.0570 -0.0111  0.1274
 5099W        W25379  17.646  15.936  11.711  0.0377  0.2445  0.0517
 5100W        W25380  11.258  14.294   3.092  0.0618 -0.0073  0.0656
 5101W        W25381   6.937  15.263   2.802  0.0633  0.0757  0.0325
 5102W        W25382  14.139  17.126   2.015 -0.1979  0.1036  0.1071
 5103W        W25383  18.756  17.130  11.682  0.3072  0.0475  0.0766
 5104W        W25384  14.419  10.496   2.980 -0.1293  0.0489 -0.1985
 5105W        W25385   7.705  13.135  13.632 -0.0223  0.1286  0.0780
 5106W        W25386   9.104   0.295   0.197 -0.1029  0.0623  0.1979
 5107W        W25387   9.345   2.051   3.135  0.2598  0.0487 -0.0927
 5108W        W25388   9.073   9.941  14.095  0.3689  0.2100  0.0904
 5109W        W25389   6.815   6.513  10.578 -0.1478  0.2293  0.1718
 5110W        W25390   4.549   1.413  10.251  0.2870  0.1508 -0.3058
 5111W        W25391  16.829  12.602   2.845 -0.1389 -0.2132 -0.2317
 5112W        W25392   4.072  15.790   1.269  0.0955 -0.1553 -0.0429
 5113W        W25393   7.136   9.264   0.547  0.1227  0.0681  0.0423
 5114W        W25394   7.943   2.124  11.746 -0.0663  0.2052 -0.0803
 5115W        W25395  11.007   8.774   4.738 -0.1747 -0.1766  0.0424
 5116W        W25396   0.494  15.081   1.543  0.3765 -0.1211 -0.2743
 5117W        W25397   3.381  16.641   0.683 -0.0124  0.2613 -0.1689
 5118W        W25398  12.017  17.191  13.050  0.3492  0.3156  0.1273
 5119W        W25399   1.402   5.761   4.503  0.0541 -0.0674  0.4153
 5120W        W25400  17.321   3.487   0.579  0.2213  0.4653  0.0630
 5121W        W25401   9.875   3.479   0.574  0.0585  0.2111 -0.0309
 5122W        W25402  14.663   2.538   1.733 -0.1845  0.1255  0.4089
 5123W        W25403   4.418   9.269  11.439 -0.0710 -0.1539  0.3058
 5124W        W25404  17.466  11.235   3.762 -0.0561  0.0239 -0.0601
 5125W        W25405   8.612   7.185   1.060 -0.2044 -0.0392 -0.0521
 5126W        W25406   1.469  12.950   2.968 -0.1476  0.2179  0.1420
 5127W        W25407  18.063   8.935   1.604  0.0895  0.2981 -0.1952
 5128W        W25408  13.658  12.338   0.674 -0.2459 -0.0139 -0.2389
 5129W        W25409   9.786   6.705   1.681  0.2258  0.1850 -0.0700
 5130W        W25410   2.999   0.045   0.506 -0.4105  0.0786 -0.1779
 5131W        W25411   5.147  10.177  10.574  0.2115  0.2895 -0.1204
 5132W        W25412   5.976   6.965   2.712  0.0756 -0.1347 -0.0871
 5133W        W25413  16.040   6.237  14.034 -0.0135 -0.1688 -0.1231
 5134W        W25414  15.374  17.543  10.572  0.2517 -0.0334  0.0644
 5135W        W25415  13.938   0.571  12.947 -0.3140 -0.1707  0.1361
 5136W        W25416  14.822   3.224  10.623 -0.2680  0.1833 -0.0492
 5137W        W25417   9.632  16.080   9.275  0.4264  0.0729  0.0187
 5138W        W25418  11.471   7.378  10.929  0.0077  0.0162  0.0968
 5139W        W25419  16.957   5.681  10.971 -0.1310 -0.2087  0.3030
 5140W        W25420  14.376   1.885  10.992 -0.0921  0.2030  0.0914
 5141W        W25421  18.457   5.453  11.359 -0.1817 -0.2467 -0.0328
 5142W        W25422  12.689  15.665  13.220  0.0208  0.0563  0.0796
 5143W        W25423  13.990  15.868  11.122 -0.0949  0.4297 -0.2343
 5144W        W25424  12.125  13.513   3.519 -0.2559  0.1888 -0.1424
 5145W        W25425  18.703  11.717   3.221 -0.2766  0.0712 -0.2103
 5146W        W25426  16.422   4.122   1.143  0.0244 -0.1398  0.0700
 5147W        W25427  13.134   0.862  12.338 -0.2371  0.0174 -0.1144
 5148W        W25428  10.252  17.979   1.715  0.0521 -0.1532 -0.0729
 5149W        W25429  11.380  17.724   3.300  0.3069  0.2759  0.0949
 5150W        W25430  13.470  11.287  12.123  0.3290  0.2568 -0.1603
 5151W        W25431  18.096   9.809   5.368 -0.1552 -0.0844  0.0381
 5152W        W25432  10.425  12.158  10.681  0.0416  0.0189 -0.1713
 5153W        W25433  18.940  11.240  10.250 -0.3056 -0.0344 -0.0834
 5154W        W25434   1.995  12.464   2.644 -0.0826 -0.1811  0.2221
 5155W        W25435   4.091   7.186  13.239 -0.3296  0.0007 -0.0930
 5156W        W25436  17.222   8.990  10.798  0.0847  0.0805  0.0018
 5157W        W25437  17.597   4.102   2.599 -0.1382  0.1130 -0.0374
 5158W        W25438   3.806  12.890  11.133 -0.0678  0.1350  0.3191
 5159W        W25439   2.878  15.298  12.166  0.0209  0.0826  0.1983
 5160W        W25440  14.419  14.074  13.797 -0.0682 -0.2118 -0.2606
 5161W        W25441   7.178   2.191   1.399  0.0133 -0.2871  0.2179
 5162W        W25442  12.604   5.520   2.585  0.0303  0.0358  0.0172
 5163W        W25443  13.222   3.333  13.323  0.0703 -0.0783  0.0259
 5164W        W25444  16.998   0.133   0.198 -0.2438 -0.1987 -0.1226
 5165W        W25445  14.871   4.573  11.972 -0.1773  0.0260  0.2394
 5166W        W25446   0.302   3.366   1.452  0.2734  0.0704 -0.2266
 5167W        W25447   6.816   2.376  11.996  0.3363  0.1268 -0.1191
 5168W        W25448   6.389   4.840   3.703  0.0791 -0.1999 -0.1760
 5169W        W25449   3.033  10.805   2.263 -0.2682 -0.0852 -0.1671
 5170W        W25450   0.014  15.572  10.010 -0.4108  0.2759  0.1537
 5171W        W25451  18.868   1.520  10.185 -0.2637 -0.1414 -0.0295
 5172W        W25452   3.129   5.066  13.787 -0.0116 -0.3805 -0.2301
 5173W        W25453   8.312   8.370  11.541 -0.0385  0.3320  0.1332
 5174W        W25454   6.728  18.459  11.724 -0.2704  0.0353 -0.1551
 5175W        W25455  12.129  15.153  11.859 -0.0692 -0.0756  0.0207
 5176W        W25456   5.821  13.395   2.458  0.1529 -0.0895 -0.2573
 5177W        W25457   5.455   3.836  10.896  0.0865 -0.2825  0.1246
 5178W        W25458  15.481  11.423   2.502 -0.0465 -0.0300  0.0553
 5179W        W25459  16.529   1.249   3.333  0.1550 -0.0203 -0.2783
 5180W        W25460   6.441  18.560   3.407  0.0736 -0.1971  0.3220
 5181W        W25461   6.450  13.742   1.487  0.1813  0.1735 -0.1856
 5182W        W25462  10.267   8.845  12.239 -0.0972 -0.4093  0.0279
 5183W        W25463   5.061   3.094   2.300  0.1686  0.1003 -0.1776
 5184W        W25464   8.546   7.866  10.813  0.2943 -0.3577 -0.1338
 5185W        W25465  16.797  12.940  12.235  0.1824  0.0528  0.2360
 5186W        W25466   2.217  18.118   3.832  0.3280  0.0922 -0.2905
 5187W        W25467   8.034  12.506   2.315  0.0330 -0.0301 -0.0991
 5188W        W25468   3.219   3.747  13.935 -0.2176 -0.3026  0.0847
 5189W        W25469   3.262  17.371   1.095 -0.3378  0.3492 -0.5407
 5190W        W25470  15.695   8.941   2.721 -0.2520 -0.0752 -0.0331
 5191W        W25471   0.569  11.558   3.996 -0.2212  0.1035 -0.2391
 5192W        W25472   7.028  17.339   0.813  0.2729  0.0415 -0.3477
 5193W        W25473  18.491   1.527   2.464 -0.2570 -0.2027 -0.0515
 5194W        W25474   6.719  11.013   0.867 -0.0860  0.2789 -0.0707
 5195W        W25475  19.464   1.186  12.623  0.0236  0.2028 -0.3147
 5196W        W25476   3.779   0.688  10.128  0.1684 -0.0699  0.0760
 5197W        W25477  15.640  12.138  13.896 -0.1106 -0.5529  0.1506
 5198W        W25478   6.221  11.744   0.922  0.0109  0.0632  0.0692
 5199W        W25479   2.793  13.919   0.359  0.0397  0.1086  0.0906
 5200W        W25480   4.453   8.609   0.027 -0.2128  0.0660 -0.0013
 5201W        W25481  11.832  15.575   0.158  0.2445 -0.2213  0.0639
 5202W        W25482  18.496   3.816   2.066  0.1417 -0.0242  0.1692
 5203W        W25483  12.484  18.345  11.228 -0.0104  0.1733  0.2290
 5204W        W25484   0.297   7.669  11.378 -0.1192  0.1735 -0.3376
 5205W        W25485   4.080  17.212  12.051  0.3054 -0.2473 -0.1660
 5206W        W25486  15.153  13.258   1.640 -0.0156 -0.4839  0.2720
 5207W        W25487  11.459   9.510  12.761 -0.1618  0.2427  0.1995
 5208W        W25488  11.393  17.475  10.762  0.1337 -0.2921  0.3295
 5209W        W25489   0.022  16.941  13.323 -0.0067  0.3043 -0.0805
 5210W        W25490   9.857  10.597   5.435 -0.0795 -0.1977 -0.0761
 5211W        W25491  19.285  11.395   3.069 -0.0070 -0.0410  0.3855
 5212W        W25492   2.978   1.691  11.015 -0.2003  0.2425  0.1051
 5213W        W25493  12.624   7.480   2.777  0.0671 -0.2117 -0.0609
 5214W        W25494   2.114   7.808  13.598 -0.2231  0.2214 -0.0640
 5215W        W25495  19.723  15.117  13.819  0.1775 -0.1566  0.0038
 5216W        W25496   2.084   7.018  11.025  0.4051 -0.0150 -0.0584
 5217W        W25497  18.135   5.592  12.422  0.3324 -0.0654  0.0651
 5218W        W25498   5.490  11.022  10.541  0.1581  0.3841 -0.3666
 5219W        W25499   6.060  17.236  12.964 -0.0581 -0.0821  0.0398
 5220W        W25500  14.903   5.606   1.569 -0.1995  0.0719  0.2251
 5221W        W25501   3.814   2.128  13.992 -0.3279 -0.0889  0.1275
 5222W        W25502   2.432  12.055  11.494 -0.0079  0.0033  0.1223
 5223W        W25503   5.500   3.360   3.431 -0.0654  0.2035 -0.0932
 5224W        W25504   6.018   5.950   3.178 -0.5517  0.0274  0.2791
 5225W        W25505  17.151  12.904  13.490  0.0829  0.2829 -0.0623
 5226W        W25506  18.285   5.629   3.781 -0.0280  0.0687  0.0881
 5227W        W25507  16.720   1.134  11.657  0.1281  0.0888 -0.2379
 5228W        W25508   5.373   8.881   1.551 -0.3036  0.2625 -0.1256
 5229W        W25509  16.488  16.252  14.043  0.2633  0.2224  0.1947
 5230W        W25510  13.363  11.070   9.991 -0.2386 -0.5185  0.0040
 5231W        W25511  11.566   9.830   3.094  0.1115  0.1508 -0.0132
 5232W        W25512  10.254   9.520   0.696  0.2026 -0.2729 -0.0817
 5233W        W25513   5.888  17.322  10.571 -0.0144  0.1681 -0.0064
 5234W        W25514   7.067   1.618   0.719 -0.3488 -0.0233 -0.0776
 5235W        W25515   6.252  13.291   1.537 -0.0222  0.0773  0.0702
 5236W        W25516   9.792  10.303   1.866 -0.2749 -0.1212  0.1713
 5237W        W25517  14.069   2.640  10.619 -0.0041  0.1650 -0.2152
 5238W        W25518   7.382  17.438  10.439  0.0858  0.0482 -0.1782
 5239W        W25519   2.321   7.470  10.339 -0.1324  0.0300  0.2600
 5240W        W25520   1.469  15.198   3.961 -0.0428 -0.0973  0.1803
 5241W        W25521  12.855  16.793   0.822  0.3923 -0.0794  0.2163
 5242W        W25522   5.384  17.134   0.929  0.3101  0.1839  0.1124
 5243W        W25523   6.982   8.738   3.234 -0.1393 -0.1509  0.2521
 5244W        W25524   5.783  19.400  11.365 -0.1369  0.1276  0.1834
 5245W        W25525  14.005   1.756   0.850 -0.0393 -0.1520  0.0428
 5246W        W25526   4.802   3.047   2.763  0.3338  0.2408 -0.1013
 5247W        W25527   9.058   4.475  11.346 -0.1784  0.2205  0.1615
 5248W        W25528   1.223  19.618  13.789 -0.0186 -0.2098  0.0259
 5249W        W25529   1.659   9.611  12.428 -0.1038 -0.0475  0.0094
 5250W        W25530   0.074  14.156  10.708 -0.3219  0.0391 -0.0005
 5251W        W25531   7.422  10.695  12.743  0.0900  0.0997 -0.3252
 5252W        W25532   8.306   7.173  12.177 -0.4017 -0.0671 -0.0292
 5253W        W25533   1.548  16.288  11.165 -0.1517  0.2076  0.2676
 5254W        W25534   1.179   4.623   9.185 -0.2675 -0.2101  0.1182
 5255W        W25535   5.471  12.219   3.334  0.0115 -0.0202  0.2629
 5256W        W25536  16.451   3.267   3.612  0.3165  0.1811 -0.2027
 5257W        W25537  17.594  18.406  13.105  0.1510 -0.1224  0.1288
 5258W        W25538   7.747  18.288   1.668 -0.3065  0.2508  0.0555
 5259W        W25539   3.063  15.104  13.389 -0.2335 -0.1709  0.0867
 5260W        W25540   9.810   0.203   0.814  0.0199  0.1232  0.0046
 5261W        W25541  19.647   8.495  14.073  0.0138  0.1946  0.3018
 5262W        W25542  15.265   6.838  12.793  0.1078 -0.1385 -0.0945
 5263W        W25543  12.298   5.223  11.074  0.0859  0.2765  0.0108
 5264W        W25544  12.952   9.775  12.458 -0.0199 -0.0416  0.0136
 5265W        W25545   7.103  19.051   9.871  0.0153 -0.0895  0.0072
 5266W        W25546   5.177   5.499   2.881 -0.0617 -0.0876 -0.0877
 5267W        W25547   9.761  18.056   3.507  0.0011 -0.0979 -0.0644
 5268W        W25548  17.215   8.211  11.911 -0.0999  0.0044 -0.1603
 5269W        W25549   4.847   3.858  11.563  0.1561 -0.1102 -0.0262
 5270W        W25550   2.356  17.777  12.473 -0.2460 -0.1303  0.1966
 5271W        W25551   3.995   7.975   1.545 -0.3770  0.1274  0.0447
 5272W        W25552  10.804   1.622  13.100 -0.0969  0.0231  0.3266
 5273W        W25553  13.801   5.145  10.249  0.0173  0.0919  0.1592
 5274W        W25554  19.440  12.146   1.621 -0.1706 -0.3573 -0.3245
 5275W        W25555   0.339  13.608   2.976 -0.3271  0.0245  0.0394
 5276W        W25556  11.326   1.044  13.225 -0.0975 -0.0154  0.1027
 5277W        W25557  10.349  16.907   1.833 -0.0910 -0.2500 -0.0160
 5278W        W25558  15.995  14.376   1.515  0.2289 -0.1714 -0.0627
 5279W        W25559  14.433  18.381   4.060  0.3107  0.1111 -0.0214
 5280W        W25560  12.815   7.131   1.985 -0.0849 -0.0242 -0.0240
 5281W        W25561  19.723  14.903  12.991 -0.2470 -0.2402  0.0814
 5282W        W25562  18.203  13.434   0.696  0.0303 -0.1514 -0.0751
 5283W        W25563   6.022   3.549   1.033 -0.3448  0.0577  0.4481
 5284W        W25564   9.967   9.819   3.804  0.1218 -0.0256 -0.0905
 5285W        W25565  18.978  16.470   2.749  0.1200  0.0833  0.2888
 5286W        W25566   4.200  15.717   3.768  0.0587  0.1519  0.0358
 5287W        W25567   8.522   6.534  10.119  0.1217  0.0086 -0.0973
 5288W        W25568  15.133  18.355   2.289 -0.0371  0.1875 -0.0753
 5289W        W25569  12.542  13.733  12.194  0.3315 -0.0442  0.1235
 5290W        W25570   2.680   5.236   3.082 -0.2218  0.0034  0.1553
 5291W        W25571  12.005  17.780  13.896 -0.0862  0.0242 -0.3973
 5292W        W25572  17.015  14.599   1.920  0.0086  0.1015 -0.2072
 5293W        W25573   6.668   3.760  11.537 -0.0814 -0.0683  0.0977
 5294W        W25574  15.996  10.367   2.131 -0.1157 -0.0203  0.2667
 5295W        W25575  14.516   3.115  12.184 -0.0564 -0.3059 -0.0815
 5296W        W25576   1.262  11.714  13.628  0.2930 -0.1165 -0.2807
 5297W        W25577  17.774   0.162   2.439  0.1281 -0.0538  0.1924
 5298W        W25578   6.937   9.765   0.700 -0.0174 -0.0885  0.2319
 5299W        W25579   5.295   6.379   3.841 -0.0826 -0.2401  0.0095
 5300W        W25580   0.880   9.380   2.885  0.0967 -0.0294  0.0390
 5301W        W25581   9.267  17.150   1.169 -0.0040 -0.1959  0.1852
 5302W        W25582   3.036  13.844  12.071  0.0614 -0.5635 -0.2301
 5303W        W25583   1.680   9.684   4.217 -0.0480  0.0927 -0.2306
 5304W        W25584  13.291   3.589   3.523  0.1395 -0.0936 -0.0390
 5305W        W25585  11.041  18.970   2.361 -0.2585  0.2499 -0.0212
 5306W        W25586   6.647   0.105  12.596 -0.4054 -0.0350 -0.1159
 5307W        W25587  19.034   8.843  10.828 -0.0762 -0.3852  0.0177
 5308W        W25588  11.493   7.685   1.146  0.5037 -0.0491 -0.3067
 5309W        W25589   2.750  13.417  11.412 -0.1568  0.2572  0.3377
 5310W        W25590   1.062  10.096   3.011  0.0116 -0.1218 -0.3207
 5311W        W25591  15.216  17.413  11.085  0.0743 -0.0385  0.0499
 5312W        W25592  11.980   3.920   3.526 -0.1508 -0.0027 -0.0211
 5313W        W25593  10.564   9.261  13.007  0.1267  0.3139 -0.2279
 5314W        W25594   5.001  16.154  12.633 -0.0880 -0.1837  0.0875
 5315W        W25595  15.084  11.740  10.156 -0.2857  0.2960 -0.1077
 5316W        W25596  13.992  15.390  11.744  0.0012 -0.2168 -0.0033
 5317W        W25597  14.797  19.005  13.855 -0.0366  0.1481  0.1098
 5318W        W25598   9.166   3.460   1.717 -0.0213  0.1187  0.0176
 5319W        W25599   5.179   5.626  13.889 -0.0438  0.2429  0.0966
 5320W        W25600   8.694  13.058   2.582  0.0014  0.0538 -0.2425
 5321W        W25601  18.858  17.382   2.833  0.4683  0.2176 -0.3591
 5322W        W25602  14.942  18.189   2.797  0.2634  0.0456 -0.3022
 5323W        W25603   0.034   6.750   2.449 -0.0586  0.1237  0.2466
 5324W        W25604  14.020   7.711  11.615 -0.2437  0.1248  0.0417
 5325W        W25605  14.426   2.933  10.552  0.1045  0.0860 -0.1559
 5326W        W25606   0.978   5.323   3.762  0.2295  0.0528 -0.2307
 5327W        W25607   0.152   8.982   1.169 -0.0228  0.0782 -0.0724
 5328W        W25608  15.228   5.785  12.801  0.1997 -0.1485 -0.1676
 5329W        W25609  11.241   3.327  11.499 -0.0552  0.0297 -0.3348
 5330W        W25610   3.841   9.193  12.611  0.1006 -0.0012  0.1355
 5331W        W25611  10.050   0.813  13.275  0.0018  0.0645 -0.0208
 5332W        W25612   7.729   6.696  12.605 -0.0735  0.2223 -0.1479
 5333W        W25613   9.395  11.689   3.404  0.1335  0.0823 -0.0443
 5334W        W25614   0.948  12.548  11.031  0.2397 -0.0600  0.1090
 5335W        W25615   9.142  18.103   4.730 -0.0957  0.1025 -0.1305
 5336W        W25616   2.200   2.268   1.082 -0.1881 -0.1042 -0.1626
 5337W        W25617  10.108   4.371  11.281  0.0316  0.3838  0.2711
 5338W        W25618  10.926  11.155   4.177  0.1018  0.2087  0.4323
 5339W        W25619  14.335  16.290  12.761  0.0063  0.0512 -0.1540
 5340W        W25620  18.541   7.932  11.499 -0.1571  0.4196  0.1590
 5341W        W25621   7.839   8.936  12.628  0.0776 -0.0367  0.2486
 5342W        W25622   9.076  16.377   4.240  0.2114  0.0082  0.0231
 5343W        W25623  17.103   9.304   0.346 -0.2471  0.1789 -0.0957
 5344W        W25624  11.721  15.880   1.076 -0.0683 -0.0456  0.2017
 5345W        W25625  11.176  17.496  11.216 -0.2646 -0.0425  0.0270
 5346W        W25626  16.268   6.202   3.870  0.0468 -0.0992 -0.4770
 5347W        W25627   7.510  11.798  11.016 -0.3709  0.0649 -0.2652
 5348W        W25628  19.112   4.401   3.832 -0.1203  0.0068  0.0694
 5349W        W25629  17.231  12.467   3.137 -0.3606 -0.0869  0.0331
 5350W        W25630  17.671   1.665  13.324 -0.2423 -0.1738 -0.1704
 5351W        W25631   2.088   2.882   2.324  0.0264 -0.0005  0.0034
 5352W        W25632   7.435  13.140   3.686 -0.0271 -0.1574  0.2553
 5353W        W25633  12.560   6.134   2.416 -0.0997 -0.1122 -0.1640
 5354W        W25634  13.131  14.796  13.499 -0.1713  0.2572  0.0986
 5355W        W25635  12.163  18.194  13.609  0.1346  0.2470 -0.1307
 5356W        W25636  15.750   1.014   3.194 -0.0545  0.0340 -0.1478
 5357W        W25637   8.865  15.600  11.004 -0.2445 -0.1224 -0.1308
 5358W        W25638   2.164   9.042  10.711 -0.1240 -0.2526 -0.0487
 5359W        W25639  18.256  11.168   3.022  0.4153 -0.0910  0.0680
 5360W        W25640  16.641  14.242   2.097 -0.1308 -0.0884  0.3525
 5361W        W25641  11.267   8.739  11.090  0.1567 -0.0268  0.1612
 5362W        W25642   5.836   6.030  10.538  0.0096  0.0274 -0.1228
 5363W        W25643  18.635   9.855   1.006 -0.2649  0.0940  0.0598
 5364W        W25644  18.668   4.897  12.636  0.1784 -0.1725  0.4207
 5365W        W25645   8.393  10.357   3.788  0.2547 -0.3673  0.0508
 5366W        W25646  15.066   1.419  11.096  0.0074 -0.0969  0.2938
 5367W        W25647   0.191   9.454   4.145 -0.1461 -0.0508  0.2763
 5368W        W25648   9.954   9.860   0.981 -0.0088  0.0937 -0.2764
 5369W        W25649   1.892  17.622  12.631  0.0214  0.0729 -0.4203
 5370W        W25650   0.983  16.530  10.496 -0.3461  0.0230 -0.1082
 5371W        W25651  12.820  13.450   0.648 -0.0154  0.0320  0.2569
 5372W        W25652   1.986   4.884   3.577 -0.2515 -0.1654 -0.0661
 5373W        W25653   3.168   5.050   2.844 -0.1914  0.0730 -0.0306
 5374W        W25654  13.744  17.540   1.159  0.0890 -0.1716  0.1114
 5375W        W25655  18.742   2.959  10.658  0.0813 -0.1395  0.1181
 5376W        W25656  17.982   0.064   2.925  0.1400  0.1271 -0.1792
 5377W        W25657   8.204   2.893  12.819 -0.0822 -0.0300  0.1145
 5378W        W25658  14.989  14.918  10.211  0.0094  0.0691  0.0228
 5379W        W25659  15.544  17.436   3.147 -0.1150  0.2341 -0.0901
 5380W        W25660   4.326  14.340   1.538 -0.2634  0.1961 -0.0442
 5381W        W25661   5.684  18.972  13.021  0.3005 -0.2254  0.0278
 5382W        W25662  14.906  13.247  13.281  0.0354  0.0465  0.2980
 5383W        W25663   0.586   2.812   2.922  0.2190 -0.0253 -0.4084
 5384W        W25664  18.822   1.271  13.393 -0.0088 -0.1773 -0.1181
 5385W        W25665   7.439   3.363  12.506  0.0627 -0.2179 -0.3129
 5386W        W25666  13.931   8.188  11.393 -0.4468  0.0793 -0.1020
 5387W        W25667  12.824  11.067  13.198  0.3023  0.4679  0.0780
 5388W        W25668   4.804  16.833   1.647  0.0349  0.1864  0.1317
 5389W        W25669   2.856   1.961   0.145  0.0208  0.0207 -0.1922
 5390W        W25670  16.766  17.423  10.219 -0.0648 -0.0059  0.0663
 5391W        W25671   9.229   0.410  13.524 -0.3885  0.1623 -0.2159
 5392W        W25672   7.123  14.346  11.914  0.3362 -0.1021 -0.0067
 5393W        W25673  12.933   5.666   0.762  0.1103  0.2484  0.0764
 5394W        W25674   5.496  10.476  12.439  0.0665 -0.0251 -0.0300
 5395W        W25675  19.454   2.840  13.851  0.0122 -0.2090 -0.2920
 5396W        W25676  15.612   5.915  10.269  0.1826 -0.0594  0.3917
 5397W        W25677   9.119   5.264   0.211 -0.0424 -0.3309  0.1569
 5398W        W25678  11.950   8.408   3.722  0.2526 -0.0593  0.0444
 5399W        W25679   7.029   6.940  12.850  0.0940  0.2585  0.0497
 5400W        W25680  11.357  13.386  13.658 -0.1224  0.0259 -0.0358
 5401W        W25681   8.239   6.828   2.592  0.0641 -0.2686 -0.1699
 5402W        W25682   0.462   7.405  12.341 -0.4212 -0.0288 -0.0674
 5403W        W25683  19.423   5.075   1.067  0.1677  0.1963  0.0570
 5404W        W25684  18.393   6.093  14.082 -0.4021  0.1197  0.2717
 5405W        W25685   3.034   1.493   0.328  0.0749 -0.1187  0.3693
 5406W        W25686   1.490  11.650   2.938 -0.0340  0.3736  0.3780
 5407W        W25687  11.161   9.349   2.465 -0.0400 -0.0681 -0.0534
 5408W        W25688  17.653   5.419   0.446 -0.1933  0.2059  0.1885
 5409W        W25689   7.008   2.544   2.205 -0.1714  0.1191  0.1754
 5410W        W25690  11.867  11.133  12.650 -0.0709  0.0261 -0.0173
 5411W        W25691   3.899  14.381  13.413 -0.0124 -0.0828  0.0961
 5412W        W25692   3.245  14.647   0.671  0.0221  0.2975  0.1143
 5413W        W25693  18.820   1.305  10.757 -0.0531  0.0168  0.0599
 5414W        W25694   2.202   6.696  13.169  0.1941  0.2336 -0.0753
 5415W        W25695  13.319   1.345  10.327 -0.1187 -0.1819  0.1129
 5416W        W25696   7.822  11.577   2.428 -0.0413  0.0101 -0.0270
 5417W        W25697  11.718   1.916   2.004 -0.2059 -0.1010  0.2789
 5418W        W25698  15.861  13.642  13.754 -0.1055 -0.0455 -0.0590
 5419W        W25699   6.429  16.411   1.147  0.3133 -0.0621  0.0505
 5420W        W25700  18.275  13.889  11.426  0.0396 -0.1118 -0.0077
 5421W        W25701  11.732   8.343   0.060 -0.2976  0.1480  0.0187
 5422W        W25702   7.700  16.693   3.892 -0.1046 -0.0866  0.0352
 5423W        W25703   1.242  18.657   3.094  0.2936  0.0620 -0.2839
 5424W        W25704   3.546   2.060  10.643 -0.0550 -0.0136 -0.0115
 5425W        W25705  17.080  10.264   2.228 -0.2055  0.1865 -0.0229
 5426W        W25706   0.013  10.286  11.459  0.0039 -0.2518  0.0240
 5427W        W25707  18.452   7.815  11.980 -0.1255 -0.1602 -0.1567
 5428W        W25708  16.652  10.972   2.030  0.0972  0.1063 -0.0206
 5429W        W25709   7.497  10.947   1.448 -0.2817 -0.0079  0.1331
 5430W        W25710  18.771  11.908  13.032 -0.0099 -0.1851  0.0878
 5431W        W25711  14.504  10.447   3.545  0.2857 -0.1249  0.1941
 5432W        W25712   1.604   5.518   9.515  0.1148  0.0870  0.1896
 5433W        W25713   2.846  17.326  13.713  0.2140  0.0077 -0.2482
 5434W        W25714   8.331  13.157   3.695  0.0971 -0.2194 -0.2443
 5435W        W25715   8.597   3.589  11.828  0.0022  0.1254 -0.1055
 5436W        W25716   2.532  16.068   2.239  0.2375  0.2690  0.1412
 5437W        W25717  19.697   5.854  13.088  0.2848  0.1171  0.2101
 5438W        W25718  16.070  15.139   2.701  0.1734 -0.3871  0.0756
 5439W        W25719   7.589  10.843   3.925  0.1203  0.2196  0.0776
 5440W        W25720  10.690   1.490   1.970 -0.0659  0.2035 -0.3621
 5441W        W25721   0.386  17.904  10.336  0.0797 -0.0775  0.0506
 5442W        W25722  17.450  11.717  11.805  0.0881 -0.2351  0.0128
 5443W        W25723   7.454  10.343   1.889 -0.0232  0.2621  0.1824
 5444W        W25724  16.712  11.847   0.706  0.0319  0.0110  0.1144
 5445W        W25725   6.395   6.738   0.253  0.0273 -0.0404 -0.0276
 5446W        W25726  11.519  13.600  10.945  0.4821  0.1850  0.4666
 5447W        W25727  11.978   2.606   1.144 -0.4003 -0.2012  0.1626
 5448W        W25728  15.080   2.731  12.126 -0.1709  0.0124  0.3744
 5449W        W25729  12.291   1.581   2.844 -0.0233 -0.2783  0.1890
 5450W        W25730  13.378  10.421   2.798 -0.0003 -0.4457  0.0696
 5451W        W25731  11.637  17.962   3.646  0.0574  0.0245 -0.0136
 5452W        W25732   2.817  12.556  12.833 -0.0788 -0.0343  0.1990
 5453W        W25733  10.744   6.453   3.611  0.0013  0.3564  0.1463
 5454W        W25734   7.140  16.621   2.868 -0.1363 -0.1593 -0.0873
 5455W        W25735   5.600  19.218   1.475 -0.2549  0.1351 -0.0108
 5456W        W25736  19.433   7.394  13.170  0.0835  0.0736  0.1926
 5457W        W25737  17.541   0.529  13.953  0.1645 -0.1154 -0.0912
 5458W        W25738  17.688   8.157  13.646 -0.0085 -0.1004  0.0211
 5459W        W25739   5.604  15.108  10.599 -0.0579  0.0312  0.2636
 5460W        W25740   1.448  14.994  11.543 -0.1141  0.1304  0.2060
 5461W        W25741   5.266   0.562  10.483 -0.1012  0.0589  0.0273
 5462W        W25742  13.225  12.557  10.821 -0.1189  0.2872 -0.1335
 5463W        W25743   3.626   2.885  12.543  0.0620 -0.1304  0.0914
 5464W        W25744   2.614   9.585  12.812 -0.1488  0.2752  0.1940
 5465W        W25745  14.192  11.724   1.128 -0.0311  0.0025 -0.0456
 5466W        W25746   9.476   7.022  13.127 -0.0635  0.2074 -0.2594
 5467W        W25747   7.256   6.030  11.153 -0.2448  0.0736 -0.6032
 5468W        W25748  18.150   0.908  12.347  0.1208  0.0410  0.0008
 5469W        W25749  12.014   2.241  11.711 -0.3141 -0.1786  0.1422
 5470W        W25750   0.567  18.326  11.910 -0.0257 -0.3654 -0.3259
 5471W        W25751   4.007   2.832   2.998 -0.2095 -0.0672  0.1805
 5472W        W25752  17.702   9.275  10.642  0.2617  0.1071 -0.0023
 5473W        W25753  15.354  19.716  12.299  0.0881  0.0297  0.0527
 5474W        W25754  11.757   5.192   1.883 -0.2016 -0.1175 -0.0166
 5475W        W25755  19.161  18.407   1.912 -0.2079 -0.0388 -0.3062
 5476W        W25756   1.304  19.189   1.292 -0.3582 -0.1349  0.2195
 5477W        W25757  19.239   0.167   0.462  0.3236  0.0825  0.0287
 5478W        W25758  12.224  11.094  10.856 -0.3831  0.1596  0.1865
 5479W        W25759   2.276  13.678   3.419  0.1504  0.0115 -0.0303
 5480W        W25760   8.958  17.625  12.941  0.2090 -0.3469  0.0693
 5481W        W25761   6.778  11.439   1.127  0.0443 -0.1234  0.2719
 5482W        W25762  17.341  13.374  11.319  0.2510 -0.2345 -0.0335
 5483W        W25763   8.261  13.907   1.198 -0.1554  0.2117 -0.0919
 5484W        W25764  18.147  14.975   1.488 -0.1212 -0.1594 -0.0135
 5485W        W25765   0.752  11.865  13.365 -0.0748  0.1252  0.2592
 5486W        W25766   3.690  15.871  12.342 -0.1632  0.3201 -0.0711
 5487W        W25767  11.707   0.605  12.557 -0.0126 -0.1080  0.0567
 5488W        W25768   0.339  18.721  10.122 -0.0356 -0.0153 -0.0315
 5489W        W25769  14.758   9.238   3.602 -0.1444 -0.2862  0.2185
 5490W        W25770  17.266   6.319   3.983 -0.0518  0.0236 -0.1011
 5491W        W25771  14.612   8.937  11.874  0.1924  0.1104  0.2239
 5492W        W25772   1.901   8.520   0.041  0.0598  0.2163 -0.2375
 5493W        W25773  12.350  18.491   2.267 -0.0545  0.1555 -0.1104
 5494W        W25774  16.640   2.519  12.439  0.0341  0.0095  0.0261
 5495W        W25775   3.807  17.642   3.866  0.1319 -0.0665 -0.0106
 5496W        W25776   1.529   2.111  13.051  0.0443 -0.2290 -0.1641
 5497W        W25777   9.464  19.491   0.661  0.1600 -0.2471 -0.0248
 5498W        W25778  14.899  18.408  11.166 -0.1306  0.3088 -0.2934
 5499W        W25779   4.589  12.334   2.741  0.1165  0.0747  0.1529
 5500W        W25780   5.861  15.963  12.898  0.1424  0.1656 -0.2767
 5501W        W25781  15.486  13.249  12.410 -0.1430  0.0163 -0.0814
 5502W        W25782   1.228   9.402   4.607 -0.3211  0.3284 -0.0778
 5503W        W25783   3.906  11.706  12.341  0.0562 -0.1189  0.0410
 5504W        W25784   9.526   8.225   2.609 -0.3690 -0.0600 -0.0247
 5505W        W25785   5.578  13.786  13.857 -0.0601 -0.1552  0.0756
 5506W        W25786   1.231   7.329  13.979 -0.0295 -0.0155  0.0250
 5507W        W25787  10.974  19.386   0.173 -0.2757 -0.1075 -0.0630
 5508W        W25788  12.796   2.121  13.582 -0.0934  0.4726  0.1125
 5509W        W25789   7.678  11.488   4.176 -0.0970  0.2108 -0.0330
 5510W        W25790  12.658  16.127   4.376  0.1867  0.0714 -0.1588
 5511W        W25791   4.708  12.464  11.188 -0.2302  0.2559 -0.0183
 5512W        W25792   7.128   8.353   2.864 -0.1332 -0.0186 -0.3550
 5513W        W25793  16.200   1.816  13.244  0.0634  0.0300  0.1080
 5514W        W25794   9.228  13.601   3.946  0.0394 -0.0210  0.1707
 5515W        W25795   6.885  18.268  12.226  0.0621 -0.0152  0.1225
 5516W        W25796   4.144  13.411  13.921 -0.2746 -0.1921  0.2930
 5517W        W25797  12.603  15.091  13.739 -0.0328 -0.0615  0.1193
 5518W        W25798   7.858  10.557   1.666  0.0423 -0.1300  0.0403
 5519W        W25799   4.195   7.674   2.708 -0.1802  0.0615 -0.0039
 5520W        W25800   1.924  14.887   9.664 -0.0828  0.0550 -0.1128
 5521W        W25801  15.228  10.173   2.148  0.1393  0.3870  0.1876
 5522W        W25802  12.780   8.428   3.340 -0.1629  0.2083 -0.4366
 5523W        W25803   8.042  11.947   2.144  0.0343  0.1366 -0.3539
 5524W        W25804   0.230   3.976   1.699 -0.1709 -0.0225  0.3808
 5525W        W25805   0.776  13.449  12.627  0.1632 -0.2179  0.4130
 5526W        W25806   4.089   5.306  13.955  0.0870  0.2789 -0.2041
 5527W        W25807   7.990  12.153   1.049 -0.0143 -0.2736  0.6989
 5528W        W25808   4.788   5.369  11.851  0.1232  0.3422  0.2052
 5529W        W25809  11.179  12.599   1.130 -0.3489  0.2266  0.2961
 5530W        W25810   7.742  14.427   3.507 -0.0958  0.0139  0.1154
 5531W        W25811   1.401   2.004  12.473  0.0124 -0.0105  0.2455
 5532W        W25812  15.100   6.296   2.193 -0.3996  0.0830  0.0138
 5533W        W25813  17.960  11.393  11.337 -0.0619  0.0203 -0.0095
 5534W        W25814   4.598  17.896  13.819  0.0925 -0.1412 -0.3537
 5535W        W25815  11.010  15.405   1.055 -0.0869 -0.1743  0.4919
 5536W        W25816   9.163   6.256  12.920  0.0018 -0.1153 -0.1596
 5537W        W25817  16.537   8.254  12.607 -0.1936 -0.0379 -0.5344
 5538W        W25818  16.740   4.461  12.191 -0.0592 -0.1170 -0.3600
 5539W        W25819   9.192  18.840   2.806  0.1343 -0.1186 -0.1434
 5540W        W25820  11.477  18.944   2.589 -0.1395  0.2423 -0.1235
 5541W        W25821  10.105   7.978   3.761  0.2470  0.1204 -0.0345
 5542W        W25822   8.039  19.416  10.737  0.1051  0.1480  0.0879
 5543W        W25823  19.592   4.114   3.090  0.0634  0.2569  0.2771
 5544W        W25824   2.863  13.788   1.720  0.0635  0.1564  0.1860
 5545W        W25825   6.987   8.084  11.797 -0.0846 -0.5419 -0.1500
 5546W        W25826  15.444  10.995   4.204  0.1088  0.1609 -0.3509
 5547W        W25827  11.201  14.478  13.971  0.1552 -0.5002  0.0515
 5548W        W25828  13.281   5.217  13.220  0.1093  0.0376  0.0170
 5549W        W25829  11.201  10.431   3.823 -0.0272  0.3303 -0.0174
 5550W        W25830  13.849  10.330  12.375  0.2214  0.0323  0.0119
 5551W        W25831  18.904   1.253   0.922 -0.0551  0.0838  0.2768
 5552W        W25832  14.064   7.973   2.847  0.0880  0.1066 -0.0344
 5553W        W25833  12.941   9.239   2.174 -0.0063 -0.0410  0.0648
 5554W        W25834  15.822   2.555  10.740 -0.2905  0.0116 -0.2188
 5555W        W25835  19.176  13.651   1.915  0.4319  0.3872  0.1590
 5556W        W25836   1.696  10.586   1.571 -0.0585  0.0795  0.0786
 5557W        W25837  15.250   3.504   3.541 -0.2538 -0.2529 -0.0178
 5558W        W25838  10.985  18.810  12.415 -0.2075 -0.2157 -0.0262
 5559W        W25839   5.193  10.800   1.197  0.0331  0.5161  0.0772
 5560W        W25840  18.930  12.616  10.997  0.0979  0.3885  0.1637
 5561W        W25841  11.641  19.319   3.351  0.0786  0.4726  0.2682
 5562W        W25842  15.564   7.197  11.082  0.2748 -0.0108  0.0730
 5563W        W25843  13.533  14.560  11.874 -0.2477 -0.2265 -0.0351
 5564W        W25844  18.284  11.939  11.152 -0.1907  0.4678 -0.0494
 5565W        W25845  17.712   0.864  11.573  0.0265  0.2329  0.2371
 5566W        W25846  14.059   8.281  14.018  0.0263 -0.2023 -0.0068
 5567W        W25847  10.210  19.312  10.863  0.1751 -0.1841  0.0904
 5568W        W25848   2.295   2.027  12.912 -0.1831 -0.0580  0.2454
 5569W        W25849   8.821   1.039   3.817  0.0229 -0.2380 -0.1865
 5570W        W25850   0.115  15.642  12.246 -0.1082  0.1164  0.2827
 5571W        W25851  10.534   8.673   4.077 -0.1763  0.2184 -0.0186
 5572W        W25852  16.833  12.768   3.417 -0.2544  0.2125  0.1692
 5573W        W25853  12.756  14.032  10.385 -0.0302 -0.1016  0.1330
 5574W        W25854   7.433  12.694   2.077  0.2175 -0.2200 -0.0812
 5575W        W25855  12.307  13.272   2.209 -0.2055 -0.0659  0.0844
 5576W        W25856   8.650   2.421   2.519 -0.0091 -0.0497  0.0788
 5577W        W25857   0.678   0.021  12.805  0.1575  0.2528  0.0590
 5578W        W25858   1.348   8.811   0.885 -0.1291  0.0304  0.2023
 5579W        W25859  17.263  18.420   2.123  0.0490 -0.0785 -0.2742
 5580W        W25860  15.823  14.450   0.497 -0.1821  0.1726 -0.1800
 5581W        W25861   9.888  16.555   0.618  0.3336  0.0328 -0.0139
 5582W        W25862  10.074   3.080  12.054 -0.4569  0.0901  0.0627
 5583W        W25863   3.418  10.254   2.534  0.1589  0.1832 -0.0733
 5584W        W25864   9.653   1.126  13.367  0.1210  0.0928  0.1866
 5585W        W25865  18.796   2.273   1.085 -0.0409  0.0260 -0.1675
 5586W        W25866  12.524   9.469   2.370 -0.1414 -0.1228 -0.0788
 5587W        W25867   7.074   7.240   3.245  0.0464 -0.1388  0.0357
 5588W        W25868   4.157  10.263   3.135  0.1582 -0.0243 -0.6029
 5589W        W25869  10.886   2.489   2.876  0.0667 -0.1251 -0.1383
 5590W        W25870   1.540   2.092   2.002 -0.2996  0.0033  0.2404
 5591W        W25871   7.966   7.459  10.721 -0.1110  0.2234 -0.1527
 5592W        W25872   3.763   5.025   2.621 -0.0727 -0.0735 -0.2496
 5593W        W25873  19.222   4.361  12.790 -0.0747  0.0073 -0.4114
 5594W        W25874   3.469   0.849   0.497  0.1230 -0.1180 -0.0802
 5595W        W25875  15.235   7.471  13.371  0.1310 -0.2549 -0.4279
 5596W        W25876   9.407  18.310  13.207  0.0461  0.1751  0.3698
 5597W        W25877  13.753   3.265  12.778 -0.0526 -0.2913  0.0259
 5598W        W25878   3.200   0.935  12.510 -0.0123 -0.4185  0.0278
 5599W        W25879  11.628   9.988  12.823 -0.1447  0.0990 -0.0924
 5600W        W25880  10.109  13.550   0.655  0.1797 -0.1107  0.4970
 5601W        W25881   5.778  17.304   5.187 -0.0779  0.1633  0.0419
 5602W        W25882  13.247  14.829  10.831  0.2797 -0.3320  0.2101
 5603W        W25883  17.080   6.770   0.684  0.2674  0.0815 -0.1371
 5604W        W25884   3.550  14.617  13.027  0.1681  0.1583 -0.0519
 5605W        W25885   0.084  16.304   3.659 -0.1533  0.2870  0.0976
 5606W        W25886  11.926  19.244  13.614 -0.1977  0.0358 -0.1020
 5607W        W25887  18.928   6.302  14.046  0.0178 -0.4108  0.2525
 5608W        W25888   5.110  18.129  10.056 -0.0847 -0.1970  0.1017
 5609W        W25889  15.751   8.386  12.313  0.0701  0.1187 -0.1422
 5610W        W25890  15.928  16.632  11.335 -0.0383 -0.2746 -0.2266
 5611W        W25891   0.918   9.098   2.266 -0.0990 -0.4181  0.0345
 5612W        W25892   1.621   1.845  14.034 -0.0093  0.4181 -0.2152
 5613W        W25893  19.213  16.761   3.140  0.0968 -0.4427  0.0542
 5614W        W25894   2.266   4.398  13.144 -0.0507 -0.0526  0.0221
 5615W        W25895  15.278   9.221  11.442  0.0632 -0.1182 -0.0651
 5616W        W25896   5.895   1.371   0.749 -0.3124 -0.3821 -0.1958
 5617W        W25897  15.467  15.531  12.903 -0.0011  0.2605 -0.0776
 5618W        W25898   4.359   0.336   0.387  0.0216 -0.1180  0.0514
 5619W        W25899   7.223   4.823  11.583  0.0290 -0.1011 -0.1218
 5620W        W25900   7.588   3.956  11.399  0.0149  0.0040 -0.2148
 5621W        W25901   2.321  14.458  12.276  0.0640 -0.1221 -0.0768
 5622W        W25902   3.059  15.939  11.037 -0.0252  0.0571  0.1062
 5623W        W25903   3.970  19.725  11.925 -0.1174 -0.4485 -0.2711
 5624W        W25904  14.939   6.912   3.813  0.0915  0.1756 -0.0326
 5625W        W25905  11.820   7.314   2.122  0.0765 -0.0420 -0.1839
 5626W        W25906  11.410  14.876   5.122  0.0830 -0.1243 -0.0699
 5627W        W25907   8.432  16.601   1.480  0.1456  0.0564 -0.1419
 5628W        W25908   7.940  17.225  11.634  0.0911 -0.3478  0.1080
 5629W        W25909   6.815  15.115  12.643 -0.0131  0.2373 -0.0007
 5630W        W25910   2.164   6.721  13.631  0.0478 -0.1853  0.3463
 5631W        W25911  19.134   3.694   0.762  0.0417 -0.2186  0.2042
 5632W        W25912   9.190  15.361   3.792  0.0267 -0.0569  0.0758
 5633W        W25913   4.945  12.746   3.440 -0.0073 -0.1280  0.0603
 5634W        W25914   2.275  10.463   2.967 -0.2917  0.1592  0.0152
 5635W        W25915   0.087  16.376  10.537 -0.0142 -0.1270  0.2693
 5636W        W25916  13.977  10.253  13.655  0.0368  0.4601  0.0389
 5637W        W25917  13.424  17.057   2.781 -0.2919  0.1258  0.0294
 5638W        W25918   8.277   9.250   2.422 -0.1508  0.1142 -0.1851
 5639W        W25919   3.483   1.043   2.665 -0.0749  0.1078 -0.2827
 5640W        W25920   4.921   5.312   1.995  0.1500 -0.0415 -0.1361
 5641W        W25921  16.989   9.763  13.693 -0.1009 -0.0620 -0.0269
 5642W        W25922   9.444  13.755   4.375 -0.3043  0.0068 -0.0948
 5643W        W25923   1.157   9.650   1.662  0.1220  0.1109 -0.0945
 5644W        W25924  11.850  14.478   2.370 -0.0029  0.2504 -0.1649
 5645W        W25925  10.291   7.609   3.067  0.1068 -0.2314  0.0613
 5646W        W25926  19.046  16.223   3.658 -0.3799  0.2903 -0.3083
 5647W        W25927  14.872   3.750   3.280 -0.3373 -0.1649 -0.0668
 5648W        W25928  19.553   8.292   0.533 -0.0252 -0.3908  0.0844
 5649W        W25929  11.440   5.951   1.042  0.1382  0.0227  0.0991
 5650W        W25930   0.279  15.418   9.041 -0.0933 -0.2051  0.0648
 5651W        W25931   7.608  12.907   1.335  0.2008 -0.1266 -0.0377
 5652W        W25932  14.713   5.251   1.200  0.0091  0.2393 -0.0252
 5653W        W25933  13.419  12.589  13.124 -0.1071 -0.0497 -0.2138
 5654W        W25934   6.307   4.832   0.612 -0.4789 -0.1428  0.3265
 5655W        W25935   0.159  18.542  13.010  0.0638 -0.2468  0.0521
 5656W        W25936   8.023   3.729  10.566 -0.2674  0.1586 -0.0967
 5657W        W25937  11.957  15.043   0.027 -0.2298 -0.1184  0.2379
 5658W        W25938   8.008   2.757  13.261  0.1491 -0.2897 -0.2929
 5659W        W25939  10.514  12.180  11.637  0.1821  0.2099 -0.0075
 5660W        W25940  18.100  18.448   9.675 -0.2968 -0.4022 -0.0148
 5661W        W25941  11.781  18.183   2.044  0.2534 -0.0679 -0.0371
 5662W        W25942   3.016  14.657   0.208 -0.0561  0.2641 -0.3524
 5663W        W25943  14.828   4.977  12.356  0.2236  0.2476 -0.1520
 5664W        W25944   1.716  10.829  14.075  0.4447  0.3191 -0.3023
 5665W        W25945   8.274  18.051   2.412  0.1491 -0.0609  0.2704
 5666W        W25946  10.296   2.937  10.532 -0.1246 -0.1621  0.3182
 5667W        W25947  14.011  19.537   3.462 -0.0918  0.0020 -0.0830
 5668W        W25948  10.325   5.032   3.345 -0.0817 -0.2293  0.0924
 5669W        W25949   8.904   6.132   0.071  0.1641  0.0654 -0.1383
 5670W        W25950  15.411  10.688  10.912  0.0847  0.1059 -0.4329
 5671W        W25951  17.986   7.306  11.074  0.0663 -0.2334  0.3082
 5672W        W25952  13.325   6.866   0.682  0.3732 -0.0197  0.1075
 5673W        W25953  13.236  12.058  10.998  0.0674 -0.0965 -0.1073
 5674W        W25954  12.630  13.295  10.830 -0.3715  0.0220  0.1228
 5675W        W25955   6.605  18.254   0.811 -0.1961 -0.0675  0.1086
 5676W        W25956   6.135   4.356  12.883 -0.2328  0.3571  0.2179
 5677W        W25957  13.844  13.633   2.271  0.0235 -0.0821  0.0300
 5678W        W25958   0.362  11.803   3.023 -0.0093  0.1616 -0.0868
 5679W        W25959  16.529  11.545  12.744  0.0692 -0.2736 -0.0344
 5680W        W25960  16.677  10.783   1.414  0.2977  0.0827  0.3009
 5681W        W25961   4.300  17.880  12.382 -0.1893 -0.1402  0.0109
 5682W        W25962  15.344  16.403  11.993 -0.1494  0.1671  0.2374
 5683W        W25963  15.510   3.465   1.131 -0.0948 -0.0829  0.1556
 5684W        W25964   6.996   7.908   2.524  0.3252  0.1162 -0.0101
 5685W        W25965  18.795   2.224  13.074 -0.1903 -0.0940  0.0540
 5686W        W25966   7.276  10.841   1.899 -0.0052  0.0675  0.0651
 5687W        W25967  17.040   1.409  12.495 -0.1207  0.3542 -0.1111
 5688W        W25968  13.057   5.604  11.910 -0.0799 -0.0501  0.2683
 5689W        W25969   4.579  16.266   3.163  0.4312  0.3805  0.0409
 5690W        W25970   9.642   5.075  10.679 -0.1027  0.1030 -0.1809
 5691W        W25971  13.968  14.518  12.097 -0.2041  0.0598  0.0560
 5692W        W25972   3.871   9.906  13.922  0.0569 -0.2113  0.3127
 5693W        W25973   1.111  10.873   2.317  0.1972  0.1593 -0.0116
 5694W        W25974   7.292   3.450  10.594 -0.3649 -0.1516  0.1052
 5695W        W25975   1.707   6.434   3.694 -0.0328  0.1392  0.1125
 5696W        W25976   7.689   2.638  13.849  0.2814  0.0163  0.0661
 5697W        W25977   8.570  11.273  12.689 -0.1366 -0.0973 -0.4655
 5698W        W25978   2.037   4.138  11.598  0.1298 -0.0019  0.2689
 5699W        W25979   9.369  11.171  12.296  0.0037 -0.0282  0.1282
 5700W        W25980  17.239  15.614   0.568 -0.0420  0.0036 -0.2712
 5701W        W25981  18.791   0.629   0.221 -0.1303 -0.1925  0.0301
 5702W        W25982   6.735   4.543  13.687 -0.0206 -0.1204 -0.1124
 5703W        W25983  17.252  11.783   0.612  0.0649  0.0009 -0.2621
 5704W        W25984   0.466   4.700   3.023 -0.0654 -0.0623  0.1430
 5705W        W25985   3.000   6.895   2.128 -0.1826 -0.1581 -0.3167
 5706W        W25986  13.525  16.099  11.655  0.1764 -0.0989 -0.2570
 5707W        W25987   7.250   3.064  11.542 -0.4694  0.2597 -0.0402
 5708W        W25988  18.531   9.848  10.046 -0.2109 -0.1447  0.1215
 5709W        W25989  10.704  13.652  11.782  0.2151 -0.0322 -0.0961
 5710W        W25990   3.572   5.878  10.972 -0.1597 -0.0558  0.0088
 5711W        W25991  18.731  16.486  11.086  0.1275 -0.0707  0.0781
 5712W        W25992   5.884   5.336   1.775  0.1045  0.1761 -0.1418
 5713W        W25993  18.406   0.980   1.074  0.0632  0.0628 -0.1420
 5714W        W25994   4.625  12.201  13.173 -0.1824  0.1432 -0.0788
 5715W        W25995   9.199  18.140  13.726 -0.1151 -0.1304 -0.2764
 5716W        W25996  17.876   1.182   4.775  0.1192  0.0296 -0.0146
 5717W        W25997  15.452   7.205   3.683  0.0998 -0.2985  0.2574
 5718W        W25998  16.889  17.715   3.364  0.1976  0.0027 -0.1882
 5719W        W25999   6.594  10.164  13.127  0.2091 -0.0095 -0.0262
 5720W        W26000  10.537  14.294   1.820 -0.1778  0.4179  0.3924
 5721W        W26001  11.058  17.130   3.111  0.0117 -0.0054 -0.4593
 5722W        W26002  10.509   2.237  12.246  0.0535  0.0600  0.1602
 5723W        W26003   2.728   0.013  10.227 -0.1075 -0.0218  0.1115
 5724W        W26004   1.443   0.107   0.541 -0.0490 -0.1772  0.1558
 5725W        W26005  19.062  13.467  11.415  0.0618 -0.0471  0.3738
 5726W        W26006   9.717  11.963   1.361  0.1112 -0.1630 -0.1131
 5727W        W26007   8.882  13.590  11.610  0.1772 -0.0338 -0.1587
 5728W        W26008  12.826  17.825   0.595 -0.2045 -0.1749 -0.0972
 5729W        W26009   4.798  10.049   2.958 -0.0503  0.0810 -0.0428
 5730W        W26010  19.380  18.358  11.957 -0.2648  0.0820  0.0452
 5731W        W26011  15.682   5.216   0.506 -0.0019 -0.2804 -0.1724
 5732W        W26012   8.995   2.759  11.148 -0.2468 -0.0093 -0.0792
 5733W        W26013   2.787   9.469   3.623  0.2007 -0.0241  0.3949
 5734W        W26014  18.949   9.063  12.042 -0.0072 -0.0819  0.2898
 5735W        W26015   1.333   3.659   0.089  0.2611 -0.0552 -0.1805
 5736W        W26016   6.693   3.022   3.576  0.2649 -0.1315  0.0855
 5737W        W26017  18.869  16.925  10.278  0.0122 -0.1359 -0.0052
 5738W        W26018   4.883   1.407  12.344  0.1345 -0.2107  0.1481
 5739W        W26019  14.491  17.154  11.289 -0.3854  0.2968 -0.0614
 5740W        W26020   4.795   0.907  10.311 -0.0256 -0.3671 -0.1087
 5741W        W26021  16.102   2.816   3.703 -0.1364  0.2883 -0.0754
 5742W        W26022   5.917  10.579   0.719 -0.1272 -0.0244 -0.0285
 5743W        W26023  12.088   9.629  10.765 -0.0061  0.1102  0.0831
 5744W        W26024  16.268   1.644   3.210 -0.1529 -0.2162  0.1272
 5745W        W26025   7.988  10.799   0.327  0.2157  0.1502 -0.0062
 5746W        W26026  13.570   5.224  10.821  0.3318  0.1564 -0.0091
 5747W        W26027  14.032  17.432   0.787  0.0706 -0.2661  0.1127
 5748W        W26028  17.625  13.077  13.565  0.5122  0.1272 -0.1452
 5749W        W26029   3.580   5.408   0.379  0.1041 -0.0857  0.1956
 5750W        W26030  19.778  11.876  11.692  0.0230  0.1256 -0.0347
 5751W        W26031   9.225  13.772   0.664 -0.1834  0.0484 -0.3057
 5752W        W26032   8.699   8.355   3.772 -0.2398  0.0739  0.1408
 5753W        W26033   7.577  12.765   3.254 -0.0465  0.2382  0.1752
 5754W        W26034  12.947   7.190  13.950  0.1236  0.1572  0.2373
 5755W        W26035   1.178   8.876  11.715 -0.0097 -0.1737  0.0378
 5756W        W26036   5.402  18.119  10.939  0.0654 -0.0078  0.2414
 5757W        W26037  14.153   5.335   2.219 -0.2044  0.3282 -0.1025
 5758W        W26038  13.937   2.385  10.170 -0.1074 -0.2977 -0.0994
 5759W        W26039   4.384  19.164   2.350  0.0118  0.2286 -0.0699
 5760W        W26040  11.616   6.689   8.852  0.1171  0.0869  0.1143
 5761W        W26041   1.055  17.487  12.000 -0.0246  0.0663 -0.0105
 5762W        W26042  14.454  16.069   0.660 -0.1280  0.1936 -0.1620
 5763W        W26043  12.725   0.401  12.396  0.0029 -0.1774  0.1700
 5764W        W26044   9.797  12.701  12.224  0.3145 -0.1449 -0.2808
 5765W        W26045  19.673   6.069   4.083 -0.0243 -0.3831  0.0668
 5766W        W26046   1.833   7.355  10.619  0.5467  0.1681 -0.2716
 5767W        W26047  17.345   9.478  11.123 -0.1754  0.1744 -0.1747
 5768W        W26048   5.294   9.753   2.293  0.4248 -0.1920  0.1533
 5769W        W26049   9.085   1.149   4.607  0.1525  0.2404 -0.0043
 5770W        W26050   9.007  18.073  11.100  0.0794  0.3784 -0.0034
 5771W        W26051   7.900   8.133   3.996  0.0338 -0.1779  0.4509
 5772W        W26052  10.848  13.102   3.034 -0.1697 -0.1493  0.2136
 5773W        W26053   9.067  15.705  11.504 -0.0453  0.1123 -0.1529
 5774W        W26054  15.997   5.169   3.117 -0.1757 -0.0755  0.1422
 5775W        W26055   8.816  18.965   3.129  0.0569 -0.0637  0.0021
 5776W        W26056   6.555  10.645   1.707 -0.1514  0.1075  0.1079
 5777W        W26057   6.682   5.378  13.234 -0.2715 -0.0423  0.3584
 5778W        W26058  19.507  15.897  10.819 -0.0379 -0.3337 -0.0222
 5779W        W26059  18.893   6.079   3.354  0.0357 -0.2026  0.0314
 5780W        W26060  12.876   7.695   3.154 -0.2598 -0.2731  0.4611
 5781W        W26061  14.635   4.093  11.230 -0.3205  0.0073 -0.1019
 5782W        W26062   8.398   3.025   1.372  0.0464  0.0943  0.0622
 5783W        W26063   0.929   7.216  12.162 -0.0237  0.0252 -0.1725
 5784W        W26064   6.837  14.233   2.243 -0.1385 -0.2932 -0.1710
 5785W        W26065  16.040  17.110   2.023  0.2691 -0.2321 -0.3867
 5786W        W26066  18.304   0.110  11.904  0.4033 -0.1708 -0.1850
 5787W        W26067   4.950   0.238   1.293 -0.3353  0.2035  0.0840
 5788W        W26068   9.159   3.800   2.536 -0.0485  0.0251 -0.1011
 5789W        W26069   2.636   7.851  10.181  0.0437  0.0481 -0.2410
 5790W        W26070  18.248  15.935   2.057  0.3894 -0.1253 -0.0226
 5791W        W26071   9.045   5.120   3.815 -0.2027  0.1230  0.3534
 5792W        W26072   7.026  15.779   0.519  0.3314 -0.2233  0.0125
 5793W        W26073   2.591  15.491  14.102 -0.0723 -0.0767  0.0051
 5794W        W26074   2.479  17.851  10.602 -0.2294  0.2867 -0.0639
 5795W        W26075   9.721   4.115  10.547 -0.0550 -0.0571  0.1761
 5796W        W26076   6.608   9.711  11.165 -0.1707 -0.1100 -0.1735
 5797W        W26077  14.778   8.772   2.686 -0.0016 -0.1784 -0.0946
 5798W        W26078  12.131   6.619  12.918 -0.0246  0.3947 -0.0704
 5799W        W26079  12.333  16.699   1.822  0.1901  0.0080 -0.0821
 5800W        W26080  15.237  18.925   1.459 -0.1229 -0.0099 -0.2843
 5801W        W26081   8.475   7.926  11.354  0.3521 -0.0460  0.0535
 5802W        W26082   6.762  13.746  11.886  0.4344 -0.1220  0.1541
 5803W        W26083   9.821   3.591   0.127  0.0642  0.1977 -0.0443
 5804W        W26084  15.990  10.252  10.758 -0.0429  0.0561  0.5548
 5805W        W26085  14.313  10.511   1.965  0.1176 -0.0088 -0.4001
 5806W        W26086  13.998   6.846  13.204 -0.0016 -0.1171 -0.0921
 5807W        W26087   1.543  17.993  10.339  0.0779  0.1121  0.0770
 5808W        W26088  17.289  16.049  12.518  0.0143 -0.2545 -0.1721
 5809W        W26089  18.081   7.913  10.265  0.0546 -0.0259  0.1286
 5810W        W26090   8.465  10.786  12.455 -0.0955 -0.0338  0.0133
 5811W        W26091   8.686  18.246   0.662 -0.1270  0.1708 -0.0657
 5812W        W26092   3.232  12.715  11.468 -0.4893  0.1126 -0.1107
 5813W        W26093  17.745   1.683   3.549 -0.1158 -0.2592 -0.0383
 5814W        W26094  14.064  10.155   0.046 -0.2172  0.1538  0.0434
 5815W        W26095  11.951  16.972   2.604 -0.0778 -0.4563  0.0767
 5816W        W26096  13.736   5.120  11.305  0.2075 -0.1518 -0.3217
 5817W        W26097   2.292  15.894  11.393 -0.3199 -0.1832  0.2731
 5818W        W26098  15.591   0.317  12.049 -0.0008  0.4065  0.1161
 5819W        W26099  15.806   5.090   2.657  0.1258 -0.1296  0.0876
 5820W        W26100  10.643  18.628   2.643 -0.0353  0.2899 -0.2555
 5821W        W26101   8.189   5.923   9.273 -0.2372  0.0124  0.1156
 5822W        W26102   0.749   1.978  13.585  0.2718 -0.1106 -0.1021
 5823W        W26103  11.010   3.149  11.967  0.1705 -0.0583 -0.1536
 5824W        W26104   0.410  15.317   2.133  0.1202 -0.3015 -0.1948
 5825W        W26105   3.355   0.722  13.481 -0.2851  0.0519  0.0080
 5826W        W26106  11.600   7.517  13.583  0.1014  0.1153 -0.1705
 5827W        W26107   2.706   6.749   2.554 -0.0896  0.1329  0.0408
 5828W        W26108   0.695  19.530   2.123  0.2684 -0.2192  0.0378
 5829W        W26109   5.767  19.095  11.757  0.1487  0.0725 -0.0062
 5830W        W26110  17.365  17.644  12.590  0.1947 -0.0108 -0.0710
 5831W        W26111   1.753  10.430   2.049  0.3449  0.0610  0.0700
 5832W        W26112   7.659   9.370   4.052 -0.3795  0.0722 -0.0190
 5833W        W26113   8.482  17.460  14.024  0.2093 -0.0724 -0.0730
 5834W        W26114   5.416  13.121   1.845  0.1051  0.0594 -0.0671
 5835W        W26115   0.204  15.145  13.395  0.0317  0.1707 -0.4663
 5836W        W26116  11.511   7.660   1.958 -0.3253 -0.1102 -0.3194
 5837W        W26117  17.967   9.227   0.823 -0.1718  0.1155 -0.3478
 5838W        W26118   5.016  17.332  11.848  0.1889 -0.0223 -0.2135
 5839W        W26119  11.926   4.435   2.283  0.1316  0.1410 -0.2798
 5840W        W26120   4.346   1.309   0.923 -0.2620 -0.1147 -0.2745
 5841W        W26121  10.110   4.314  12.762  0.1109  0.0225  0.1715
 5842W        W26122  18.182  19.292   2.951  0.2835 -0.1425  0.1788
 5843W        W26123   1.456  18.972  13.285 -0.0871  0.0253 -0.0454
 5844W        W26124  14.755   9.614   0.806  0.3603 -0.1338  0.0127
 5845W        W26125   6.616  16.648  10.629  0.1051 -0.2245 -0.1679
 5846W        W26126  16.162   5.672  13.998 -0.2435  0.3352 -0.2097
 5847W        W26127  13.729   4.082   1.720  0.0850 -0.0541 -0.0326
 5848W        W26128   1.412   3.497  10.674  0.1977 -0.0909 -0.2305
 5849W        W26129  11.393  18.662  11.128  0.1807 -0.3467 -0.0293
 5850W        W26130  11.969  10.519   4.101 -0.2526  0.1580 -0.0494
 5851W        W26131   0.813  15.693  10.902  0.0113 -0.2577 -0.2841
 5852W        W26132   0.962   3.479  13.893 -0.2434  0.2410  0.0731
 5853W        W26133   2.747  17.954   4.901  0.3124 -0.1327  0.3272
 5854W        W26134  16.486  17.881   3.091 -0.2532 -0.1432 -0.0118
 5855W        W26135   5.612   4.782   9.745  0.2639  0.0339  0.1914
 5856W        W26136   1.442  17.321   2.146 -0.1015 -0.0183  0.1642
 5857W        W26137  16.257  18.065   1.910 -0.0481 -0.0304  0.1832
 5858W        W26138   8.528   2.577   1.540 -0.2396 -0.0510  0.2327
 5859W        W26139   4.326   3.758  11.333  0.0035 -0.0922  0.2131
 5860W        W26140   9.646   6.718  11.130  0.1321 -0.1589  0.0375
 5861W        W26141   6.877  19.775  12.123 -0.1756 -0.0938 -0.1418
 5862W        W26142   1.322   1.607   3.566 -0.0870  0.1118  0.0837
 5863W        W26143  14.235  16.281   1.857 -0.1729  0.0131  0.0344
 5864W        W26144  18.560   8.378  10.945 -0.2886 -0.0431  0.2084
 5865W        W26145  12.576   3.770  14.026  0.2480 -0.1254 -0.2442
 5866W        W26146   3.225   7.238   3.560 -0.0625  0.2315 -0.1810
 5867W        W26147  18.143   5.968   3.247 -0.0485 -0.1535  0.0850
 5868W        W26148   2.122  13.170   1.544  0.1780 -0.1323  0.0036
 5869W        W26149   0.539   3.669   2.644  0.1361  0.2691 -0.4418
 5870W        W26150   1.151   4.282  12.113 -0.0861  0.0870 -0.2399
 5871W        W26151   7.281   4.286   2.596  0.1262  0.3722  0.0436
 5872W        W26152  10.064   6.882  12.114 -0.0025  0.2429  0.2146
 5873W        W26153  11.280  13.252  11.187 -0.1190  0.1397  0.1381
 5874W        W26154  13.781  18.456  12.595  0.0871  0.2823 -0.1953
 5875W        W26155   1.566   8.709   1.339  0.2414 -0.4645 -0.3391
 5876W        W26156  15.514  11.463  11.828  0.0300 -0.0566  0.1317
 5877W        W26157  16.164  10.437   3.754 -0.0570  0.0118  0.3015
 5878W        W26158   4.554   9.650   1.334 -0.0874  0.0248  0.1223
 5879W        W26159   9.842   0.119  10.046 -0.2675  0.0650  0.0719
 5880W        W26160   0.604   3.125   4.079 -0.1499 -0.0047  0.2429
 5881W        W26161  19.108  12.011   4.155 -0.3007  0.2274 -0.2522
 5882W        W26162  18.145   9.304   2.142  0.4344  0.2724 -0.2789
 5883W        W26163   9.696   3.553  12.418 -0.0070 -0.1255 -0.2755
 5884W        W26164  12.715  10.443  13.101  0.0729  0.1453 -0.0558
 5885W        W26165  18.119   5.045  12.576  0.2113  0.2049 -0.0489
 5886W        W26166  18.362  12.930   0.238  0.0149  0.1264 -0.0256
 5887W        W26167  15.258   5.163   8.885  0.0533 -0.2263  0.1530
 5888W        W26168  11.432  15.058   2.516 -0.0645 -0.4165 -0.2281
 5889W        W26169  16.086  12.502  11.901 -0.1366  0.1092  0.1422
 5890W        W26170  13.110  18.251  13.860 -0.1380  0.2721  0.2902
 5891W        W26171   6.972  17.255   4.059  0.2729  0.0602 -0.1754
 5892W        W26172   7.581   7.666   3.403 -0.1729  0.0020  0.1366
 5893W        W26173   3.827  17.443  12.981  0.0182  0.3898 -0.1726
 5894W        W26174  14.164  15.027  12.000  0.3183  0.2272 -0.0441
 5895W        W26175  14.534  13.089   3.438  0.0313  0.0810 -0.0124
 5896W        W26176   9.560   2.397  10.301 -0.1034  0.3382 -0.0022
 5897W        W26177  15.690   7.951  10.472 -0.2258  0.1259 -0.1718
 5898W        W26178   8.990  11.554  12.876  0.7807 -0.0066 -0.0302
 5899W        W26179   2.323  16.469  11.002 -0.0687 -0.0314  0.1446
 5900W        W26180   1.004   4.204  12.636 -0.1395 -0.1299  0.1314
 5901W        W26181  15.901   8.311  13.166  0.0168 -0.0640 -0.1660
 5902W        W26182   6.781  18.837   3.134 -0.2809  0.1810  0.2721
 5903W        W26183  19.308   0.117  11.868 -0.0143  0.1135 -0.1120
 5904W        W26184  15.302   9.640   3.006  0.1912  0.1848 -0.3157
 5905W        W26185   3.377  13.142   0.532 -0.1037 -0.0543  0.1769
 5906W        W26186  19.543   8.338  13.497  0.1008 -0.2646 -0.0282
 5907W        W26187   9.772   5.513  13.570 -0.0580 -0.1414 -0.0908
 5908W        W26188   1.503  17.912   1.614  0.1574  0.1059  0.1471
 5909W        W26189   3.371   0.569  11.568 -0.0593  0.2162 -0.0079
 5910W        W26190   2.638  16.372   2.691  0.2084 -0.2378  0.2949
 5911W        W26191  18.154  18.103   1.896  0.1127 -0.0511  0.1367
 5912W        W26192  17.465  14.926  12.730 -0.2591  0.0331  0.0274
 5913W        W26193  16.006  16.566   2.906  0.1591 -0.1135  0.2615
 5914W        W26194  11.278   1.677   2.104 -0.3685  0.0132 -0.1624
 5915W        W26195   9.076  19.702  11.850 -0.0115  0.0485 -0.2202
 5916W        W26196   2.239  14.926  12.418  0.0591  0.0482  0.1980
 5917W        W26197  15.963  14.198  13.129 -0.1283 -0.0304  0.2359
 5918W        W26198  11.953   3.003  11.750 -0.2428 -0.1168 -0.0681
 5919W        W26199  12.625   0.913  12.360 -0.0190 -0.2140  0.0613
 5920W        W26200   9.775  10.092  11.654 -0.2692 -0.1051 -0.3912
 5921W        W26201   2.837  19.704  11.245 -0.3141  0.0268 -0.0721
 5922W        W26202  15.215   1.503  10.114  0.0616  0.0890 -0.3452
 5923W        W26203  14.003   8.709   1.502 -0.2689 -0.1278 -0.0034
 5924W        W26204   7.419  16.553  10.666  0.1984 -0.2225 -0.2185
 5925W        W26205   2.926  13.294   1.072 -0.3791  0.0228  0.1201
 5926W        W26206  15.502   5.160  13.461  0.0685 -0.2120 -0.2555
 5927W        W26207  15.078  12.672   3.966 -0.0007  0.0168 -0.1532
 5928W        W26208   7.943   6.070  11.596  0.0270  0.0453  0.2446
 5929W        W26209   4.652  10.603  12.305  0.2326 -0.2171 -0.1563
 5930W        W26210   3.552   7.805   2.413  0.1481 -0.1160  0.2277
 5931W        W26211   5.931   2.079   3.524  0.0203  0.0308  0.1210
 5932W        W26212   9.635   7.339   2.855 -0.0400 -0.2030 -0.1595
 5933W        W26213   7.080  15.225   1.429 -0.0120  0.0779 -0.4777
 5934W        W26214  14.663   0.171   1.178 -0.4048  0.0291 -0.1222
 5935W        W26215   9.400   5.755   3.097  0.0288  0.1063  0.0049
 5936W        W26216   8.425  14.495   0.054 -0.0046  0.0422 -0.0212
 5937W        W26217   7.157  17.411  12.298  0.2532 -0.1606 -0.1739
 5938W        W26218  13.298   2.417   1.067  0.2070  0.1885  0.2779
 5939W        W26219   5.257   4.075  12.903  0.0792  0.0712  0.1768
 5940W        W26220  17.220  17.601  11.026  0.2538 -0.0121  0.1065
 5941W        W26221   2.638  10.331   2.551  0.0834 -0.0084 -0.0163
 5942W        W26222   6.657  16.726   1.622 -0.0550 -0.0450 -0.2194
 5943W        W26223   0.532  18.814   0.267 -0.0698 -0.1681  0.1180
 5944W        W26224  13.172   4.293   1.774  0.3870 -0.0076  0.0057
 5945W        W26225   5.728  10.055   3.053 -0.0883  0.1676  0.0045
 5946W        W26226  19.310   3.648   1.206  0.0300  0.1244  0.0712
 5947W        W26227   8.819   4.679   3.687 -0.3801  0.0226  0.0276
 5948W        W26228  14.369  11.055  10.640 -0.1028  0.3616  0.0939
 5949W        W26229  16.311   9.217  10.902  0.0350 -0.2220  0.2469
 5950W        W26230   4.538   8.540   1.845  0.2662 -0.2136  0.1200
 5951W        W26231  10.224   2.732  12.471  0.1333 -0.1105 -0.0915
 5952W        W26232   8.097   0.850   2.747  0.1401  0.4231  0.0925
 5953W        W26233  19.226  18.816   2.258 -0.1011  0.1375  0.0168
 5954W        W26234  14.833  19.627  11.938 -0.0655 -0.0371  0.2487
 5955W        W26235   1.688  12.195   1.844 -0.0361 -0.3334 -0.2596
 5956W        W26236   1.689   7.331   3.551  0.0396  0.0229  0.2992
 5957W        W26237   8.201  11.696   2.795 -0.0922 -0.0183  0.1921
 5958W        W26238  17.827  15.294   2.715  0.2040  0.0840  0.0373
 5959W        W26239  18.872   6.176  13.037 -0.0124 -0.3576  0.0184
 5960W        W26240  13.421  10.302  11.966  0.0825  0.2079 -0.0171
 5961W        W26241   5.195  12.264  12.972 -0.2179 -0.0251  0.2409
 5962W        W26242  16.528   2.997  11.965  0.1453  0.2168  0.0384
 5963W        W26243   1.277  14.982  12.208  0.0998  0.2133 -0.0681
 5964W        W26244   2.466   0.724   9.993 -0.0699 -0.0154 -0.0695
 5965W        W26245   9.242   6.628   4.113  0.1016  0.1088  0.0321
 5966W        W26246   4.675   9.704  11.226  0.4516 -0.0424 -0.2833
 5967W        W26247   1.007  11.190  12.193 -0.1797 -0.0679 -0.0525
 5968W        W26248   2.182   6.150  13.701 -0.3038  0.2168  0.0366
 5969W        W26249  14.588  18.540  10.295 -0.1794 -0.4037  0.0156
 5970W        W26250  10.379   1.405  11.991 -0.3478 -0.0012  0.0804
 5971W        W26251  10.733   0.627   3.708 -0.0714  0.1159 -0.2982
 5972W        W26252   9.856   1.148   2.340  0.0917 -0.1196  0.2021
 5973W        W26253   1.672  15.689   1.101 -0.1764 -0.3880 -0.2970
 5974W        W26254   8.208  18.824  13.250  0.1355 -0.1134 -0.0024
 5975W        W26255   8.236   1.719  11.928 -0.0480 -0.1933 -0.4160
 5976W        W26256  17.418  18.456   3.283 -0.1356  0.1885  0.3274
 5977W        W26257   8.716  14.550  13.174 -0.1234  0.0769  0.0769
 5978W        W26258  12.741  15.727  12.439 -0.1061 -0.0203 -0.3266
 5979W        W26259  18.590  17.462   0.779  0.1756 -0.1044 -0.2362
 5980W        W26260   6.350  16.303  11.557  0.3190 -0.1205 -0.1150
 5981W        W26261  15.258   4.850   2.137 -0.2202  0.0527  0.0146
 5982W        W26262   5.337   9.479  12.173  0.2330  0.2830  0.4047
 5983W        W26263  15.607   7.178   2.686 -0.2023 -0.0209 -0.3113
 5984W        W26264   1.113  11.350   2.637  0.5097 -0.0585 -0.4033
 5985W        W26265   2.795  15.763  12.030 -0.1566  0.1683  0.0321
 5986W        W26266  19.040   5.364   2.273  0.2724  0.1720 -0.5406
 5987W        W26267  15.319  16.894   2.341  0.0937  0.0082  0.0916
 5988W        W26268  17.442   1.981   3.832 -0.1484 -0.1213  0.2045
 5989W        W26269  10.282   9.103  10.003  0.0221 -0.5049 -0.0932
 5990W        W26270  11.843  10.160  13.753  0.1337  0.0129 -0.3262
 5991W        W26271   7.548   4.659   3.169 -0.2584  0.0285 -0.0608
 5992W        W26272  17.656   3.435   2.017  0.3825  0.1723 -0.2418
 5993W        W26273   6.437  16.774   3.518 -0.2414 -0.0725 -0.2070
 5994W        W26274   7.204   4.101  12.693  0.2560 -0.1504 -0.1072
 5995W        W26275  15.464  17.173  12.539  0.2106  0.0250  0.1328
 5996W        W26276   7.099  18.418  13.838  0.0313  0.0489 -0.0121
 5997W        W26277  16.979   2.803  11.820 -0.1725  0.3087 -0.0320
 5998W        W26278  14.474   2.757  10.061  0.2865 -0.1548 -0.1331
 5999W        W26279   5.813   1.801  12.660  0.2876 -0.0692  0.1302
 6000W        W26280   4.128   3.441  11.712 -0.1717 -0.0161 -0.1221
 6001W        W26281   7.202   6.090   0.914  0.0138  0.1749  0.0749
 6002W        W26282  18.901   1.035  10.275  0.1936 -0.3601 -0.0474
 6003W        W26283  18.324  17.184   1.730 -0.0328  0.4103 -0.2081
 6004W        W26284  11.884   1.592  12.495  0.3644 -0.4823  0.2397
 6005W        W26285  12.323  14.590  11.414 -0.0357 -0.0178  0.0430
 6006W        W26286   3.870   3.795   2.003 -0.1815 -0.1775  0.0579
 6007W        W26287   1.855  16.028   3.108 -0.0288 -0.2218  0.2017
 6008W        W26288  17.328  11.372  12.150 -0.2526  0.0282 -0.1283
 6009W        W26289  14.114   0.950   2.944 -0.2059 -0.0702 -0.1407
 6010W        W26290   4.450   6.714   3.258 -0.1740  0.1420 -0.0217
 6011W        W26291  10.236   8.969  12.771  0.1882  0.0242  0.0786
 6012W        W26292   7.421   6.512   3.053 -0.1726 -0.0792 -0.2608
 6013W        W26293  16.780   2.006  10.638  0.0224  0.0686 -0.0422
 6014W        W26294   7.687   8.292   3.574 -0.1948 -0.4970  0.1521
 6015W        W26295  14.579  18.636   3.222  0.0787  0.0359 -0.0489
 6016W        W26296   3.220   6.230   1.507 -0.1349 -0.4121 -0.0204
 6017W        W26297  14.263  16.307  11.175 -0.2562 -0.2648  0.2752
 6018W        W26298   5.056  11.871   3.195 -0.2545 -0.1826  0.4453
 6019W        W26299  11.292   4.703  13.494  0.1623  0.1155 -0.1373
 6020W        W26300  15.824   3.413   0.193 -0.1869 -0.2416 -0.1167
 6021W        W26301   1.487  11.437   5.116 -0.1642  0.1175  0.0965
 6022W        W26302   4.087   7.865   0.990  0.1917  0.1863 -0.0319
 6023W        W26303  18.209   0.510  10.032  0.0170  0.0480 -0.1793
 6024W        W26304  17.917  18.872   2.571 -0.4042 -0.1195  0.1656
 6025W        W26305   7.685  11.228   0.846 -0.0706  0.2557  0.1987
 6026W        W26306   8.132   7.087   3.622 -0.0872 -0.2447 -0.0680
 6027W        W26307   5.632  14.315   2.770  0.0354  0.3396  0.1852
 6028W        W26308  12.534  18.484  10.524  0.1471 -0.2883  0.1054
 6029W        W26309   7.017   3.935  11.177  0.0652 -0.1531 -0.4537
 6030W        W26310  11.320  17.923  11.485  0.2675  0.1477  0.1512
 6031W        W26311  12.096   1.698  10.888 -0.0722  0.1767 -0.3673
 6032W        W26312  11.419  10.495   2.416  0.3568 -0.0204 -0.1212
 6033W        W26313  19.403   5.673   4.160 -0.1285  0.0882  0.4718
 6034W        W26314  11.253  16.957  11.041 -0.3045  0.0510 -0.1480
 6035W        W26315   9.200  12.746   2.676  0.1857  0.0911 -0.0555
 6036W        W26316  17.080   1.315  10.286 -0.0677 -0.2601 -0.0882
 6037W        W26317   6.327  12.541  13.665  0.3102  0.2696 -0.0738
 6038W        W26318   9.654   5.120   0.248 -0.0549  0.2299 -0.1050
 6039W        W26319  15.653   5.576   3.240 -0.0851  0.0728 -0.1092
 6040W        W26320   4.048  17.713  11.979 -0.3986 -0.4143  0.2320
 6041W        W26321  12.782  14.186   3.775  0.0638  0.1370 -0.1146
 6042W        W26322  15.679   9.337   3.145 -0.3837 -0.1552 -0.0758
 6043W        W26323   2.179   4.037   0.571  0.1178 -0.0552  0.2192
 6044W        W26324   1.558   9.736   3.238 -0.0226 -0.0021  0.1690
 6045W        W26325  18.222  11.007  11.440  0.0428 -0.0190 -0.0219
 6046W        W26326   6.740  10.788  13.068 -0.2116 -0.3891 -0.2189
 6047W        W26327  14.775  11.687   0.898  0.0138 -0.0120  0.0320
 6048W        W26328   0.215  16.647   1.381  0.0254 -0.0280 -0.0536
 6049W        W26329   1.889   2.436   2.376  0.0664  0.3161  0.3175
 6050W        W26330   4.104  15.961   4.290 -0.1122  0.2926  0.1344
 6051W        W26331  15.770  10.076   0.525  0.3496 -0.0300  0.3941
 6052W        W26332   6.732  17.669   1.355  0.3273  0.1036 -0.3504
 6053W        W26333  11.398  17.301   3.565 -0.1064  0.1297 -0.1151
 6054W        W26334  16.848   0.835   0.580  0.0790  0.3763 -0.0322
 6055W        W26335   5.881  17.784  13.929  0.1521  0.1498 -0.2581
 6056W        W26336  13.754   0.564  13.424 -0.0127  0.2483 -0.1577
 6057W        W26337   1.251  13.569  12.591  0.1263 -0.2022 -0.3042
 6058W        W26338  17.427  15.244  11.983  0.0333  0.0752  0.0403
 6059W        W26339   9.225  10.439   4.062  0.1440 -0.0891  0.1822
 6060W        W26340  11.452   9.783  13.719 -0.2230  0.0342 -0.1580
 6061W        W26341   9.426   8.512  11.983 -0.2689 -0.2890  0.0778
 6062W        W26342   2.178  18.855  12.180 -0.2123 -0.1193 -0.0737
 6063W        W26343   4.560   7.303   4.229 -0.1578 -0.2418 -0.1110
 6064W        W26344  12.593  13.047   0.420 -0.0253  0.1231 -0.2365
 6065W        W26345  17.819   5.998   1.168  0.5657  0.2419 -0.1925
 6066W        W26346  16.558  18.897  12.739 -0.0811 -0.0636  0.1517
 6067W        W26347   6.255   7.363  13.089  0.1715  0.0169  0.2932
 6068W        W26348   2.957   0.626  10.036 -0.0654 -0.2045  0.1831
 6069W        W26349   4.384  10.763   3.343 -0.3269  0.0566  0.1038
 6070W        W26350  19.267  10.971   2.286 -0.3057 -0.1413  0.0031
 6071W        W26351  13.666   9.500  12.519 -0.0040 -0.0940  0.4327
 6072W        W26352   1.410   8.583  13.969  0.0019 -0.1246  0.2587
 6073W        W26353  18.576   2.393   2.330 -0.0176 -0.0657 -0.3024
 6074W        W26354  10.087   5.506  10.775  0.0591  0.2536  0.1136
 6075W        W26355   5.968   1.917  12.094 -0.0303 -0.1200 -0.0923
 6076W        W26356   0.848  12.145  12.325  0.0604 -0.0135 -0.0457
 6077W        W26357   7.316   8.377  13.033 -0.2134 -0.0443 -0.5615
 6078W        W26358  17.222   0.974  12.070 -0.4536 -0.2360  0.2006
 6079W        W26359   8.029   6.118   1.079  0.0583  0.0872  0.0620
 6080W        W26360  11.427   4.274  12.030 -0.0527 -0.1917  0.1826
 6081W        W26361  13.722  18.449  13.122 -0.2504 -0.0888  0.1774
 6082W        W26362  16.426  14.155   0.519  0.3213 -0.2266 -0.2536
 6083W        W26363   2.718   7.401  12.949  0.0390 -0.0218  0.2765
 6084W        W26364   1.561   4.511  10.724  0.3207 -0.2127  0.1328
 6085W        W26365  13.130   5.732   9.250 -0.2081  0.1486 -0.0303
 6086W        W26366  15.766   1.494   3.033 -0.0275  0.0554  0.0299
 6087W        W26367  12.828   9.682  10.329  0.2499  0.1054 -0.0675
 6088W        W26368  19.403   1.444  10.224  0.0719 -0.4992  0.1927
 6089W        W26369  16.608   0.547   0.202 -0.1612  0.1236  0.1413
 6090W        W26370  11.493   4.087   2.774  0.1677 -0.4417 -0.3280
 6091W        W26371  10.285   5.630  11.546 -0.0712 -0.1987 -0.1412
 6092W        W26372  17.988   8.020  12.140 -0.2549 -0.2453 -0.0444
 6093W        W26373  19.390  11.377   2.011  0.0486  0.0538 -0.1434
 6094W        W26374  12.600   0.989   1.526 -0.0813  0.0695  0.1692
 6095W        W26375  17.333   7.378  10.024 -0.0407  0.0944 -0.0171
 6096W        W26376   3.511  17.698  13.283 -0.0606  0.0376  0.0765
 6097W        W26377  11.474  13.685   0.528  0.1169 -0.2797  0.2548
 6098W        W26378  10.279   2.625  11.461 -0.0963 -0.1239 -0.0634
 6099W        W26379  10.629  14.223  12.930  0.0174 -0.0222 -0.1514
 6100W        W26380  19.683  10.611  11.082 -0.0502 -0.2205  0.1202
 6101W        W26381  10.994  18.513  13.841  0.1105  0.1586 -0.0480
 6102W        W26382  18.921  17.365  13.158  0.0641 -0.1426  0.1038
 6103W        W26383  11.631  11.198  13.542 -0.2146  0.1684 -0.0425
 6104W        W26384   3.589  19.532   0.052 -0.1158  0.0381  0.2390
 6105W        W26385  17.982   4.851   1.182  0.3151 -0.0372 -0.1103
 6106W        W26386   0.006   6.005  12.499  0.2698  0.0874  0.2882
 6107W        W26387  13.063   3.716   1.012  0.0885  0.1024 -0.1206
 6108W        W26388   4.646   2.880  11.728  0.2308  0.0928 -0.1205
 6109W        W26389   5.192   8.881   4.140  0.0309 -0.1120 -0.0970
 6110W        W26390   2.957  13.718   0.824 -0.0772 -0.1624 -0.2088
 6111W        W26391   8.391  14.951  13.319 -0.0773  0.0130 -0.0787
 6112W        W26392  18.882  11.514   4.051  0.0126 -0.1049 -0.1663
 6113W        W26393  12.072  16.532   0.252 -0.3066 -0.2153 -0.2339
 6114W        W26394   0.902  13.945   0.482  0.1058  0.1882 -0.1399
 6115W        W26395   4.428   6.755  13.176 -0.0595 -0.1346 -0.1530
 6116W        W26396   9.111   1.240   1.536  0.0379 -0.1983 -0.0040
 6117W        W26397   2.430   1.279  11.739  0.0775  0.0981 -0.2966
 6118W        W26398   8.833   3.617   0.188  0.3701 -0.2885 -0.2640
 6119W        W26399   3.981  19.285  10.274  0.1744 -0.2848 -0.5384
 6120W        W26400  14.928   4.554   1.934 -0.3635  0.0624 -0.1333
 6121W        W26401   1.839   6.975  13.311 -0.0670 -0.0720  0.3671
 6122W        W26402  11.683  16.939   1.261 -0.1322  0.0596  0.0770
 6123W        W26403  15.308   1.427   0.082  0.0865  0.0410 -0.1045
 6124W        W26404  14.069  15.519  10.102 -0.0980  0.3529  0.1842
 6125W        W26405  18.494   6.993   3.459  0.1773 -0.0993 -0.1995
 6126W        W26406   5.375   4.858  13.209 -0.0426  0.1238 -0.0302
 6127W        W26407  10.410   8.392   1.430 -0.0674 -0.0217  0.2363
 6128W        W26408  17.003  19.003   2.799  0.3185  0.0606 -0.0058
 6129W        W26409   7.838  10.681   2.664 -0.1839 -0.1194 -0.1251
 6130W        W26410  17.175  17.110  11.160  0.1282  0.0348  0.3544
 6131W        W26411   3.987  18.670   3.016  0.1558 -0.0780  0.3775
 6132W        W26412   1.039   8.636   3.675  0.2079  0.1505  0.0001
 6133W        W26413   2.165   4.227  14.099 -0.2398  0.1177 -0.0595
 6134W        W26414   7.531  16.597   3.395  0.2035  0.0905 -0.0954
 6135W        W26415   8.415   1.674   1.146 -0.2483  0.1846  0.2255
 6136W        W26416  12.125  11.737  11.922  0.1579  0.3110 -0.1039
 6137W        W26417   6.476  12.279  12.773 -0.0302  0.2255 -0.0091
 6138W        W26418  16.487   6.477   1.184 -0.2158 -0.2391 -0.0901
 6139W        W26419  14.973  15.212   3.669  0.6469 -0.1612 -0.2169
 6140W        W26420  15.624   9.412   2.504  0.1333  0.0149  0.6565
 6141W        W26421   2.219  17.326   0.375 -0.0820  0.1380 -0.0551
 6142W        W26422   3.757  18.807  13.370  0.2317 -0.0924  0.0748
 6143W        W26423   2.966   1.371   2.605  0.0741  0.1549  0.2234
 6144W        W26424   9.685   6.614   0.205 -0.3597  0.1611  0.1995
 6145W        W26425   4.100  18.775   2.123  0.2502 -0.2092 -0.2679
 6146W        W26426  19.429   6.924  11.542  0.1769 -0.2187  0.2198
 6147W        W26427   1.686   8.993   0.038  0.0260 -0.0446  0.0955
 6148W        W26428  16.866   7.873   3.231 -0.1494 -0.0787  0.2323
 6149W        W26429  14.793  17.027  10.110  0.5874  0.2715  0.1393
 6150W        W26430  10.494   8.407   0.885 -0.1486  0.0732 -0.2321
 6151W        W26431   8.908  13.401   0.936 -0.0774  0.2755  0.1051
 6152W        W26432   0.880  11.288   0.440 -0.3313 -0.4404 -0.0287
 6153W        W26433   7.361  16.231   0.705  0.3173 -0.3499  0.1406
 6154W        W26434  19.059   9.010   3.077 -0.1468 -0.0068 -0.1315
 6155W        W26435   9.030  12.163  12.560 -0.1585  0.0531  0.4522
 6156W        W26436  19.738  14.411   8.953  0.0745  0.0804  0.1796
 6157W        W26437  14.226   3.037   3.732  0.0976  0.1206  0.1304
 6158W        W26438   8.147   7.152   2.214  0.0998 -0.1535 -0.0314
 6159W        W26439   4.278  19.673   3.295 -0.1831 -0.2222 -0.0311
 6160W        W26440   3.015   3.065  12.059 -0.1709  0.1210 -0.2974
 6161W        W26441  19.172   4.161  11.038 -0.0524 -0.2228  0.0651
 6162W        W26442  11.729  12.871  10.488  0.3498 -0.0803  0.1407
 6163W        W26443   7.689   8.049   4.510 -0.3184  0.1421 -0.2630
 6164W        W26444   3.081  15.326   2.961 -0.0453 -0.0805  0.2515
 6165W        W26445   1.012   6.811   1.442 -0.1541  0.2308 -0.0365
 6166W        W26446  18.100  10.479  11.252  0.0733  0.2253 -0.0269
 6167W        W26447   1.123   8.516   4.584 -0.0059 -0.0868 -0.1770
 6168W        W26448  16.513   0.096   3.181 -0.1776  0.2921 -0.1692
 6169W        W26449   5.209  16.640  12.688  0.3274 -0.2849  0.0417
 6170W        W26450   0.707  11.771   0.634  0.0738 -0.0075  0.2607
 6171W        W26451  14.321  15.301  13.502  0.2933 -0.0184  0.2643
 6172W        W26452  18.357   4.182   0.547  0.3464 -0.1015  0.2309
 6173W        W26453   2.134  15.559  10.743 -0.1788  0.0102  0.1150
 6174W        W26454   4.326  13.657   1.499  0.0694 -0.2258  0.1982
 6175W        W26455   7.825   9.374  13.949 -0.2643 -0.0388  0.2835
 6176W        W26456   6.235  15.710  13.821  0.0893  0.2934 -0.3679
 6177W        W26457  13.606  11.802  10.857 -0.2210  0.1305  0.1178
 6178W        W26458  16.452   5.717  11.278 -0.0241 -0.0652 -0.2260
 6179W        W26459   4.816  19.677  14.058  0.1735 -0.3594  0.0859
 6180W        W26460  13.381  12.937  11.762  0.1905 -0.2123 -0.0077
 6181W        W26461   8.255  15.319   1.467  0.1078  0.1251  0.2480
 6182W        W26462   2.352  11.200   1.736  0.4317 -0.3509 -0.2480
 6183W        W26463  13.553  16.163  11.168 -0.1227  0.1737  0.4826
 6184W        W26464   8.337   0.017  12.393  0.0296 -0.1727 -0.0299
 6185W        W26465  13.073   7.276  12.378 -0.4054  0.1990 -0.1896
 6186W        W26466   5.323  17.836   2.258  0.0351  0.2942 -0.2604
 6187W        W26467   7.453   6.985   3.319 -0.4087  0.1453  0.0778
 6188W        W26468  12.163  15.376   3.432 -0.1601 -0.0418 -0.2185
 6189W        W26469   4.166  13.272  11.384 -0.0163  0.2946 -0.3139
 6190W        W26470   6.023  15.583   3.910 -0.0838 -0.0021 -0.2821
 6191W        W26471  17.511   1.265   3.327  0.1481  0.2032 -0.2463
 6192W        W26472  18.751   5.753   0.477 -0.1558  0.0070  0.0275
 6193W        W26473  12.533  19.354  12.109  0.3288 -0.0106  0.0419
 6194W        W26474  18.412   0.133   0.333  0.0031 -0.0540 -0.2394
 6195W        W26475   7.219  18.880   2.763  0.0189  0.1076 -0.1766
 6196W        W26476   6.676  16.086   4.310  0.1082 -0.1593  0.0713
 6197W        W26477   3.307   4.107   2.604  0.1415  0.0726 -0.0873
 6198W        W26478   2.733  15.832   3.563  0.0332 -0.0719  0.1783
 6199W        W26479   6.581  10.976  12.382 -0.0389 -0.0745 -0.0785
 6200W        W26480  11.278  13.950  10.715  0.1773  0.0856  0.7168
 6201W        W26481   0.885   5.009   2.933  0.0070  0.1097 -0.2559
 6202W        W26482  10.929   9.767   2.258  0.1777  0.3944 -0.0977
 6203W        W26483  19.731   9.196   3.276  0.0375 -0.1481  0.1398
 6204W        W26484  17.602  18.941   3.542 -0.1330  0.0696 -0.2126
 6205W        W26485  13.527   7.845  11.669 -0.0677 -0.1987  0.0973
 6206W        W26486   7.632  14.071  11.458 -0.1140  0.1618  0.0314
 6207W        W26487  12.696   3.405  13.571  0.1389 -0.0050  0.2586
 6208W        W26488   2.679   6.037   2.287  0.2157 -0.2411  0.0879
 6209W        W26489   2.990   4.241  11.909 -0.0044 -0.1819  0.1288
 6210W        W26490  17.405  17.082   2.289 -0.1460 -0.0067  0.1648
 6211W        W26491   9.564  18.676   1.264 -0.1845 -0.1046  0.1099
 6212W        W26492   9.182  14.725  13.822 -0.1290  0.2256 -0.1345
 6213W        W26493  19.708  10.684  10.567  0.1774  0.0208 -0.0446
 6214W        W26494  12.769  14.897   1.907 -0.1301  0.0680 -0.3228
 6215W        W26495  17.442   4.059  13.789 -0.0731  0.2337  0.0886
 6216W        W26496  19.418  11.465  13.394  0.0897 -0.1110 -0.1070
 6217W        W26497   3.924  18.515  13.750 -0.0287 -0.0066  0.0589
 6218W        W26498  17.634  11.086   1.121 -0.4324 -0.0679  0.0695
 6219W        W26499   9.805   2.614  12.972  0.0736 -0.0600 -0.3390
 6220W        W26500  13.092   4.749   0.790 -0.0304  0.1892  0.2618
 6221W        W26501  16.422   9.391  13.145 -0.0644 -0.0855 -0.2194
 6222W        W26502   0.995   3.810  13.480 -0.3359 -0.1225  0.2012
 6223W        W26503  15.956  10.019  10.280  0.1345  0.0488 -0.0019
 6224W        W26504  18.294   5.999   0.556  0.0439 -0.2757 -0.2000
 6225W        W26505  16.430  12.546   3.524  0.1016 -0.1050 -0.2399
 6226W        W26506  18.177  19.615   3.370 -0.0016  0.2857  0.0858
 6227W        W26507   4.486  12.646   1.480  0.0889 -0.1087 -0.1594
 6228W        W26508   3.038   3.309  12.993 -0.2027 -0.1217  0.1866
 6229W        W26509  14.708  16.399  13.596  0.0705 -0.3449 -0.1901
 6230W        W26510   0.397  17.365  11.624 -0.1702 -0.2202 -0.2107
 6231W        W26511   8.405  12.880  12.506 -0.0636 -0.0116  0.0686
 6232W        W26512   5.799  11.995   4.774  0.3670 -0.0021  0.1601
 6233W        W26513   7.863   5.782  12.406 -0.0780  0.0831 -0.3204
 6234W        W26514  13.888   5.253   0.380  0.2822 -0.3148 -0.0102
 6235W        W26515  14.518   1.332  11.156  0.2390  0.0188  0.1367
 6236W        W26516  18.390   9.957   1.934 -0.0665 -0.3136  0.0081
 6237W        W26517   2.348  12.177  10.528 -0.1766 -0.2359 -0.0258
 6238W        W26518  13.000   1.197  13.054 -0.0038 -0.1329 -0.0981
 6239W        W26519  10.647  10.968  13.766 -0.0520  0.0163  0.0056
 6240W        W26520  12.338   6.080   3.774  0.5008  0.0544 -0.0912
 6241W        W26521  17.578   2.987   1.449  0.1753 -0.1325 -0.2066
 6242W        W26522   0.159  10.148   1.979 -0.0259  0.1926 -0.2084
 6243W        W26523   8.911   3.465   3.460 -0.2322  0.3549 -0.1111
 6244W        W26524  14.595   3.054  11.158 -0.5919  0.1571 -0.0438
 6245W        W26525  14.018  11.736  13.128 -0.0713  0.1233  0.0048
 6246W        W26526   7.206   3.695   0.459 -0.1826 -0.2839  0.1255
 6247W        W26527  16.287  13.396  10.661  0.1354  0.0159  0.0775
 6248W        W26528   8.595   2.877  10.388 -0.1982 -0.1227 -0.0474
 6249W        W26529  19.168   3.324  13.023  0.1281 -0.0166  0.0452
 6250W        W26530  13.325   2.898  10.743 -0.3174  0.0695  0.1141
 6251W        W26531  18.751   0.491   1.562 -0.6269 -0.2308  0.2604
 6252W        W26532   2.066   6.041   1.999 -0.3585  0.1508  0.2119
 6253W        W26533  14.383  10.012   2.045  0.0667  0.2356  0.2535
 6254W        W26534  18.462   9.259   2.656 -0.1510 -0.3459 -0.1812
 6255W        W26535   6.639   2.660  11.635  0.0465 -0.1812  0.1555
 6256W        W26536  11.547  12.929  11.467  0.1795  0.1021  0.1569
 6257W        W26537   4.009   0.469  11.912  0.3197  0.4693 -0.1691
 6258W        W26538   3.713   4.407   1.310  0.1903 -0.2000  0.2806
 6259W        W26539  18.021   5.824  13.851 -0.2270  0.0407 -0.0106
 6260W        W26540   1.685   2.827  14.020 -0.0349  0.0748 -0.1860
 6261W        W26541   6.886   9.349  13.663 -0.0201 -0.3320  0.1437
 6262W        W26542   3.188  14.131   3.479 -0.1358 -0.0759 -0.2933
 6263W        W26543  17.521   5.984  13.752  0.1072 -0.1619  0.2102
 6264W        W26544  19.698  15.243   0.458  0.0245  0.2592  0.1638
 6265W        W26545   9.438  10.241  11.226  0.3632  0.0393 -0.3137
 6266W        W26546  17.010   8.478   3.359 -0.2031  0.0871 -0.0488
 6267W        W26547  11.748   1.035  13.459  0.1584  0.1647 -0.0351
 6268W        W26548   1.522   5.337   3.023  0.1254  0.2098 -0.0778
 6269W        W26549  17.164   8.206  12.422  0.0818 -0.1018 -0.1213
 6270W        W26550  17.658   7.859  11.760 -0.3670  0.2324  0.0377
 6271W        W26551  18.213  11.609   3.333 -0.1196  0.1244 -0.1661
 6272W        W26552  17.989  13.909   3.837  0.0524 -0.0329  0.2241
 6273W        W26553   9.787   2.010   2.881 -0.0969 -0.0356  0.1119
 6274W        W26554   3.700   3.618  12.397  0.0642  0.1322 -0.0633
 6275W        W26555  14.012  15.401   1.428  0.1599 -0.0062  0.3753
 6276W        W26556  13.152  19.275  12.882  0.1331 -0.2193  0.3569
 6277W        W26557  15.657   8.416   0.872  0.1205  0.3563  0.3027
 6278W        W26558   4.144  18.360  13.305 -0.2537  0.0436  0.0215
 6279W        W26559  10.803  16.860  10.711 -0.4450  0.0173  0.3357
 6280W        W26560   9.086  12.878   5.662 -0.0840 -0.0670  0.0744
 6281W        W26561  11.290   8.302   1.349 -0.1061 -0.0610  0.0032
 6282W        W26562   2.976  17.782  14.064  0.1618 -0.2955 -0.3194
 6283W        W26563   0.149  11.144  12.803 -0.1020  0.1037 -0.0739
 6284W        W26564   8.608   5.563   4.258 -0.2915 -0.1797 -0.1347
 6285W        W26565   4.525   9.389  13.756 -0.1597  0.2481 -0.0726
 6286W        W26566   5.076  18.103  13.030 -0.0404 -0.1297  0.3343
 6287W        W26567   6.164   5.657   9.742 -0.0128  0.2944  0.0113
 6288W        W26568   7.368  18.856  11.437 -0.1400  0.0302 -0.3576
 6289W        W26569   4.877  14.032   0.273  0.2269 -0.0076  0.0674
 6290W        W26570  16.421  12.145  12.730  0.3804 -0.1154  0.0520
 6291W        W26571  11.286  12.056  12.106 -0.3353  0.0820 -0.0036
 6292W        W26572  13.484   3.806  11.191  0.0987  0.0214 -0.1621
 6293W        W26573  15.724   4.176   4.284  0.1117  0.0319 -0.1240
 6294W        W26574   4.766  11.433  13.995  0.0845  0.0407 -0.2780
 6295W        W26575  19.452   1.658   1.174 -0.2358 -0.0600 -0.0252
 6296W        W26576  19.164  10.251  13.831 -0.1206 -0.0006 -0.3346
 6297W        W26577   0.959   5.920  10.883 -0.3562 -0.1104  0.2313
 6298W        W26578  19.288  16.362  11.980 -0.0903 -0.2575 -0.0262
 6299W        W26579  17.035  10.966  12.436 -0.2678  0.4024  0.1448
 6300W        W26580   8.313  11.528  10.218 -0.0233  0.0592 -0.1405
 6301W        W26581   2.837   8.441   4.506 -0.0206 -0.1342  0.0155
 6302W        W26582  18.716  14.151  13.848  0.4224  0.3376 -0.0474
 6303W        W26583  11.898  10.343  11.893 -0.0405 -0.1340  0.0186
 6304W        W26584  10.322   9.076  10.864  0.0662 -0.2475 -0.0445
 6305W        W26585  18.841   2.158   9.549 -0.0148 -0.2198 -0.1072
 6306W        W26586  18.273   7.129   2.372  0.1684 -0.0822  0.4173
 6307W        W26587   9.269  12.346   3.999 -0.0265 -0.0711  0.2045
 6308W        W26588   2.562   1.071   2.544  0.0527  0.1539  0.1123
 6309W        W26589  12.515   1.426   0.257  0.1089  0.0222 -0.1465
 6310W        W26590  11.641   4.594  12.976  0.0157  0.1425 -0.3506
 6311W        W26591   0.590  14.106  10.757 -0.1121 -0.3286 -0.5001
 6312W        W26592   8.404   8.323   1.548 -0.0012  0.0014 -0.1049
 6313W        W26593  17.073  17.684   2.825 -0.0111  0.4438 -0.1857
 6314W        W26594   7.802   2.637   2.285 -0.0865 -0.1118  0.3394
 6315W        W26595   0.408  17.302   0.786 -0.1349 -0.0333  0.1801
 6316W        W26596   1.788   1.239  13.354 -0.0207  0.3089 -0.1590
 6317W        W26597   0.354   0.751   1.902 -0.3265 -0.1135 -0.1903
 6318W        W26598  16.935   5.388   1.243 -0.1608  0.1154 -0.3581
 6319W        W26599  16.671  14.006   4.704  0.2819  0.5945 -0.2771
 6320W        W26600   5.654   4.616   3.160  0.1191  0.1174 -0.0107
 6321W        W26601  12.964   6.436  11.169  0.3054 -0.0611  0.0603
 6322W        W26602  12.656   8.784   3.893  0.1663 -0.5126 -0.0667
 6323W        W26603   1.597  12.405  11.732  0.2947 -0.0216  0.2215
 6324W        W26604  16.919  11.835   2.401  0.1472 -0.0503 -0.4415
 6325W        W26605   5.700  18.103  11.699  0.1359 -0.2038  0.1690
 6326W        W26606  11.438   9.775   2.585  0.0455 -0.1292 -0.0949
 6327W        W26607   9.411   8.650   3.374  0.0498  0.2434  0.0008
 6328W        W26608  13.603  17.840   3.920 -0.0702 -0.1467 -0.0140
 6329W        W26609   2.480   1.124   0.647 -0.0143 -0.1286 -0.2421
 6330W        W26610   5.280   9.892   2.827 -0.0333  0.3121  0.0959
 6331W        W26611  13.951   3.746   2.843  0.0208  0.2627  0.0584
 6332W        W26612   0.598   1.088  11.656 -0.0254 -0.3830 -0.1132
 6333W        W26613   1.859  18.857  13.575  0.1837 -0.0068 -0.1822
 6334W        W26614  14.124   2.741   2.714  0.3145 -0.3905  0.0212
 6335W        W26615  16.812   3.365  13.379  0.0461 -0.2346 -0.2414
 6336W        W26616   0.309   6.821  12.936  0.2102  0.1257  0.0519
 6337W        W26617   1.017   8.023  13.467  0.2216 -0.0255  0.0887
 6338W        W26618   1.829   3.211  11.448 -0.1219  0.0143 -0.1919
 6339W        W26619  13.886  14.176   2.428  0.0250  0.2729 -0.0961
 6340W        W26620  15.243   7.787  10.371 -0.0300 -0.1978  0.3103
 6341W        W26621   1.170   7.721  12.359  0.0914  0.1277 -0.0330
 6342W        W26622   7.759  19.319   2.998 -0.1081 -0.0687 -0.1132
 6343W        W26623  11.351  15.214  11.742  0.0671  0.1517  0.2990
 6344W        W26624   4.243   9.075  12.278  0.0793 -0.1509 -0.2459
 6345W        W26625  15.072   5.066  11.078  0.0817  0.0422 -0.1391
 6346W        W26626  10.996   4.011  10.553 -0.1383 -0.1293 -0.1158
 6347W        W26627   4.845  11.988  13.830 -0.2140  0.3244 -0.0613
 6348W        W26628  16.390  17.087  13.590 -0.2222  0.1668  0.4148
 6349W        W26629  15.704   7.014   0.553 -0.2816  0.2673 -0.1502
 6350W        W26630   5.665  17.685   4.205 -0.2849  0.0126  0.0324
 6351W        W26631   7.172  11.594  12.890  0.0625  0.2503  0.0483
 6352W        W26632   3.518  10.631  11.144 -0.1603  0.1361 -0.1497
 6353W        W26633   3.707  18.461   1.290  0.1033  0.1807 -0.3381
 6354W        W26634   6.543  17.849  12.754  0.0115  0.1445 -0.1697
 6355W        W26635   4.145   7.724   3.199 -0.1587  0.2145 -0.1664
 6356W        W26636   1.438   2.631  13.634 -0.1800 -0.1243 -0.2435
 6357W        W26637  12.943   7.275   0.780 -0.1085 -0.1228 -0.1163
 6358W        W26638   2.777  17.944  13.632  0.1305  0.1213  0.0485
 6359W        W26639   5.716  18.582   0.393 -0.2766  0.0665  0.0156
 6360W        W26640   7.287  18.500   3.942 -0.0532 -0.0393 -0.1059
 6361W        W26641   0.135   7.003   1.083 -0.1773  0.1191 -0.1014
 6362W        W26642   3.420   5.294  10.375 -0.0970 -0.2209  0.0532
 6363W        W26643   1.401  12.598   2.575  0.0597  0.3496 -0.2041
 6364W        W26644   6.425  12.749   3.452  0.1036  0.3154  0.0584
 6365W        W26645   4.887   4.439   1.906  0.0088  0.2445 -0.4220
 6366W        W26646  11.503  17.440   2.718  0.4195 -0.3063  0.1047
 6367W        W26647  18.716  12.247   2.119  0.1181 -0.2884 -0.2900
 6368W        W26648   8.262  17.892   4.078 -0.1794  0.0120 -0.1140
 6369W        W26649   3.439   6.835  11.929  0.2390  0.2256  0.4241
 6370W        W26650  10.575   3.644  12.481 -0.0731  0.0558 -0.2035
 6371W        W26651  14.113   5.302  10.921 -0.3399 -0.0006 -0.1384
 6372W        W26652  14.184   8.445  10.989 -0.3116 -0.0881 -0.0332
 6373W        W26653   7.538   3.113   1.464 -0.0935 -0.2084 -0.2854
 6374W        W26654   6.563  12.203   0.012 -0.1313  0.0477  0.1621
 6375W        W26655  14.594  10.834   1.540  0.1291  0.0987  0.0568
 6376W        W26656   9.213   7.095   2.781 -0.0986  0.0293 -0.1568
 6377W        W26657   1.558   7.758  12.674  0.2835  0.0275 -0.3277
 6378W        W26658   5.659  17.843   3.713  0.0985  0.0750  0.3437
 6379W        W26659  12.015   8.276  12.738 -0.0778 -0.1433  0.1050
 6380W        W26660   5.017  17.962  10.615 -0.2177  0.2611  0.0903
 6381W        W26661   7.161   9.676   0.237 -0.2803  0.2795 -0.1140
 6382W        W26662   4.456   2.503  12.994 -0.0889  0.1909  0.1265
 6383W        W26663  18.181   4.217   1.901  0.1483  0.0536 -0.0950
 6384W        W26664  13.952  10.775  13.243 -0.2820  0.0812 -0.2149
 6385W        W26665  10.410  12.067   0.939  0.1885  0.3485 -0.0861
 6386W        W26666   5.753  10.524  13.335  0.1124  0.2792 -0.1402
 6387W        W26667   1.373   9.087   0.463 -0.3308  0.1299  0.2057
 6388W        W26668  16.753   8.517  11.460  0.0486 -0.1104  0.3100
 6389W        W26669  13.065  19.349   1.548  0.0958 -0.0265 -0.2349
 6390W        W26670  15.343   7.606   1.437 -0.1351 -0.0070 -0.0200
 6391W        W26671   8.819   0.464  10.917 -0.1985 -0.4248 -0.2186
 6392W        W26672  15.797  17.749  13.258 -0.0370 -0.3139  0.2890
 6393W        W26673   2.201   9.579   3.751 -0.0604  0.2219  0.0314
 6394W        W26674  18.995  14.935   9.427  0.2298  0.2619  0.3662
 6395W        W26675  10.920  17.964  10.685  0.0311 -0.4540  0.2464
 6396W        W26676   7.222  11.534  12.367  0.0991  0.1757  0.2135
 6397W        W26677  17.876  13.534  12.230  0.3088 -0.3141  0.1913
 6398W        W26678   4.681  11.429   1.319  0.1237  0.1666  0.0184
 6399W        W26679   4.797  14.807   0.111  0.1870 -0.0302 -0.1411
 6400W        W26680   4.603  11.764   3.742 -0.0357 -0.1918  0.2963
 6401W        W26681   0.973  16.625   3.988  0.2417 -0.0642  0.0331
 6402W        W26682   9.330  17.526  11.735  0.2343  0.0187  0.0785
 6403W        W26683   3.447  13.134   1.932  0.0444  0.1722  0.0978
 6404W        W26684   6.371   6.203  13.244 -0.0032  0.0187  0.2132
 6405W        W26685   4.562  15.536  11.763 -0.1312 -0.1048 -0.0282
 6406W        W26686  11.094  18.393  13.242 -0.0364  0.0141  0.1564
 6407W        W26687   2.567   3.255  11.021  0.1620  0.3693 -0.2435
 6408W        W26688  10.200  18.795  13.535  0.0118 -0.0147  0.0267
 6409W        W26689   4.284  18.729   2.628 -0.4237 -0.2041  0.0451
 6410W        W26690   5.504  16.363  12.955 -0.0847  0.2138  0.0902
 6411W        W26691   1.160   8.305   2.629 -0.3629  0.1073 -0.0206
 6412W        W26692   5.583  11.808   1.107  0.0794 -0.0385 -0.0903
 6413W        W26693  17.488   2.736  11.420  0.2561 -0.0920 -0.1126
 6414W        W26694  15.240  11.789   3.946 -0.0257  0.3458  0.2177
 6415W        W26695   1.354  12.185   2.209 -0.1895  0.0746 -0.0059
 6416W        W26696   4.259  12.851   0.234 -0.2487 -0.2427 -0.0395
 6417W        W26697   6.983   1.653   2.270 -0.0391 -0.1527  0.2791
 6418W        W26698   7.753   3.277  10.813 -0.0134  0.1527 -0.2992
 6419W        W26699  14.224   3.273  14.107  0.0201  0.3541 -0.2054
 6420W        W26700   3.297  19.578  13.136 -0.1627  0.0050 -0.1171
 6421W        W26701   3.497  18.690   3.077 -0.0057 -0.0504  0.1077
 6422W        W26702  10.396  11.789   0.491 -0.0585 -0.1783 -0.1342
 6423W        W26703   3.783  15.620   4.146  0.1860  0.0741 -0.3221
 6424W        W26704   8.573  14.380  12.288 -0.1486 -0.0839 -0.2643
 6425W        W26705  18.706  12.496  13.269 -0.4956  0.1570 -0.2722
 6426W        W26706   1.419   0.455  11.792 -0.0384  0.2716 -0.3868
 6427W        W26707   9.564   8.405  11.093  0.0653  0.1095  0.2067
 6428W        W26708   1.791  18.128   4.051  0.0272  0.2716  0.0707
 6429W        W26709  16.499  11.403   0.551  0.1913  0.1700  0.0930
 6430W        W26710  12.654  14.647   3.936 -0.0653 -0.0187 -0.1393
 6431W        W26711  10.244   1.728  11.414 -0.0491  0.3247 -0.0134
 6432W        W26712   5.404  10.717   2.270 -0.0575  0.1284 -0.1554
 6433W        W26713  11.964   3.099  13.131 -0.4263  0.5440  0.0840
 6434W        W26714   6.274   0.920   2.086 -0.0887  0.1144 -0.1912
 6435W        W26715   1.009  18.469  14.026 -0.4011 -0.1497 -0.0567
 6436W        W26716   0.012  19.232  13.584  0.3152  0.0289  0.1330
 6437W        W26717  19.607  12.243  11.391 -0.3347  0.0235 -0.3275
 6438W        W26718   2.935   7.455  13.659  0.2286 -0.0224 -0.0074
 6439W        W26719  19.103  15.318   0.805  0.0483 -0.0895 -0.1205
 6440W        W26720   9.565   7.681  11.817  0.1323  0.2576  0.1264
 6441W        W26721   7.783  13.789  11.936  0.1091  0.1897 -0.1297
 6442W        W26722  12.519   4.339   3.186 -0.1292  0.0428  0.1608
 6443W        W26723  18.257   9.105  10.570  0.0941 -0.0812 -0.1559
 6444W        W26724  14.272  18.307   9.956  0.1031 -0.1305 -0.0545
 6445W        W26725  14.392   0.408  12.718  0.0327 -0.2705  0.2498
 6446W        W26726  15.991   8.827  10.847  0.1432 -0.0287  0.1952
 6447W        W26727   1.603   3.946   1.288 -0.0055  0.0637 -0.1323
 6448W        W26728  17.552  14.506   2.737  0.1814 -0.2503  0.2597
 6449W        W26729  19.671   5.213  13.687 -0.0087  0.0425  0.0323
 6450W        W26730  14.872   9.376   1.247 -0.0877 -0.2701  0.1749
 6451W        W26731   0.230  12.082  13.025  0.0926  0.1051  0.0062
 6452W        W26732  17.931  10.686   2.460 -0.0479  0.1113  0.0766
 6453W        W26733   8.619  17.351  11.071  0.1337  0.4994 -0.2905
 6454W        W26734   4.911  14.244  11.479  0.1195  0.1533  0.1900
 6455W        W26735  11.685   9.119  13.490  0.0991 -0.1275 -0.0520
 6456W        W26736  14.057  11.232  13.925 -0.3164 -0.0110 -0.0728
 6457W        W26737   3.663  10.104  10.931  0.1715 -0.2273  0.1300
 6458W        W26738  14.058  14.491  13.685  0.0752 -0.1394 -0.1595
 6459W        W26739   6.394   4.917  11.061  0.1164 -0.3348 -0.0944
 6460W        W26740  19.387  13.620   9.871 -0.0879  0.0674 -0.1782
 6461W        W26741   9.500   6.984   4.264 -0.0278 -0.2084 -0.0614
 6462W        W26742  17.074   0.490   1.082 -0.0081 -0.0830  0.3943
 6463W        W26743   4.907   0.020   2.676  0.2670  0.0340 -0.0806
 6464W        W26744  16.338   9.646   0.929  0.0337  0.2319  0.2363
 6465W        W26745  16.061  15.994  12.261 -0.0205  0.2443 -0.0065
 6466W        W26746  19.502   2.731   1.969 -0.0545  0.0831  0.2024
 6467W        W26747   7.938   8.616  13.093 -0.1661 -0.2289 -0.2504
 6468W        W26748  14.481  10.380  11.737 -0.0499 -0.0757 -0.0508
 6469W        W26749   5.751  15.811   2.690  0.0081  0.1092 -0.2647
 6470W        W26750  12.239   0.240  11.588  0.0099 -0.0422  0.0268
 6471W        W26751   9.684  12.215   2.391 -0.0213  0.1091  0.0175
 6472W        W26752  15.407   4.910   9.806 -0.1143  0.1748  0.1962
 6473W        W26753  12.756   9.137   2.630  0.0508 -0.3741  0.2611
 6474W        W26754  16.804   0.043   2.748 -0.0606 -0.0800  0.2064
 6475W        W26755   2.711   1.715   3.635 -0.3763  0.0314  0.1970
 6476W        W26756   1.335  17.282   0.919  0.1787 -0.3846  0.4096
 6477W        W26757  10.067   5.619   1.464 -0.1536 -0.0157 -0.0604
 6478W        W26758   4.866   4.526   2.857 -0.0898  0.1982 -0.0158
 6479W        W26759   6.474   4.607   2.036  0.3279 -0.0317  0.0983
 6480W        W26760  10.659  18.574  13.428  0.2188  0.1276  0.1130
 6481W        W26761  15.406   3.003   0.685 -0.1934 -0.0525  0.0078
 6482W        W26762   4.245  12.860   3.465 -0.3331  0.0424 -0.1324
 6483W        W26763  14.365   7.645  11.239  0.1477  0.2676 -0.0215
 6484W        W26764   2.031   7.521   2.045 -0.1228  0.0278 -0.0238
 6485W        W26765  14.086   0.435   2.268 -0.2018 -0.0561  0.1446
 6486W        W26766   5.873  17.436   2.322 -0.0715 -0.2046  0.1744
 6487W        W26767   0.830  10.461   4.266  0.1814  0.1037  0.3739
 6488W        W26768   6.132  14.378  10.927  0.1318  0.1153 -0.0552
 6489W        W26769   2.871  13.405   3.849  0.2243 -0.0756  0.2170
 6490W        W26770  14.710   0.441   0.255 -0.1491 -0.1460 -0.1150
 6491W        W26771  18.985   5.076  12.211 -0.0411  0.0832 -0.0819
 6492W        W26772   8.833  17.269   2.082 -0.2055  0.0037 -0.1758
 6493W        W26773  15.887   2.037   3.127  0.1567  0.1536  0.1092
 6494W        W26774   5.313   9.607  12.772  0.0341 -0.0505 -0.1693
 6495W        W26775  13.687  10.813  10.735  0.2292 -0.0472 -0.1475
 6496W        W26776  11.700   3.232   0.770  0.0566  0.0394  0.1325
 6497W        W26777   4.056   6.819   5.423  0.1861  0.1805 -0.0290
 6498W        W26778   5.449  17.708   0.305 -0.0983  0.1240 -0.0971
 6499W        W26779   6.887  10.188  11.060 -0.0486 -0.0398 -0.2807
 6500W        W26780  10.000  18.265  13.641  0.0148 -0.1270 -0.0364
 6501W        W26781  14.746   5.394  12.909  0.1846  0.0739  0.1189
 6502W        W26782  10.900  13.675   9.498 -0.0752 -0.1081  0.1330
 6503W        W26783  18.060  13.429  11.629  0.0523  0.0080 -0.0408
 6504W        W26784  14.551   0.069   1.793 -0.1576  0.3467 -0.3625
 6505W        W26785  13.017  15.975  12.795  0.1015  0.0994 -0.1087
 6506W        W26786   3.544  15.381  13.691  0.2553 -0.2907 -0.0586
 6507W        W26787  16.915  12.698   1.240  0.1173  0.0834 -0.2070
 6508W        W26788  16.214   7.135   3.312  0.3075 -0.2589 -0.0055
 6509W        W26789  11.933  17.350   1.008 -0.0706 -0.0768 -0.1955
 6510W        W26790  13.990  18.492  14.058  0.3522 -0.1815 -0.0095
 6511W        W26791  17.812  14.380  10.532 -0.0286  0.0979  0.1560
 6512W        W26792  18.944   8.518   3.327 -0.3591  0.0189 -0.3057
 6513W        W26793  13.525   5.477  12.587 -0.2999 -0.2664  0.1354
 6514W        W26794  17.620  11.567  13.375  0.2399 -0.0787  0.1990
 6515W        W26795   7.452  16.015  11.034  0.0515 -0.2636  0.1595
 6516W        W26796  17.020   8.173  12.972 -0.2078 -0.0187  0.1469
 6517W        W26797  15.320  11.854   1.434 -0.0708  0.1165 -0.0877
 6518W        W26798  12.277   5.446   3.747  0.0821 -0.2941 -0.2705
 6519W        W26799  11.664   3.133   3.041  0.0282  0.1883 -0.1381
 6520W        W26800   0.351  18.367   0.459 -0.0490 -0.0815  0.1448
 6521W        W26801  18.326   3.916  10.677  0.4992 -0.0844 -0.1171
 6522W        W26802  16.712   8.288  13.957  0.3087  0.3823 -0.0332
 6523W        W26803   4.500   7.227  12.905  0.3894  0.2364  0.0521
 6524W        W26804  16.730   7.044  10.563 -0.2841 -0.2849  0.0345
 6525W        W26805  12.693   2.468  13.902  0.3895 -0.0827 -0.1790
 6526W        W26806   7.379   1.386   2.315  0.1493 -0.0818  0.2249
 6527W        W26807  13.332  13.711  12.355  0.1825 -0.1662 -0.3707
 6528W        W26808   8.142  16.114  13.198  0.1565  0.0926  0.0200
 6529W        W26809  18.755  17.683   9.806  0.0331  0.0729  0.1360
 6530W        W26810   8.655  13.335  12.546  0.0814  0.0653  0.1345
 6531W        W26811   5.031  17.442  11.271 -0.1203 -0.0831 -0.0195
 6532W        W26812   9.230   8.732  12.418 -0.2440  0.0608  0.0130
 6533W        W26813  12.516   9.688   4.055 -0.2522 -0.0176  0.0642
 6534W        W26814   5.828  12.500   3.093  0.2653  0.4628  0.3898
 6535W        W26815   1.754  16.767   3.704  0.3990 -0.1154 -0.2238
 6536W        W26816   2.501  19.738   3.968 -0.1289  0.0529 -0.2520
 6537W        W26817  12.941  12.469  10.368  0.1068  0.0390  0.1471
 6538W        W26818   9.507  15.971  13.635 -0.2605 -0.0018  0.0012
 6539W        W26819  19.287   5.559   1.830  0.2417  0.2319 -0.1567
 6540W        W26820  12.393  17.462  10.846  0.2334 -0.0559  0.0299
 6541W        W26821   7.628   1.126   1.269 -0.0835 -0.0761  0.1259
 6542W        W26822  13.343  15.264   3.057  0.1253  0.0749  0.0907
 6543W        W26823   7.713  18.206  12.721  0.2317 -0.3459  0.2176
 6544W        W26824   9.644  11.661   2.231  0.0810  0.1035 -0.0855
 6545W        W26825  10.973  19.269  11.580 -0.1508 -0.0783 -0.1211
 6546W        W26826   3.201  12.630  10.393 -0.0128 -0.1345 -0.0549
 6547W        W26827   1.317   7.302  12.534  0.0729 -0.1078  0.0295
 6548W        W26828   0.064  11.884   0.061 -0.0039 -0.2082  0.3197
 6549W        W26829  16.220  19.585  11.677 -0.3787 -0.0278 -0.3403
 6550W        W26830  11.293   4.755  12.177 -0.0581 -0.0839  0.0198
 6551W        W26831   9.630  10.692   3.751  0.0639 -0.0338  0.0059
 6552W        W26832   8.208  16.811  12.094  0.3764 -0.0132 -0.0163
 6553W        W26833   5.983   7.240  11.785  0.0131  0.2539 -0.1489
 6554W        W26834  13.953   1.625  12.995 -0.2922  0.0570  0.1711
 6555W        W26835   5.129   9.658   3.861  0.2982 -0.0190  0.2950
 6556W        W26836   4.066   5.363  12.101 -0.1577  0.2944 -0.1651
 6557W        W26837   8.976  12.398  11.941 -0.0034  0.0090  0.3096
 6558W        W26838   5.373   3.980  12.271  0.1080 -0.0697 -0.0017
 6559W        W26839   0.280   9.672   1.790  0.0658 -0.2824 -0.1172
 6560W        W26840  17.455  13.181   0.147 -0.0054  0.1423  0.0926
 6561W        W26841  18.751   3.716   3.232  0.0467 -0.2556 -0.0809
 6562W        W26842   0.985   0.434   0.438  0.1397 -0.0475 -0.1625
 6563W        W26843   3.822  17.480  13.602  0.0547  0.1715 -0.0761
 6564W        W26844  13.818   8.276   3.242 -0.4575 -0.0376  0.0137
 6565W        W26845   0.637  16.268  10.787  0.1540 -0.0474  0.1253
 6566W        W26846   0.912  19.308   1.000 -0.0319  0.0699 -0.0422
 6567W        W26847   8.293   5.568  12.755 -0.0562  0.1303 -0.1126
 6568W        W26848  10.283  12.434   1.709  0.1571 -0.1238  0.1395
 6569W        W26849   5.324   0.548  12.263  0.2352  0.1276 -0.1626
 6570W        W26850  11.547   6.140   3.964 -0.1826  0.0255  0.2884
 6571W        W26851   7.867  13.848   0.666  0.0097  0.1423  0.1616
 6572W        W26852   7.105   2.874   1.712 -0.1753  0.0350  0.2457
 6573W        W26853  18.257   7.380  12.843 -0.1908  0.1603  0.1083
 6574W        W26854   6.543  14.594  13.178  0.1392  0.0629 -0.0444
 6575W        W26855  11.252   2.198   1.992  0.1489 -0.2325 -0.0941
 6576W        W26856   1.177  15.121   2.207  0.1676 -0.0701  0.0406
 6577W        W26857  10.469   8.995   1.577 -0.1880 -0.3349  0.0554
 6578W        W26858  14.194   7.214   2.245 -0.2338  0.3260 -0.0457
 6579W        W26859   0.439   2.250  12.226 -0.0474 -0.3566  0.0890
 6580W        W26860   0.851   7.933   3.509 -0.3099 -0.0642  0.0559
 6581W        W26861  18.655   2.640   0.641  0.1798  0.2769 -0.2081
 6582W        W26862   8.169   0.553  13.188  0.0826  0.1540  0.0171
 6583W        W26863   8.252   3.973  12.009 -0.0123 -0.2296  0.3554
 6584W        W26864   8.258   8.853   5.252 -0.1253 -0.1240  0.1079
 6585W        W26865   3.353  19.088  13.068 -0.1526  0.2189  0.0037
 6586W        W26866  12.011   7.148   3.314  0.1371 -0.3262  0.0322
 6587W        W26867  11.061  16.283   1.796 -0.0125 -0.0514  0.3126
 6588W        W26868  17.054   6.126   1.907 -0.2223 -0.0011 -0.0410
 6589W        W26869  15.780   8.075   2.758 -0.2936  0.0590 -0.1338
 6590W        W26870  10.421   0.462  11.094  0.0125 -0.0367  0.0911
 6591W        W26871  16.096   9.738  13.355 -0.1354  0.1528  0.0321
 6592W        W26872   1.834  14.633  13.929 -0.1406 -0.1078  0.0178
 6593W        W26873   1.400   2.089  13.606 -0.0646 -0.1005  0.1234
 6594W        W26874  14.798   0.510   9.910 -0.1142  0.0703 -0.1014
 6595W        W26875   9.287  14.412   3.508 -0.0345 -0.0922  0.1518
 6596W        W26876   9.446  14.059   2.127  0.2911  0.0906 -0.1445
 6597W        W26877   4.950   4.467  11.649 -0.0880  0.3512  0.2650
 6598W        W26878  15.630  15.792  13.292  0.1385 -0.1998  0.1066
 6599W        W26879  16.911   0.302  10.205  0.0260  0.2721  0.0849
 6600W        W26880   9.191   8.878  13.500 -0.1784  0.1741  0.0409
 6601W        W26881  12.358   7.352  11.005 -0.0900  0.1366 -0.3398
 6602W        W26882   1.084  11.799   2.378 -0.0441  0.1787 -0.2235
 6603W        W26883   9.221   2.044  12.742 -0.1579 -0.2074 -0.3000
 6604W        W26884   3.955   2.153  12.471  0.0800 -0.0196  0.0678
 6605W        W26885  18.192   6.253  11.902 -0.0796  0.2733  0.0518
 6606W        W26886  18.963   5.463   3.949  0.4389 -0.1430 -0.2370
 6607W        W26887   6.771  17.781  12.271  0.1053  0.0831  0.0836
 6608W        W26888   2.785   3.772  11.230  0.1518 -0.1784  0.1000
 6609W        W26889  14.908   5.209   2.983  0.2891 -0.0811  0.1152
 6610W        W26890   2.546   2.646  11.122 -0.0266  0.0737  0.1379
 6611W        W26891   4.860  13.062  12.762  0.3688  0.2361  0.0910
 6612W        W26892  18.483   7.214   1.140  0.1090 -0.1621  0.0276
 6613W        W26893   4.826   8.732   1.436  0.1527 -0.0569 -0.1074
 6614W        W26894  12.303  15.820  10.089 -0.0254  0.0695  0.0907
 6615W        W26895   3.678   7.928   4.479  0.1750  0.2347 -0.0719
 6616W        W26896   3.715  15.026  11.883  0.1839  0.2603  0.0918
 6617W        W26897   9.921  12.216  10.540 -0.2206 -0.1767  0.3014
 6618W        W26898   3.285  19.681   1.954 -0.1375  0.1887 -0.2835
 6619W        W26899  17.419  12.645  12.649 -0.1306  0.2858 -0.3024
 6620W        W26900   3.017  12.139   2.311  0.1212 -0.1208  0.0516
 6621W        W26901   5.225   2.747   2.661  0.2433 -0.1495  0.0783
 6622W        W26902  11.452   6.902   1.069  0.2388  0.0460 -0.3038
 6623W        W26903   3.206   6.225  11.790  0.1987 -0.1411  0.3211
 6624W        W26904   8.480  12.891   2.036  0.3114 -0.2936  0.0553
 6625W        W26905  11.314   0.999  12.716  0.0891  0.0852  0.0449
 6626W        W26906  13.104   8.594   3.657 -0.0488  0.0794 -0.1878
 6627W        W26907  18.900   8.829  13.524 -0.2071 -0.1404 -0.1440
 6628W        W26908   0.831  11.817   2.825  0.3123 -0.0555  0.1862
 6629W        W26909   2.949  11.479   9.597  0.1146 -0.0614 -0.0091
 6630W        W26910  14.403  19.643  10.749  0.0701  0.0416  0.2184
 6631W        W26911   5.107  15.466  10.143  0.1424  0.1964 -0.2191
 6632W        W26912  19.022   3.671   1.634 -0.0437  0.0150  0.0637
 6633W        W26913  18.771  11.107  11.430 -0.0110 -0.0213  0.3163
 6634W        W26914   9.404   9.761  12.460  0.2377  0.1429  0.3103
 6635W        W26915   2.654   3.657  12.941 -0.0144  0.0640 -0.1130
 6636W        W26916  11.055  15.033  11.337  0.1295  0.1111 -0.2573
 6637W        W26917  16.489  11.642  11.371  0.2069 -0.0004  0.0927
 6638W        W26918  16.044   7.114  12.992 -0.1672  0.0246 -0.0775
 6639W        W26919   8.294  17.330   1.162  0.4584  0.2237 -0.0096
 6640W        W26920  13.482   3.548  10.606  0.1366 -0.3738  0.0685
 6641W        W26921   5.625   6.293   1.553  0.2231  0.0900  0.0742
 6642W        W26922  12.352  15.131  13.146 -0.1132 -0.0017  0.1932
 6643W        W26923   8.565   0.463   0.104 -0.1344  0.0111 -0.1062
 6644W        W26924   5.839  16.378  11.601 -0.1349 -0.0579  0.0955
 6645W        W26925   1.203  15.429  12.387 -0.2186 -0.1570  0.0669
 6646W        W26926  18.536  16.233   3.520 -0.1195 -0.1982 -0.2322
 6647W        W26927   7.517   0.800  10.621 -0.1377  0.0677 -0.1878
 6648W        W26928   1.546   0.410  13.643 -0.2111 -0.1442  0.1698
 6649W        W26929  12.882   4.778  10.500  0.2201  0.0135 -0.1069
 6650W        W26930   6.470  18.360  10.887 -0.1901  0.1982 -0.0224
 6651W        W26931   5.713   1.224   3.807 -0.2055  0.3229  0.0888
 6652W        W26932  17.530  18.016   2.826 -0.0483 -0.0587  0.1194
 6653W        W26933   0.979  14.831   0.684  0.2804  0.0786 -0.0203
 6654W        W26934  12.623   7.162   0.237 -0.0717 -0.1582 -0.0746
 6655W        W26935  10.103  14.539  10.450 -0.1570 -0.0638 -0.0200
 6656W        W26936  13.449  13.063   1.285  0.2219  0.1485 -0.1407
 6657W        W26937  16.161   7.763  11.684  0.0719 -0.4496  0.1023
 6658W        W26938   6.120  12.168  11.224 -0.0255 -0.1491  0.1242
 6659W        W26939   0.533   2.463  13.482 -0.2796  0.1668 -0.1266
 6660W        W26940   7.231   2.481   2.897  0.0277 -0.1085 -0.0657
 6661W        W26941  11.824  10.681   2.255 -0.2672 -0.0271  0.2555
 6662W        W26942  11.721   6.387  10.903 -0.0269  0.2833 -0.0991
 6663W        W26943  18.760   1.306  11.753  0.0828 -0.1439  0.1953
 6664W        W26944  10.167  11.763   1.365  0.2744  0.2201  0.0777
 6665W        W26945  14.348  13.659  12.613  0.1978 -0.0114 -0.3519
 6666W        W26946  10.470   7.097   3.442 -0.1077  0.0212 -0.0418
 6667W        W26947   9.187  17.292  10.523 -0.2396  0.0452  0.0394
 6668W        W26948  10.150  16.205   0.215  0.0817  0.0862 -0.3515
 6669W        W26949  17.773   9.877   0.394 -0.0925  0.1593  0.0516
 6670W        W26950  17.141   2.293   2.536 -0.2119  0.2313  0.0856
 6671W        W26951  15.842  14.279  12.085 -0.0806  0.0160  0.0064
 6672W        W26952  11.626  11.207   2.370 -0.0676 -0.3017 -0.0739
 6673W        W26953   1.252   6.510  11.681  0.2121  0.0505 -0.0118
 6674W        W26954  18.149   0.953   2.934  0.1665  0.1760  0.2319
 6675W        W26955  18.315   2.021   2.537  0.0776  0.1640  0.1854
 6676W        W26956   9.964  15.531   1.429 -0.0164 -0.2030  0.0636
 6677W        W26957   9.008   6.001   3.341 -0.1869  0.1798  0.0361
 6678W        W26958  19.023   0.388  11.589 -0.1224  0.0390 -0.1449
 6679W        W26959   4.252   4.329  12.055  0.0739 -0.0614 -0.0598
 6680W        W26960  12.381  13.042  12.967  0.0901  0.2214 -0.0524
 6681W        W26961  19.118  18.370  10.363  0.2427 -0.3016 -0.0408
 6682W        W26962   2.461   0.850  10.841  0.0005  0.1610  0.3654
 6683W        W26963  18.732   1.758   0.023 -0.3520 -0.1162  0.0595
 6684W        W26964  13.970   5.052   2.581  0.0905  0.1765  0.1155
 6685W        W26965   0.640   7.320  10.179  0.1219  0.0481  0.0351
 6686W        W26966  11.196  12.372   3.109 -0.2756 -0.2779  0.0148
 6687W        W26967  11.102   6.384   2.269  0.2027  0.1797 -0.0968
 6688W        W26968   3.096   6.717   1.121  0.2825 -0.1871  0.0970
 6689W        W26969   0.330  17.838  11.384  0.2978  0.1487 -0.3580
 6690W        W26970  10.305   9.519  12.187  0.0331 -0.2748  0.3806
 6691W        W26971  16.018   4.865  11.264 -0.2247  0.0977  0.1711
 6692W        W26972   2.787  16.779  10.190  0.0653  0.1054  0.3029
 6693W        W26973   3.390  16.482   2.582 -0.0585  0.2641 -0.0542
 6694W        W26974   6.379   7.194   0.438  0.1334  0.0169  0.0439
 6695W        W26975   8.372  11.784   3.461  0.0637 -0.1705  0.0320
 6696W        W26976  14.089  14.920   1.754 -0.0823 -0.0642 -0.0631
 6697W        W26977  14.692  16.262  11.992 -0.1039  0.2321 -0.0971
 6698W        W26978   0.215   5.408   0.143 -0.0608  0.2286  0.2991
 6699W        W26979   3.529  10.539  13.016 -0.0045  0.0703  0.0414
 6700W        W26980   8.939  18.232   1.976 -0.1980 -0.1696 -0.0237
 6701W        W26981  13.123  17.267  13.547 -0.2855 -0.0512  0.3331
 6702W        W26982   4.659   4.871  12.744  0.0392  0.2154  0.0314
 6703W        W26983   8.150  18.607  11.037  0.0671 -0.0638 -0.1024
 6704W        W26984   1.819   1.420  11.746 -0.2205 -0.0672 -0.3585
 6705W        W26985  16.068   9.739  12.556 -0.4129 -0.1822  0.0352
 6706W        W26986   5.163   9.404   2.687 -0.2349 -0.2535 -0.1363
 6707W        W26987  19.598   4.191   2.512 -0.1370 -0.1372  0.1254
 6708W        W26988   6.223   9.675  11.462 -0.0599  0.2121 -0.4522
 6709W        W26989   8.868   7.515  10.718 -0.1477 -0.1957 -0.0322
 6710W        W26990   1.487   8.661  12.021  0.1719  0.0315 -0.2076
 6711W        W26991   3.614   4.565   2.537 -0.0141 -0.1643  0.1691
 6712W        W26992   2.184   8.762  11.229 -0.1641  0.1429  0.3582
 6713W        W26993   2.036  16.099   4.991  0.0122 -0.2648  0.1743
 6714W        W26994   8.324   9.709   3.095  0.2212 -0.1318 -0.2582
 6715W        W26995  13.442  18.900   0.726 -0.1396  0.1550 -0.0290
 6716W        W26996   1.579  14.978   1.950 -0.2753  0.1868  0.1136
 6717W        W26997  19.070   1.405  13.820  0.0321 -0.1517  0.0506
 6718W        W26998   1.691  18.643   2.801  0.1353 -0.0092  0.1105
 6719W        W26999   8.782  10.098   0.836 -0.1091  0.0281  0.0117
 6720W        W27000   3.460  12.126   1.897  0.1967  0.0802 -0.4995
 6721W        W27001  14.303  11.772  10.627 -0.0974  0.0439  0.0051
 6722W        W27002   4.036   5.111   0.354 -0.3628 -0.3376  0.1004
 6723W        W27003  16.151  16.198   0.558 -0.0830  0.0170  0.2891
 6724W        W27004   4.231   9.582  14.096  0.1167 -0.2338  0.0866
 6725W        W27005   0.496  13.835   3.412 -0.0832  0.2361 -0.0999
 6726W        W27006  13.251   9.041   2.537  0.1537 -0.1712  0.3145
 6727W        W27007   7.188  11.503  13.816  0.0019 -0.2435  0.0123
 6728W        W27008  13.146  11.266   1.058  0.0749  0.1062  0.1212
 6729W        W27009   9.445  11.506   1.698 -0.1803 -0.0092  0.0790
 6730W        W27010  12.136   9.404  13.259  0.1363  0.1152  0.2231
 6731W        W27011  17.453  12.303   0.431  0.4008  0.1510 -0.1522
 6732W        W27012   2.816  12.029   1.728 -0.0682 -0.1188  0.1101
 6733W        W27013   2.577  15.599  10.526  0.1815 -0.0992  0.1016
 6734W        W27014  18.890   3.623  11.513 -0.0041  0.0669 -0.0922
 6735W        W27015   7.115  14.564   5.032 -0.2231  0.0769  0.0588
 6736W        W27016   9.257  15.602  13.818  0.3990  0.2596 -0.1878
 6737W        W27017  16.234  15.517   1.358  0.0328 -0.0870  0.0000
 6738W        W27018   8.170   2.082   0.862 -0.4849  0.0420 -0.3124
 6739W        W27019   1.679   7.180  11.628  0.2462  0.1532  0.1735
 6740W        W27020   1.985  16.325  11.398 -0.1104 -0.1201 -0.1256
 6741W        W27021   8.226  12.831   2.571  0.0357 -0.0745 -0.0620
 6742W        W27022   5.693   3.252   2.858 -0.0368 -0.1120 -0.4276
 6743W        W27023   6.355  12.922   0.499  0.0285  0.1766  0.0237
 6744W        W27024   5.317   4.764   2.145 -0.2326 -0.0120  0.3099
 6745W        W27025  13.183  13.498  12.843  0.2134  0.0364 -0.1798
 6746W        W27026   5.450  11.772  11.687 -0.1009 -0.2490  0.0110
 6747W        W27027   6.434   7.354  12.284  0.3275 -0.2643 -0.1786
 6748W        W27028  14.051  16.586   1.492 -0.0231 -0.1652 -0.0171
 6749W        W27029  16.898  16.081  13.775 -0.1452  0.0796 -0.2954
 6750W        W27030   4.098   5.453   3.679  0.2654 -0.1479 -0.1032
 6751W        W27031   1.941   5.523   3.242  0.0686  0.3157 -0.0471
 6752W        W27032  12.392   1.125   3.097 -0.1376 -0.1574  0.0457
 6753W        W27033  11.051   5.782  11.961  0.0159  0.0908  0.1268
 6754W        W27034   7.146   7.751   1.694  0.1101 -0.0396 -0.0620
 6755W        W27035   1.154   1.301   0.110 -0.0907  0.1388 -0.0507
 6756W        W27036  13.243  16.957  11.005 -0.1108 -0.0619  0.1482
 6757W        W27037  12.692   9.980   0.997  0.0080  0.2816 -0.0154
 6758W        W27038   4.794   2.175  10.440  0.0662  0.0964  0.2447
 6759W        W27039  18.499  11.539  11.345  0.1408  0.2888 -0.2180
 6760W        W27040   0.805   6.480   0.871 -0.1755  0.0040  0.0696
 6761W        W27041   3.437   9.342  10.831 -0.1706 -0.2065 -0.1429
 6762W        W27042  15.178  17.290   1.342 -0.1870 -0.2352 -0.0162
 6763W        W27043  17.101   9.571  10.070  0.0719  0.0883 -0.2319
 6764W        W27044   7.655  18.415  11.263  0.3493 -0.3990 -0.1505
 6765W        W27045   7.671   7.742  12.625  0.1264  0.1598 -0.3356
 6766W        W27046  17.349  17.435   0.021 -0.0967 -0.3316  0.1273
 6767W        W27047   2.177   7.271   3.375  0.3552 -0.1676 -0.0670
 6768W        W27048   5.974   3.167  12.094  0.0951  0.0984  0.1019
 6769W        W27049   3.068  18.565   3.428 -0.0013  0.0883  0.0482
 6770W        W27050   2.249  16.522  13.230  0.2592 -0.2117 -0.1007
 6771W        W27051  17.615   3.291   3.018 -0.2249  0.0675 -0.1796
 6772W        W27052  11.600   4.775   1.032  0.1866  0.1707 -0.2007
 6773W        W27053  17.617  14.352  12.619  0.2158 -0.0873  0.3012
 6774W        W27054  10.444   5.972  10.184  0.0174  0.1127  0.1447
 6775W        W27055  18.256   5.672   2.550 -0.0507 -0.1556 -0.4052
 6776W        W27056   7.137   9.991  13.919 -0.1188 -0.0373 -0.1151
 6777W        W27057   6.792   4.050  10.315  0.0825  0.1423 -0.2589
 6778W        W27058  11.037  13.881   3.398 -0.1922  0.2494 -0.0800
 6779W        W27059   0.553   1.712   1.990  0.0786  0.1810 -0.2780
 6780W        W27060   8.788  11.816  10.860  0.1964  0.1192  0.3085
 6781W        W27061  12.968   8.313   2.863 -0.0801 -0.0718  0.2090
 6782W        W27062   1.350   4.651   0.346 -0.3036  0.0725  0.1112
 6783W        W27063   8.703   9.031  13.858  0.0905  0.2270  0.1209
 6784W        W27064   7.559  10.880  10.643 -0.2250 -0.6104 -0.3466
 6785W        W27065  19.640  12.059   3.215 -0.0877 -0.1122  0.0312
 6786W        W27066  11.916   2.141  11.105  0.1249  0.4037 -0.1087
 6787W        W27067   1.271   2.646  10.059 -0.0880 -0.2329  0.3376
 6788W        W27068   9.833   9.435  12.510  0.0181 -0.0085  0.2029
 6789W        W27069   1.216   6.940   1.948 -0.2420  0.1046 -0.3014
 6790W        W27070   2.796  15.943  11.522 -0.1343  0.0212 -0.2321
 6791W        W27071   1.580   7.197  12.966 -0.1910 -0.3059  0.0380
 6792W        W27072  11.510   1.507   2.499 -0.0188 -0.0324  0.1371
 6793W        W27073   9.318   0.693   2.273 -0.0795 -0.1901  0.1764
 6794W        W27074  14.862  10.782  10.839 -0.0363 -0.1083  0.1013
 6795W        W27075   5.569   7.993  12.244  0.1663  0.2681 -0.1370
 6796W        W27076  13.791   1.794  10.288  0.1194  0.1561 -0.1476
 6797W        W27077   0.864   6.313   0.178 -0.2814 -0.2710 -0.0061
 6798W        W27078  16.045   7.254   0.888  0.0380  0.1571  0.3120
 6799W        W27079  15.043   9.816  10.875 -0.2112  0.1385  0.0102
 6800W        W27080  19.120  17.204   9.887  0.0099 -0.1775 -0.0280
 6801W        W27081   2.794  16.383   0.574  0.2686 -0.1176 -0.0497
 6802W        W27082  10.974  10.517  13.679  0.0834 -0.2009  0.0611
 6803W        W27083   5.587  16.019  13.302 -0.0510  0.1678 -0.1718
 6804W        W27084   4.849  11.043   1.605 -0.0980  0.1226 -0.0315
 6805W        W27085   1.409   6.603   2.399 -0.1355 -0.0502  0.2638
 6806W        W27086  19.238   7.222   2.326 -0.2026 -0.1836 -0.1533
 6807W        W27087  18.703   3.319   2.402  0.3536  0.3041 -0.1077
 6808W        W27088   1.001   7.822   0.403  0.0319 -0.0439 -0.1030
 6809W        W27089  18.401   3.585  11.706  0.1390  0.1838 -0.0673
 6810W        W27090   5.503   9.533   0.285 -0.1644 -0.4060 -0.0104
 6811W        W27091  10.254  15.435  10.200 -0.0051  0.3082  0.3128
 6812W        W27092   5.131  15.076  13.860 -0.1442 -0.1554  0.5284
 6813W        W27093   3.111   3.035  10.034 -0.1792  0.0207 -0.0478
 6814W        W27094   0.135  18.688   0.799 -0.2802  0.2164  0.3240
 6815W        W27095   9.346  15.444   4.262 -0.2030  0.0062  0.2430
 6816W        W27096  14.040  14.137   3.913  0.3048 -0.0672 -0.1241
 6817W        W27097   4.632  14.137  12.901  0.2708  0.1203 -0.1585
 6818W        W27098  16.772   8.065  13.487 -0.1883 -0.1031  0.2323
 6819W        W27099  16.384   7.467   1.383 -0.3661 -0.5806 -0.1143
 6820W        W27100  17.920  16.266   2.781  0.1430  0.1076  0.1601
 6821W        W27101  13.319  15.551   2.003  0.1474 -0.3133  0.1097
 6822W        W27102  18.248   3.006   0.589  0.2375  0.0657 -0.1593
 6823W        W27103   5.025   9.748   1.370  0.0516  0.0042 -0.0096
 6824W        W27104   2.402   5.983   1.008 -0.0097 -0.3765  0.0684
 6825W        W27105  14.023   7.049  11.695  0.1801 -0.0859 -0.0701
 6826W        W27106  11.030  15.754   2.427  0.0730 -0.0181  0.1120
 6827W        W27107   5.491  18.646   2.446  0.2669  0.0109  0.1873
 6828W        W27108  14.809  18.591  11.687 -0.0285  0.2048  0.0095
 6829W        W27109  11.243   5.032  10.734  0.1548 -0.1108  0.2608
 6830W        W27110  16.690   5.759   3.233  0.0802  0.3583 -0.3285
 6831W        W27111   2.062   1.584   0.011 -0.2999  0.0506 -0.2671
 6832W        W27112   3.229   7.156   0.094  0.0250 -0.1770  0.0660
 6833W        W27113  18.011   8.962  12.588  0.0073 -0.2593  0.1283
 6834W        W27114   8.086  14.047   3.705  0.0460 -0.1874  0.2860
 6835W        W27115  18.892  12.076   0.932  0.3461 -0.0262 -0.0290
 6836W        W27116   0.060   3.789   2.766 -0.0397  0.0930  0.0190
 6837W        W27117  18.677  15.549   0.938 -0.1946  0.1860 -0.1770
 6838W        W27118  10.908   4.869  13.837  0.1337 -0.0799  0.3411
 6839W        W27119   5.647  16.583   1.700 -0.0726  0.2028  0.1536
 6840W        W27120  17.048  10.290  11.195  0.1132 -0.0053  0.4315
 6841W        W27121   4.403   2.591  11.175  0.0662  0.0815 -0.2229
 6842W        W27122  17.998   9.397  12.276 -0.2510  0.0457  0.1264
 6843W        W27123  11.159  16.165  10.792 -0.2044  0.3342  0.1458
 6844W        W27124  11.592   3.336  13.427 -0.3034  0.1911 -0.0414
 6845W        W27125  16.483  12.622  11.077 -0.0819  0.0201 -0.0259
 6846W        W27126  16.063   2.416   9.670 -0.2106 -0.2664  0.0651
 6847W        W27127   6.314  19.108   1.940  0.2107 -0.1903  0.0342
 6848W        W27128   4.711   0.322  12.968 -0.0630 -0.0585 -0.0786
 6849W        W27129  13.714   7.110   2.432  0.0054 -0.1910  0.1781
 6850W        W27130   5.400   1.475   1.218 -0.1005 -0.0409 -0.0592
 6851W        W27131   3.663  18.599   2.586  0.1542 -0.1024  0.3161
 6852W        W27132   3.589  14.715   9.208 -0.0091 -0.0077 -0.0012
 6853W        W27133  13.930  18.928   2.669  0.2546 -0.1256 -0.0592
 6854W        W27134   9.632   0.382  10.996 -0.1312  0.2233 -0.2041
 6855W        W27135  11.949   7.137   1.105 -0.0041 -0.2028  0.3021
 6856W        W27136  16.237   9.834   1.342 -0.0309 -0.0420  0.1452
 6857W        W27137   1.658  17.599   3.242 -0.1419 -0.0163 -0.0016
 6858W        W27138  10.909   6.815  10.615 -0.0284  0.1214 -0.0180
 6859W        W27139   2.261   2.454   3.054  0.0978  0.5391 -0.0502
 6860W        W27140   3.822  14.617   0.818  0.2682 -0.1514  0.2014
 6861W        W27141  17.706   0.888  13.645  0.0578 -0.1595 -0.1221
 6862W        W27142  19.363   7.641  13.649  0.4358 -0.0301 -0.0653
 6863W        W27143   4.038  17.306   1.679  0.0149  0.2167  0.1467
 6864W        W27144   1.357  17.565  11.127  0.2803 -0.1299  0.0707
 6865W        W27145   2.662  12.416   3.108  0.1831  0.3065  0.4050
 6866W        W27146  12.797  18.255   2.453 -0.2110  0.4145  0.0868
 6867W        W27147  14.476  15.720  10.395  0.0872  0.4154 -0.1047
 6868W        W27148   7.578  14.014   3.963 -0.0590 -0.1012  0.0385
 6869W        W27149  12.681   0.378  10.638 -0.1139  0.2202  0.0528
 6870W        W27150   1.255   6.669   0.710 -0.1739 -0.2774  0.1737
 6871W        W27151   5.649  13.326  10.838  0.3067  0.0422  0.4573
 6872W        W27152  15.336  18.631   3.723  0.4121 -0.0044  0.0212
 6873W        W27153  16.882   2.773   0.934 -0.0220 -0.2815 -0.1429
 6874W        W27154   2.224  18.877  13.196 -0.0079  0.1938  0.0449
 6875W        W27155   4.282  17.359   2.751  0.1458  0.3712  0.2589
 6876W        W27156  13.266   0.913   2.217 -0.1742 -0.0565  0.1138
 6877W        W27157   3.933   3.994  13.382  0.0844 -0.1882 -0.1836
 6878W        W27158  19.777  17.309   2.656  0.0791 -0.0784 -0.1425
 6879W        W27159  15.344  10.752   3.701 -0.1804  0.0274  0.0004
 6880W        W27160   6.873   2.326  13.167 -0.3567  0.1360 -0.2271
 6881W        W27161   3.876  14.176  12.438 -0.1790  0.0554 -0.0227
 6882W        W27162  19.742   2.512  14.032  0.1913  0.2020 -0.0181
 6883W        W27163  18.741   2.833   3.261 -0.1266 -0.0759  0.2459
 6884W        W27164  19.058  18.713  10.027  0.1628  0.1098 -0.1007
 6885W        W27165   9.057   3.543  11.100  0.1052  0.2205 -0.1228
 6886W        W27166   0.601  11.343   2.804  0.2197 -0.0781 -0.3911
 6887W        W27167   8.993  19.241  12.974  0.0934 -0.0974  0.0628
 6888W        W27168  14.077   1.909  13.894 -0.1231  0.0714  0.0159
 6889W        W27169   9.015   7.460   3.596 -0.0470  0.1113 -0.2430
 6890W        W27170  12.614  10.736  13.554  0.0729  0.0693 -0.0297
 6891W        W27171   7.072   0.146   3.628 -0.2164 -0.0898 -0.0648
 6892W        W27172   9.427   2.835  11.505  0.0546  0.3726 -0.3634
 6893W        W27173  14.680   3.774  13.470  0.2490  0.2060 -0.1292
 6894W        W27174   9.542   5.328  12.125 -0.1126  0.1200 -0.0556
 6895W        W27175   8.852  17.805  11.490  0.0943 -0.0772  0.1456
 6896W        W27176  18.752  14.445  12.197  0.1669  0.2720  0.1100
 6897W        W27177  12.023  18.683   0.005  0.0158 -0.2014 -0.4205
 6898W        W27178  16.531   6.475  13.959  0.2586 -0.1973 -0.0116
 6899W        W27179  18.361  16.718   3.518  0.3326  0.1826  0.2175
 6900W        W27180   1.148  17.323  12.470  0.0028  0.0366  0.0505
 6901W        W27181  17.643   6.114   3.077  0.1525  0.0187  0.3610
 6902W        W27182  11.478  19.620   9.524  0.1444  0.0636  0.2080
 6903W        W27183   7.484   0.839   0.082  0.0682  0.1398 -0.0364
 6904W        W27184  11.498   9.631  13.258  0.0291  0.0510  0.0441
 6905W        W27185   8.782   9.302  12.629 -0.1847  0.0743 -0.1404
 6906W        W27186   3.694  12.501  11.481 -0.1901 -0.1730 -0.1656
 6907W        W27187  18.731   6.672   1.754  0.1417  0.2896 -0.0248
 6908W        W27188  13.420  18.743  13.998  0.3407 -0.0886 -0.2464
 6909W        W27189  12.577  17.770   1.821  0.0793  0.0115 -0.0159
 6910W        W27190   7.038   9.870   1.952  0.1624 -0.3679 -0.2268
 6911W        W27191   3.616   0.395   3.841 -0.0638 -0.2791 -0.1771
 6912W        W27192   8.431   9.976  12.581  0.2825  0.0298 -0.0794
 6913W        W27193   5.186   3.812  10.440 -0.0138  0.3880  0.0011
 6914W        W27194   9.807   0.564  12.839 -0.1641  0.0486 -0.2831
 6915W        W27195   3.546  10.546  11.641 -0.0934  0.0111  0.0279
 6916W        W27196  11.268  14.794   1.640 -0.0324 -0.1609 -0.2284
 6917W        W27197  18.909  11.826   3.687  0.0069  0.1271 -0.0311
 6918W        W27198   1.932   9.453   0.143  0.2425  0.0587 -0.1393
 6919W        W27199  14.170  19.289   2.970  0.0062  0.1443 -0.2985
 6920W        W27200   7.428  19.471  13.114 -0.1998 -0.1470  0.3457
 6921W        W27201  14.836  15.839   0.369 -0.1913  0.1075  0.0557
 6922W        W27202  10.673  14.673  11.240  0.0177  0.0938 -0.2919
 6923W        W27203   7.648   1.875  12.150  0.0784 -0.1254  0.1101
 6924W        W27204   5.978  10.255  11.575 -0.2129 -0.0900 -0.3386
 6925W        W27205  17.500  15.234   3.744 -0.0339 -0.1052  0.1603
 6926W        W27206   5.660   1.884   3.143  0.3327 -0.0338  0.0719
 6927W        W27207  14.959   0.877   2.092 -0.1913  0.0612  0.1016
 6928W        W27208  18.753  12.279   3.943 -0.2539  0.1704 -0.3658
 6929W        W27209   5.445  14.213   3.607 -0.1433  0.0548  0.0634
 6930W        W27210  14.812   2.750  10.795  0.0487 -0.2307  0.3331
 6931W        W27211  19.583   2.260  12.754  0.1338  0.1743  0.0167
 6932W        W27212   5.507  13.513   0.551  0.2726 -0.1085 -0.1655
 6933W        W27213   4.275  12.350   2.298  0.2344 -0.2603  0.0047
 6934W        W27214   7.849   9.128   3.623  0.0782  0.0234  0.1960
 6935W        W27215  11.870   0.635  12.009  0.0239  0.0577 -0.0874
 6936W        W27216   4.755  17.755  11.586  0.0126  0.4551 -0.2808
 6937W        W27217   9.679  13.055  11.829  0.1472 -0.2023  0.0158
 6938W        W27218   6.753   4.224   1.526  0.0467 -0.0769  0.2125
 6939W        W27219  17.498  19.150   2.789  0.1236  0.0058  0.0506
 6940W        W27220  11.007   6.095  13.773 -0.3336  0.1941 -0.0723
 6941W        W27221  10.091  15.903   1.868  0.1421  0.3160 -0.1621
 6942W        W27222   1.744  11.165  10.696  0.1917 -0.2049 -0.2254
 6943W        W27223   9.728  15.502   4.580 -0.0985  0.2953  0.1928
 6944W        W27224   9.559   9.781   0.178 -0.0432 -0.2846 -0.2183
 6945W        W27225   3.741  18.480   8.909  0.0511  0.0707 -0.0431
 6946W        W27226  14.359   4.994   3.345 -0.1443 -0.0948 -0.0020
 6947W        W27227   3.378   6.650   2.346  0.1956 -0.0881  0.1998
 6948W        W27228  12.416   3.336   3.126 -0.2318 -0.3326 -0.0140
 6949W        W27229  14.684   9.470   2.126  0.2639 -0.1237 -0.0221
 6950W        W27230  13.037  14.031   2.008 -0.2111 -0.0069  0.1678
 6951W        W27231  19.641  11.532   9.950  0.1204  0.0620  0.4298
 6952W        W27232   8.637  15.561   2.872 -0.1296 -0.2862  0.0178
 6953W        W27233   6.100  18.681  13.942  0.1078 -0.0784  0.2192
 6954W        W27234   0.041   7.476   1.416 -0.0623  0.1181  0.1037
 6955W        W27235  13.296  17.789   0.986  0.1910  0.0119 -0.1617
 6956W        W27236  17.483  19.582   2.216 -0.1598  0.1888  0.3336
 6957W        W27237   7.121   7.469  11.861 -0.1856 -0.1663 -0.0540
 6958W        W27238   8.524   0.315   2.168 -0.0371  0.0945 -0.1115
 6959W        W27239  15.287  14.156  11.265 -0.0232  0.0069  0.0872
 6960W        W27240   3.777  19.207   3.026 -0.0024  0.0217 -0.2362
 6961W        W27241  11.814  10.906  11.955 -0.0122  0.0545 -0.2337
 6962W        W27242   8.077   1.010  13.286 -0.0898  0.1600  0.0426
 6963W        W27243  14.701   9.908  11.861 -0.4293  0.1490 -0.1243
 6964W        W27244   9.274   3.909  12.219 -0.2212 -0.0543  0.2637
 6965W        W27245   2.207   9.264   1.845  0.0554 -0.4175  0.0080
 6966W        W27246  13.240  15.431   1.088  0.0787 -0.0489  0.3496
 6967W        W27247   7.994   4.813   0.834 -0.2093  0.0817  0.0881
 6968W        W27248   2.092   0.395   3.233  0.0351 -0.2632  0.0756
 6969W        W27249  13.437   0.935  13.170  0.0451 -0.0672 -0.1416
 6970W        W27250  18.508  16.407  11.580  0.0290 -0.1236 -0.1926
 6971W        W27251   1.675  12.572   1.216 -0.0886 -0.0218  0.0022
 6972W        W27252   4.355   3.080  13.029  0.0935 -0.0931  0.1208
 6973W        W27253  12.998   3.681  11.343  0.1958 -0.0249  0.0265
 6974W        W27254   5.652   8.488   1.418  0.1292 -0.0117 -0.1482
 6975W        W27255   1.700   5.823   2.902 -0.1509 -0.0410 -0.1407
 6976W        W27256   8.240   6.991   0.748  0.3887 -0.0022  0.2607
 6977W        W27257  17.663   9.246   3.374 -0.0285  0.1572 -0.0125
 6978W        W27258   8.858  14.652   0.249 -0.0185  0.0466  0.0487
 6979W        W27259  16.642   7.041  13.676  0.1468  0.1291 -0.1880
 6980W        W27260   8.694  11.737   3.865 -0.1545 -0.0719  0.1590
 6981W        W27261   2.854  18.921   9.338 -0.1628 -0.0825  0.0574
 6982W        W27262   7.374   7.438   1.011 -0.1530 -0.0306  0.2051
 6983W        W27263   2.032  15.076  13.930  0.2304  0.0714  0.3048
 6984W        W27264   9.842   6.298   3.709 -0.2352 -0.2010  0.1291
 6985W        W27265  16.647  17.067  12.057 -0.0355  0.0928 -0.1413
 6986W        W27266  12.403   9.114  11.224  0.0525 -0.2050 -0.0140
 6987W        W27267  10.190   0.111   0.484  0.2411 -0.2600 -0.1021
 6988W        W27268  18.213  12.100   0.401 -0.0620 -0.1584  0.0132
 6989W        W27269   8.506   8.745   1.767 -0.0533 -0.1379  0.0224
 6990W        W27270   0.841   3.111  12.955  0.0297 -0.2786  0.0042
 6991W        W27271  16.073   8.132   0.746 -0.1891  0.0287  0.0471
 6992W        W27272  10.384  13.263   4.260  0.0376  0.0035  0.0956
 6993W        W27273   8.026   8.620   9.778 -0.0245 -0.0348 -0.2267
 6994W        W27274  18.081  17.422   1.395 -0.1929  0.4665 -0.2857
 6995W        W27275  15.042  18.391  10.030 -0.0673  0.0582  0.4028
 6996W        W27276  10.371   4.719  12.565  0.1140  0.2763 -0.1837
 6997W        W27277  15.957  16.337  10.381  0.1720 -0.0821  0.2788
 6998W        W27278  15.128   5.223  12.631 -0.0094  0.1959 -0.2110
 6999W        W27279  14.782   6.463   4.061 -0.3149  0.4734 -0.2422
 7000W        W27280   9.013   8.427  13.760 -0.2234  0.1781  0.1661
 7001W        W27281  11.272   2.376  11.709 -0.0962  0.3443 -0.1639
 7002W        W27282  11.702   2.383   2.217  0.1340  0.1684 -0.0223
 7003W        W27283  12.510   5.993  13.731 -0.1953 -0.0396 -0.0808
 7004W        W27284   9.467   8.121   3.163 -0.1292  0.0742  0.2635
 7005W        W27285  14.367  10.965   3.324 -0.0806  0.0027  0.2185
 7006W        W27286  18.385  11.512   1.495 -0.4094 -0.3039 -0.0029
 7007W        W27287  19.178  11.409  11.144 -0.0295 -0.2220  0.2180
 7008W        W27288   0.030   1.545  12.585  0.1373  0.1391 -0.1322
 7009W        W27289   5.278  13.640   3.605  0.1873 -0.1144  0.0064
 7010W        W27290  18.266  11.957  10.664 -0.3460 -0.0661 -0.2415
 7011W        W27291   1.811   6.738  11.736 -0.1153 -0.1427 -0.0108
 7012W        W27292  14.487  18.208  13.968  0.1686 -0.3051 -0.1674
 7013W        W27293  16.517  12.433  13.760  0.0032  0.1941  0.1608
 7014W        W27294  12.934  12.380   1.196  0.0419  0.0003  0.1816
 7015W        W27295   5.764   2.555   3.337 -0.2774  0.1461  0.0922
 7016W        W27296  15.893  14.119  13.666  0.1684  0.4070  0.1825
 7017W        W27297  17.211  16.601   3.125  0.1301 -0.1320 -0.2443
 7018W        W27298   3.137  13.392  11.741  0.1769 -0.1184  0.2081
 7019W        W27299   4.307  17.560  13.481 -0.0262  0.0282  0.0572
 7020W        W27300   7.595  15.735  11.418  0.2059 -0.2662 -0.0202
 7021W        W27301  15.017   5.485   3.765  0.1930 -0.1132  0.0321
 7022W        W27302  19.092   2.636  13.346  0.1805 -0.2158 -0.1675
 7023W        W27303  16.038   7.065  13.575  0.1596 -0.0209  0.3703
 7024W        W27304   7.264   4.087   0.725  0.0804 -0.4093  0.1297
 7025W        W27305  15.081   6.212  11.248 -0.1007 -0.1924  0.1355
 7026W        W27306   0.111  11.357   2.644 -0.0887 -0.0098 -0.0196
 7027W        W27307   1.813   7.800  10.372  0.0930 -0.1575  0.1214
 7028W        W27308   6.009  13.410   3.925  0.0407 -0.1218  0.1552
 7029W        W27309   3.432   0.440   9.792 -0.1813 -0.0764 -0.1096
 7030W        W27310   8.178   7.133  12.838  0.1619  0.2287 -0.0077
 7031W        W27311   3.582  13.351   1.447 -0.0318 -0.3273  0.1500
 7032W        W27312   2.874   6.144   0.310  0.0500  0.0613 -0.0012
 7033W        W27313   3.761   1.744  12.675  0.1398 -0.2266  0.0769
 7034W        W27314  17.948   7.024   1.191  0.1187 -0.0514  0.2257
 7035W        W27315   5.739   4.220  11.231  0.1767  0.0529 -0.1974
 7036W        W27316  17.676  10.063  11.775 -0.0502  0.1428  0.0871
 7037W        W27317   6.730  17.514   0.405  0.1621 -0.0683  0.0314
 7038W        W27318  15.405   0.383  13.751  0.0647  0.1323  0.1354
 7039W        W27319   4.171   6.883  12.281  0.3438  0.1725 -0.0278
 7040W        W27320   0.015  11.421  13.950  0.0662  0.1950  0.0418
 7041W        W27321   3.926  16.005  10.144  0.0437 -0.0529  0.2420
 7042W        W27322  19.719   6.415   2.820  0.0907  0.3619  0.1959
 7043W        W27323  18.062   7.458  13.820  0.2006 -0.3222  0.0542
 7044W        W27324  19.315  14.126   0.158 -0.0408 -0.2856 -0.0213
 7045W        W27325  14.574  12.217  12.457 -0.0201 -0.0942 -0.0947
 7046W        W27326  16.405   8.826  11.900 -0.2752 -0.0333 -0.0623
 7047W        W27327   9.671  15.914   0.993  0.1593 -0.0045  0.0103
 7048W        W27328   0.891  18.251   1.156 -0.0624 -0.1686  0.0861
 7049W        W27329   9.529  14.225  13.162 -0.2744  0.0434 -0.0500
 7050W        W27330   3.625   2.849  13.808 -0.0503 -0.1321 -0.0438
 7051W        W27331  18.264   9.571   3.507  0.1215  0.1496 -0.0427
 7052W        W27332  15.887  13.357  13.226  0.2648 -0.3245 -0.2143
 7053W        W27333   8.430   2.662  12.450 -0.1257  0.0606  0.0476
 7054W        W27334   3.721  16.698  12.702  0.2608  0.2451 -0.1258
 7055W        W27335  15.354  14.578  10.967 -0.1529  0.0718  0.0356
 7056W        W27336   6.067  10.449  14.001 -0.0991  0.0238  0.2989
 7057W        W27337   9.826   7.593  13.556 -0.0076 -0.2425  0.3352
 7058W        W27338   6.063   8.405   2.407  0.1975 -0.1239  0.3310
 7059W        W27339   4.745   4.349   3.444  0.2480  0.1263 -0.1662
 7060W        W27340  18.800  19.607   0.473  0.0374  0.1907  0.1165
 7061W        W27341  12.319  18.698   0.473  0.1099 -0.0499  0.0690
 7062W        W27342   1.829  18.118   0.689  0.1130  0.0674 -0.0296
 7063W        W27343  19.724  16.167  12.264 -0.1475 -0.0693  0.3960
 7064W        W27344   5.362  19.370  13.976 -0.2395  0.0831  0.0773
 7065W        W27345  19.616   2.308   1.114 -0.1218  0.0231  0.3308
 7066W        W27346   3.194  14.645  11.092  0.1288  0.2253  0.4143
 7067W        W27347  16.040   1.432  13.528  0.0046 -0.1210  0.0553
 7068W        W27348   0.103  10.455   1.123 -0.0633  0.0207 -0.0517
 7069W        W27349   9.371   3.586   3.666 -0.1841 -0.0349 -0.0908
 7070W        W27350   6.720  15.328   0.325 -0.1191  0.2010 -0.0837
 7071W        W27351   9.670  12.243  13.235  0.0244 -0.0112  0.0889
 7072W        W27352   5.605  10.903   3.849  0.1983  0.1002  0.2522
 7073W        W27353   5.418  10.972  12.162 -0.2895 -0.2025 -0.3487
 7074W        W27354  18.648  13.084  12.466  0.1212  0.0622 -0.3779
 7075W        W27355   5.483   6.605  13.763  0.3261 -0.0554  0.1579
 7076W        W27356   9.696   1.747   9.740 -0.1880 -0.1193  0.1769
 7077W        W27357  12.721   1.197   3.406 -0.3763  0.0382 -0.2008
 7078W        W27358  12.365   1.413  12.267 -0.0776 -0.1387 -0.1592
 7079W        W27359  19.151   4.390  11.499  0.1787  0.3518 -0.2302
 7080W        W27360   0.285   8.181   0.865 -0.0409  0.3092  0.0419
 7081W        W27361   2.757   9.792   2.766 -0.1795  0.0220 -0.4248
 7082W        W27362   8.584  12.002   2.982 -0.2729  0.0538  0.1254
 7083W        W27363  12.851  18.945  12.149  0.2436  0.2548 -0.1806
 7084W        W27364   0.265   4.962   3.523  0.1202  0.0133 -0.0583
 7085W        W27365   6.962   3.049   2.129 -0.0506  0.2961  0.0180
 7086W        W27366  17.549  15.678   2.170 -0.0313 -0.1383 -0.1305
 7087W        W27367  16.699   7.107   1.408  0.1325 -0.2547 -0.1787
 7088W        W27368  10.247  18.679  12.740  0.0826 -0.3079 -0.1473
 7089W        W27369   1.186   3.286   0.930  0.1024  0.1590 -0.1889
 7090W        W27370  11.070  15.254   0.144 -0.0159 -0.0181  0.1322
 7091W        W27371   4.568   6.896  12.546  0.0184 -0.0614  0.0794
 7092W        W27372   8.502  10.470   1.918  0.1794 -0.1728  0.3028
 7093W        W27373   1.348   3.302  11.240 -0.2865  0.0356 -0.1580
 7094W        W27374  12.114   6.729  13.421 -0.1541  0.4031  0.1900
 7095W        W27375   2.837  15.085   0.040 -0.2427  0.2096 -0.1417
 7096W        W27376  13.331   7.465  13.461  0.1449 -0.2486  0.0330
 7097W        W27377   9.697   1.610  10.443  0.0010  0.3695  0.0207
 7098W        W27378  14.892  14.000  12.027 -0.0781 -0.1397  0.0301
 7099W        W27379   4.490  18.948   1.279 -0.2783 -0.0094  0.0276
 7100W        W27380  13.492  19.668   0.255  0.2079 -0.0153 -0.0856
 7101W        W27381  10.899  19.540  12.935  0.2242 -0.2723  0.2294
 7102W        W27382   4.695  15.886  11.413  0.3459  0.1074  0.2383
 7103W        W27383   8.156  11.633  12.746 -0.4961  0.2929 -0.3494
 7104W        W27384   0.685   3.587  13.182 -0.1512  0.0902 -0.1270
 7105W        W27385  16.869  17.140  13.047  0.1142 -0.0232  0.2021
 7106W        W27386   6.528   6.773   3.381  0.2150 -0.2406  0.1814
 7107W        W27387  19.667  14.108  11.860  0.0328  0.3787  0.1101
 7108W        W27388   5.427  12.163  11.338  0.1012 -0.2169  0.1078
 7109W        W27389  19.189  19.508  12.296  0.1609  0.1394  0.2064
 7110W        W27390   1.740  18.628  11.602  0.1145  0.3262  0.0504
 7111W        W27391   5.245  15.159   3.019 -0.2057 -0.1469 -0.2044
 7112W        W27392  16.730   1.616  13.782  0.0306  0.0467  0.2193
 7113W        W27393   1.949  19.579   0.157  0.0455  0.0404 -0.3703
 7114W        W27394   1.709  10.983   3.783  0.2856 -0.1158 -0.2044
 7115W        W27395   6.174   8.181  13.713 -0.1744  0.0048  0.0292
 7116W        W27396  14.849  19.682  12.930  0.1719  0.3688  0.1495
 7117W        W27397   9.082  18.032   2.941 -0.0200 -0.0801  0.4200
 7118W        W27398  14.686   1.598  13.393 -0.1673  0.2286  0.3666
 7119W        W27399   3.482   8.554  11.262  0.0189  0.1057 -0.3058
 7120W        W27400   2.222   6.997   1.470  0.3818 -0.0581  0.1800
 7121W        W27401   3.618   8.334   2.095 -0.1196 -0.0754  0.1557
 7122W        W27402  15.111   8.393   0.879 -0.2566 -0.0370  0.0293
 7123W        W27403  11.377  19.576  14.022 -0.0832 -0.1145 -0.0807
 7124W        W27404  16.539  18.086  12.817 -0.1251  0.2580  0.0403
 7125W        W27405   0.110   8.882  12.204 -0.1178 -0.2427  0.0180
 7126W        W27406  11.176   6.113  10.362 -0.2322  0.1402 -0.0944
 7127W        W27407   5.902   7.693   2.175 -0.1249 -0.3636 -0.3870
 7128W        W27408   6.570   2.362   1.306  0.1985  0.2174 -0.0124
 7129W        W27409  14.707  17.776  11.936 -0.5084  0.2748  0.0352
 7130W        W27410  19.332   0.635  13.270 -0.3223  0.1216  0.0640
 7131W        W27411   5.574   8.885   3.828  0.2599  0.4444  0.0628
 7132W        W27412   9.476   7.031   3.296  0.1817 -0.0886  0.0993
 7133W        W27413   5.541   4.519  11.581  0.0156 -0.0819  0.0331
 7134W        W27414   0.906  12.706   0.766 -0.0486  0.0103 -0.2857
 7135W        W27415   6.579   4.399   3.349 -0.0118  0.1057 -0.4143
 7136W        W27416   7.636   3.074   0.060 -0.2811 -0.0216 -0.0814
 7137W        W27417   6.650   0.845   9.793 -0.2901  0.1677  0.1858
 7138W        W27418   7.323   9.041  10.313 -0.0051 -0.2568 -0.0986
 7139W        W27419   7.306   1.437  12.953 -0.1564 -0.2655 -0.1690
 7140W        W27420  15.624   1.994  11.439 -0.1697  0.0722 -0.1492
 7141W        W27421  10.177  14.621   2.829  0.0098 -0.0105 -0.0964
 7142W        W27422  18.716   1.777  10.597 -0.2375 -0.1200 -0.0092
 7143W        W27423  19.340   3.842   2.666  0.0507 -0.0836 -0.3392
 7144W        W27424  17.525  18.889  12.975 -0.4380 -0.3041 -0.2030
 7145W        W27425  15.789   7.463  13.298  0.4231  0.0564  0.1232
 7146W        W27426   1.405   8.604  10.972 -0.0976  0.0583  0.2266
 7147W        W27427  18.879   6.085   2.805 -0.0701  0.1580 -0.0692
 7148W        W27428  11.572   9.479   0.020 -0.0007  0.0683 -0.4150
 7149W        W27429  14.708  15.539   2.669  0.2068 -0.3276 -0.0682
 7150W        W27430  12.765  17.046   4.429 -0.1950 -0.0593  0.1487
 7151W        W27431  17.191   1.890   0.070 -0.2002 -0.1472 -0.0669
 7152W        W27432   9.723  11.131  14.051 -0.0179  0.4238 -0.3406
 7153W        W27433   0.938   5.954  13.059 -0.0336  0.1222 -0.2875
 7154W        W27434  19.011   3.764   2.254  0.1165 -0.1357  0.0533
 7155W        W27435  19.119  17.748   3.077 -0.0826 -0.2163 -0.0388
 7156W        W27436  17.679   6.917  10.150 -0.4473  0.2439 -0.0526
 7157W        W27437  16.685  13.502   0.797  0.1637  0.0984  0.2439
 7158W        W27438   5.294   3.340  13.281  0.0038  0.0278  0.2608
 7159W        W27439   7.307  18.025   0.111 -0.1283  0.2291 -0.0580
 7160W        W27440   2.332   2.178   0.495 -0.3363  0.1931  0.1101
 7161W        W27441  10.921  16.130   4.030 -0.0332 -0.3285 -0.1554
 7162W        W27442   5.264   8.771   1.077  0.0362 -0.1235  0.0448
 7163W        W27443  15.706   7.962  12.021 -0.0310 -0.0842 -0.0690
 7164W        W27444  10.058   7.681   2.251  0.2759 -0.0247  0.0291
 7165W        W27445   6.854   4.469  12.763  0.0768 -0.1476  0.0026
 7166W        W27446  16.261   2.132  12.381  0.0255  0.1919  0.0097
 7167W        W27447   3.407  10.586   0.294 -0.3581 -0.0694 -0.2103
 7168W        W27448   7.898   4.829   9.291 -0.0737 -0.2301  0.2085
 7169W        W27449   2.652  10.751  13.776 -0.1509  0.2721  0.2487
 7170W        W27450   2.592  14.351  13.605 -0.0352  0.2573  0.0204
 7171W        W27451   7.448  11.984  12.981 -0.3704  0.0870 -0.2509
 7172W        W27452  17.958   0.398   0.097  0.0360 -0.2550 -0.0122
 7173W        W27453  15.048  14.089  10.830 -0.1731  0.0355 -0.1270
 7174W        W27454  12.206  16.099   2.969  0.0348 -0.1829  0.1417
 7175W        W27455  14.639  15.439  14.078  0.1685  0.1232  0.0321
 7176W        W27456   6.679   8.217  11.219 -0.2152 -0.4022  0.0708
 7177W        W27457  12.199  10.933   2.469  0.2974  0.0634 -0.2326
 7178W        W27458  10.554   6.590  12.997  0.1008  0.4292  0.1954
 7179W        W27459   5.414  13.792  10.814  0.0432  0.2293 -0.0354
 7180W        W27460  13.543  13.770   3.306 -0.0509 -0.0216  0.1065
 7181W        W27461   0.407  15.003  12.477 -0.2681 -0.1302 -0.2980
 7182W        W27462  15.426   6.202  12.007  0.0144  0.0929  0.1496
 7183W        W27463   4.889   1.234  11.695  0.2654  0.1192  0.3975
 7184W        W27464   4.181   5.935  12.289  0.3812  0.0280  0.0598
 7185W        W27465   7.881  12.884  12.772  0.2060 -0.1862  0.0877
 7186W        W27466  15.493   8.278   3.201  0.2292  0.0359  0.4052
 7187W        W27467   4.606  15.125   2.194 -0.3021 -0.0427  0.2448
 7188W        W27468  16.847   5.708   1.707 -0.0816  0.3556 -0.0336
 7189W        W27469   1.676   8.744   3.811 -0.1181 -0.0075  0.1658
 7190W        W27470  18.749   9.296  13.528 -0.1209  0.2001 -0.0927
 7191W        W27471  11.314   6.378   1.362 -0.0501 -0.0982  0.0709
 7192W        W27472   1.763   6.794   1.719  0.4757  0.0598  0.0894
 7193W        W27473  14.455  14.349   3.139 -0.0732  0.2090 -0.2386
 7194W        W27474  14.261  13.585   9.526  0.0516  0.2364  0.0619
 7195W        W27475   1.064   7.255   0.405  0.2812  0.0871  0.4266
 7196W        W27476  17.198   9.696  11.703 -0.3324 -0.3244 -0.4291
 7197W        W27477   7.406   9.125  11.850  0.1059 -0.0852 -0.3052
 7198W        W27478  19.658  12.218  12.664 -0.0930  0.2960  0.0318
 7199W        W27479   6.320  17.394   1.577 -0.1288  0.3719  0.2132
 7200W        W27480   5.246  16.648  13.992 -0.1227 -0.0752 -0.0758
 7201W        W27481   9.920  16.266   9.819  0.1604  0.1356 -0.0018
 7202W        W27482  14.424   6.105  13.651  0.3726 -0.0975 -0.1302
 7203W        W27483   5.696  12.470  11.000 -0.3135  0.1023 -0.1105
 7204W        W27484  14.037  17.843  10.220  0.1051 -0.0642  0.1887
 7205W        W27485  12.493   9.394  13.558  0.0401  0.0395 -0.1635
 7206W        W27486  12.298  11.658   3.034  0.1090 -0.1191 -0.3046
 7207W        W27487   7.402  18.234  10.466  0.3341  0.0975 -0.0072
 7208W        W27488  11.890  19.674  11.412  0.4298 -0.1468  0.1078
 7209W        W27489   0.239  10.185  10.056  0.0562  0.1042 -0.2236
 7210W        W27490  19.367   5.139   2.562  0.0686 -0.0496 -0.1387
 7211W        W27491   7.447   9.266  12.555 -0.0655 -0.0212 -0.1790
 7212W        W27492  19.517   7.233   0.868  0.0828 -0.2201  0.1044
 7213W        W27493  17.926   0.085   0.510 -0.0562 -0.2600 -0.1816
 7214W        W27494   7.896  17.485   3.306 -0.0017  0.0503 -0.0214
 7215W        W27495  14.529   8.574   1.409 -0.1638  0.2290 -0.2056
 7216W        W27496   8.102   3.631  10.050  0.0716 -0.0193 -0.3089
 7217W        W27497   1.823   7.393   4.084 -0.1153  0.0198  0.1465
 7218W        W27498   4.882   5.259   1.470  0.3237 -0.0205  0.0373
 7219W        W27499   0.331   9.750   3.473 -0.0203 -0.2284  0.0893
 7220W        W27500  14.231  19.663  12.731  0.0434 -0.0773 -0.0669
 7221W        W27501   4.837   9.819  13.627 -0.0094 -0.3633  0.0303
 7222W        W27502  17.554   1.511  12.169 -0.3233  0.3704  0.3464
 7223W        W27503  17.447   9.938  11.329  0.1345  0.0013 -0.1529
 7224W        W27504  17.072   3.953   2.553 -0.1797 -0.2448  0.1377
 7225W        W27505  16.774  14.353  10.339  0.0032  0.0259 -0.0201
 7226W        W27506  16.419  14.418   1.183  0.2135  0.0799 -0.1765
 7227W        W27507  19.057   3.776   3.664  0.3158 -0.0390  0.0697
 7228W        W27508   9.854   7.689   0.904  0.0786  0.2544  0.0541
 7229W        W27509   6.895  13.204  11.822  0.1242 -0.0734  0.2466
 7230W        W27510   6.841  12.940   2.170 -0.0747  0.2736 -0.0280
 7231W        W27511  18.274  12.263   4.013  0.0930 -0.0370  0.1015
 7232W        W27512   4.333  17.523   2.092  0.0770  0.1338 -0.1807
 7233W        W27513  12.836   2.904  10.661  0.0634  0.0881  0.0775
 7234W        W27514  11.439   5.985  11.677  0.1130  0.2176  0.1022
 7235W        W27515  13.595   9.392   2.694 -0.0339 -0.1245 -0.0480
 7236W        W27516   9.643   7.841  10.990 -0.0806 -0.0038 -0.3374
 7237W        W27517  10.295  17.418   0.124 -0.1122 -0.0217 -0.4508
 7238W        W27518  14.760  12.063   3.362 -0.1123 -0.0357  0.0113
 7239W        W27519   7.346  10.759   2.789  0.1098  0.0078 -0.0349
 7240W        W27520   3.254  12.249  11.291  0.3392 -0.0414 -0.3027
 7241W        W27521   4.942   2.332  13.899 -0.4249 -0.1469 -0.1554
 7242W        W27522   3.539   5.408  11.268 -0.2988  0.2365  0.3713
 7243W        W27523   2.593   9.150  10.363 -0.0273  0.2460 -0.0447
 7244W        W27524   5.237  17.672  12.835  0.1501 -0.0881  0.0939
 7245W        W27525   2.498  18.493  12.969  0.0425 -0.0897  0.0674
 7246W        W27526  10.273   1.901   1.901 -0.1957 -0.0379 -0.0855
 7247W        W27527  16.541  17.053   0.673  0.0588  0.0859  0.4506
 7248W        W27528   6.477  14.692  12.639 -0.2736  0.0219 -0.0119
 7249W        W27529   3.009  13.914   3.981 -0.2933  0.4457  0.2835
 7250W        W27530  12.428   5.216   9.289 -0.1708 -0.3497  0.0070
 7251W        W27531  11.257   1.794   0.744 -0.1468 -0.2500 -0.0249
 7252W        W27532   8.127  16.271   0.730  0.0377 -0.2677  0.0179
 7253W        W27533   2.814  15.311   3.488 -0.1003 -0.3106 -0.2309
 7254W        W27534  18.830   4.573  11.188 -0.0745 -0.2811 -0.1411
 7255W        W27535  10.678  10.296  12.117  0.2801 -0.1208 -0.1303
 7256W        W27536  17.988  16.635  12.864  0.0506  0.0092  0.2931
 7257W        W27537   0.085  12.717  12.852 -0.1033 -0.3122  0.0298
 7258W        W27538   8.451   4.140   1.364 -0.3016  0.1022  0.1075
 7259W        W27539  15.001  18.153  13.957 -0.0614  0.0765  0.0486
 7260W        W27540   1.700   3.088   1.508 -0.0454  0.0673  0.0086
 7261W        W27541   4.322   7.353  12.370  0.0575  0.2998 -0.1183
 7262W        W27542  19.434  12.461  11.791 -0.2083  0.0091  0.0187
 7263W        W27543  18.227  10.996  12.679  0.1388 -0.0835 -0.0022
 7264W        W27544  11.380  15.618   1.294  0.2344 -0.1126 -0.3119
 7265W        W27545   4.741   2.443   3.530  0.0999 -0.0945  0.0706
 7266W        W27546  15.894   0.024   0.618 -0.0837  0.0446 -0.0526
 7267W        W27547  18.384  16.721   0.697  0.1798 -0.0718 -0.1010
 7268W        W27548  14.633   8.597   2.245  0.3123  0.1434 -0.0381
 7269W        W27549   2.469   6.356   0.057  0.1885  0.1315  0.1265
 7270W        W27550  15.865   6.791   1.579  0.1569  0.1606  0.0557
 7271W        W27551   8.529  15.661  10.149  0.0326 -0.0961  0.0762
 7272W        W27552  13.282   5.659  13.545 -0.1274  0.0006  0.0161
 7273W        W27553   9.767  10.550   0.642  0.2589  0.0105  0.0779
 7274W        W27554  15.257   4.363  11.693 -0.0577  0.0697 -0.2142
 7275W        W27555   8.842  17.329   0.821 -0.1103 -0.0050 -0.1455
 7276W        W27556  13.594  16.329   9.357 -0.2189  0.4108 -0.2275
 7277W        W27557  10.781  19.045   2.824 -0.0581  0.1492 -0.2767
 7278W        W27558   6.743  11.734  14.083 -0.3247  0.1412 -0.0170
 7279W        W27559  12.050  12.832  11.346 -0.2835  0.5702  0.0230
 7280W        W27560   2.824  10.817   3.709  0.3625 -0.0378  0.1588
 7281W        W27561  19.315   5.742  10.681  0.0906  0.0229  0.2466
 7282W        W27562   9.936  11.562  11.668  0.0959  0.2032  0.1244
 7283W        W27563   0.490  16.029   3.579 -0.2479 -0.0572 -0.0485
 7284W        W27564  18.361   4.690  13.884  0.2635  0.1000  0.2311
 7285W        W27565   9.410   0.129   3.779  0.0643  0.1346 -0.1336
 7286W        W27566  16.107   0.636  13.175 -0.0260 -0.0970  0.1097
 7287W        W27567   3.571   3.642   0.221  0.0573 -0.2487 -0.1750
 7288W        W27568   4.879  15.611   2.989  0.0804  0.1263 -0.0117
 7289W        W27569  11.788   7.681   2.481 -0.1039 -0.0362 -0.1082
 7290W        W27570  15.402   7.835   2.389  0.2266  0.3522  0.0729
 7291W        W27571  19.123   7.846  13.008 -0.0028  0.0662 -0.2308
 7292W        W27572  17.065  17.765  13.568  0.3933 -0.0280  0.0737
 7293W        W27573   1.743  16.830  13.287  0.1292 -0.1276  0.0064
 7294W        W27574  15.195   6.760   3.307  0.0850  0.1187  0.0964
 7295W        W27575  19.443   4.137  11.876  0.0544  0.2105 -0.4313
 7296W        W27576  16.589  15.437   3.831  0.1276  0.0299 -0.0111
 7297W        W27577  10.432  18.168   3.226 -0.1210 -0.1833  0.2969
 7298W        W27578   8.740  12.671   2.930  0.1163  0.1942 -0.1883
 7299W        W27579  15.784  19.251   2.642  0.2082 -0.1879  0.0030
 7300W        W27580   4.202  15.950   1.700  0.0762  0.2781  0.2016
 7301W        W27581   4.024   0.041  13.605 -0.0485  0.1611 -0.0618
 7302W        W27582   3.023  13.259   2.998 -0.1621 -0.1147  0.0912
 7303W        W27583   8.567   2.331   2.016  0.2459  0.2899  0.1517
 7304W        W27584  11.965  14.002   3.712 -0.0115  0.0201  0.2141
 7305W        W27585   3.905   8.248  12.997  0.1335 -0.0453 -0.2523
 7306W        W27586   6.457   5.190   1.383  0.3291 -0.0131 -0.6113
 7307W        W27587   5.699  10.138   2.048  0.0630  0.2565  0.0587
 7308W        W27588  14.475  14.541  14.049 -0.1275  0.2611 -0.1244
 7309W        W27589   1.078  10.636   3.879 -0.2472 -0.2010  0.1056
 7310W        W27590   3.085  19.382  10.145  0.1141 -0.2017  0.1749
 7311W        W27591   3.945  19.584  12.666  0.2471 -0.0364 -0.1818
 7312W        W27592   9.675  14.931  11.438  0.0115 -0.2035 -0.0433
 7313W        W27593  12.146  18.441  11.834  0.1071  0.0962 -0.1632
 7314W        W27594   6.710   2.462   0.472  0.1834  0.3863 -0.0370
 7315W        W27595  17.570   1.383   0.771  0.1101  0.2510  0.1818
 7316W        W27596  12.608   4.214   0.179  0.2266  0.1184 -0.1587
 7317W        W27597  17.002  16.582  12.980  0.2818 -0.0561  0.1032
 7318W        W27598  15.973   4.120  13.055  0.1869 -0.0006  0.2557
 7319W        W27599  15.826  19.096  13.467 -0.0547  0.0949 -0.0295
 7320W        W27600   9.139   4.840   2.821 -0.2733  0.0715 -0.0757
 7321W        W27601  18.917   8.985  12.539  0.0087 -0.2302 -0.1405
 7322W        W27602   8.585  11.787   1.223 -0.0348  0.0360  0.0402
 7323W        W27603   6.494  17.561  11.710  0.2236 -0.1890 -0.0720
 7324W        W27604  11.447  11.578  11.082 -0.4823 -0.1389  0.1428
 7325W        W27605  11.403  19.485   2.508  0.2888  0.0763 -0.1636
 7326W        W27606  10.223   4.482   1.551  0.1657 -0.1086  0.0291
 7327W        W27607  18.405  17.173  11.006 -0.0994 -0.0144 -0.1668
 7328W        W27608   6.547   3.583   3.656 -0.1370  0.1048  0.2392
 7329W        W27609  13.556  13.364  12.048 -0.1139 -0.0639  0.1678
 7330W        W27610   3.948  15.257  13.224 -0.0935 -0.5718  0.0080
 7331W        W27611  14.980  14.770  12.543 -0.0518  0.0541  0.0045
 7332W        W27612  10.387   7.056  13.687  0.1670 -0.2054 -0.1788
 7333W        W27613   2.254  18.244   3.301  0.0076 -0.2979 -0.1113
 7334W        W27614  12.364  15.585   1.765 -0.1992 -0.0772  0.1933
 7335W        W27615  12.432   2.044  11.023  0.1168 -0.0498 -0.3335
 7336W        W27616   2.591   9.190  11.074 -0.2862 -0.1412 -0.0859
 7337W        W27617   4.201   4.391   1.249 -0.4039  0.1431  0.2247
 7338W        W27618  17.437   4.689  10.155  0.0882  0.3830  0.4112
 7339W        W27619   6.276   5.277  13.599  0.2447  0.1844  0.1926
 7340W        W27620  16.786   6.650  12.985  0.2702  0.1364  0.0958
 7341W        W27621  17.481   8.260   9.308  0.3907 -0.0139  0.3386
 7342W        W27622  19.423  13.829  13.366 -0.1125  0.1697 -0.0800
 7343W        W27623   2.485   3.140   0.822 -0.1171 -0.0160  0.1350
 7344W        W27624  11.723   2.223   8.866 -0.0143  0.1527  0.1733
 7345W        W27625   3.903  16.700   4.184 -0.0175  0.0994  0.2474
 7346W        W27626  13.016   8.830   2.913  0.0684 -0.0542 -0.2509
 7347W        W27627   8.266   2.831   2.460  0.0370  0.0524 -0.5321
 7348W        W27628   2.876  10.698  12.534 -0.0001 -0.0185  0.0608
 7349W        W27629  14.878   9.937   3.860 -0.3153 -0.1430  0.0574
 7350W        W27630  17.305  18.906   3.187 -0.0923 -0.0969 -0.1240
 7351W        W27631   3.361  11.593   2.835 -0.0207  0.1484 -0.2201
 7352W        W27632  18.258  13.411   2.138 -0.2671  0.0523 -0.1076
 7353W        W27633  11.238  10.474  10.254 -0.3837  0.2262  0.1940
 7354W        W27634   2.782  12.425  10.603  0.2047 -0.2267 -0.0901
 7355W        W27635   2.984   9.009   2.391  0.1319 -0.1035  0.2626
 7356W        W27636   8.228   5.354  11.785 -0.1152 -0.1672  0.1264
 7357W        W27637  17.883   6.443   3.375 -0.0680  0.0046  0.0356
 7358W        W27638   0.501   3.808   3.407  0.0294 -0.0171 -0.1250
 7359W        W27639   5.457  13.681  12.433 -0.2037 -0.2473  0.3065
 7360W        W27640  16.044   9.293   2.767 -0.0122  0.1075 -0.1313
 7361W        W27641   2.482  10.487   3.389  0.0307 -0.0976  0.3113
 7362W        W27642   5.140   4.717   3.332  0.0370  0.0421 -0.1621
 7363W        W27643   4.839   3.749   0.608 -0.1491  0.1109  0.0828
 7364W        W27644   8.931  11.020  10.483  0.2072  0.1966 -0.2105
 7365W        W27645  17.180   2.681  12.322  0.0512  0.0596 -0.2445
 7366W        W27646  13.496  17.048  11.928 -0.0674  0.2028  0.0153
 7367W        W27647   7.278  11.442  10.655 -0.0028 -0.0618 -0.0615
 7368W        W27648   3.487   2.964   0.790 -0.3441 -0.0867  0.0123
 7369W        W27649   3.078  17.332   2.152 -0.0941  0.2289  0.2324
 7370W        W27650  19.568  18.079   2.101  0.0108  0.0605  0.0478
 7371W        W27651  12.208  12.666   3.217  0.1177 -0.1979 -0.2277
 7372W        W27652   6.775   0.493  11.697 -0.0414 -0.1871  0.3232
 7373W        W27653  12.330  19.698  11.201 -0.0348  0.1092  0.1179
 7374W        W27654  12.749  15.499   3.230  0.0788  0.1306  0.2548
 7375W        W27655   9.098  15.136  10.761 -0.1018  0.0831  0.1067
 7376W        W27656   3.891  16.595  10.732  0.0152  0.2820 -0.2401
 7377W        W27657  16.093   8.307  10.783  0.1237  0.0421  0.3388
 7378W        W27658  12.369   9.562  12.527 -0.1055 -0.1177  0.3105
 7379W        W27659  10.842  16.267  12.467 -0.2692 -0.2032  0.1167
 7380W        W27660   6.768   8.244  12.809  0.0805  0.1394 -0.1600
 7381W        W27661   6.293   8.071   3.849 -0.5131 -0.2307 -0.2057
 7382W        W27662  18.735   3.323  11.138 -0.1636 -0.0666 -0.1395
 7383W        W27663   9.419  10.259   9.668 -0.2073 -0.2462 -0.2485
 7384W        W27664   2.640  16.269  10.052  0.1167 -0.0162 -0.1042
 7385W        W27665  15.566  15.525  11.687 -0.2076 -0.1636  0.1379
 7386W        W27666   1.093  12.738  13.200  0.2286 -0.2829  0.3109
 7387W        W27667   4.839  17.459   3.604  0.0025  0.0104 -0.1293
 7388W        W27668   1.053  18.215  12.708 -0.2021  0.3020 -0.1955
 7389W        W27669  16.495  10.496   2.370  0.1669  0.2480  0.1368
 7390W        W27670  10.560  15.100   2.079  0.0994 -0.2263  0.1008
 7391W        W27671   1.616  16.538   0.020 -0.2507  0.1916 -0.3187
 7392W        W27672  16.982  18.155  13.947  0.1553  0.1096  0.0372
 7393W        W27673  11.118  10.019  12.131  0.2816 -0.2449  0.2033
 7394W        W27674  16.572  14.838   2.618  0.0347 -0.0022 -0.2091
 7395W        W27675   5.297   8.097  13.533 -0.0169 -0.1303  0.0282
 7396W        W27676   0.158   4.576   4.937 -0.0653  0.1534  0.2314
 7397W        W27677  18.270   8.603   3.122  0.0717  0.0275  0.1361
 7398W        W27678  13.551  14.703   1.752 -0.0249 -0.1450  0.0393
 7399W        W27679  11.396   4.723   3.585 -0.1320 -0.3160  0.0481
 7400W        W27680   6.432  15.246  13.946  0.2786 -0.2555 -0.1608
 7401W        W27681  18.107   6.457  10.815 -0.4472 -0.0870  0.1831
 7402W        W27682   9.191   0.732   2.796  0.2280 -0.2604  0.0341
 7403W        W27683   1.605   9.880  10.849 -0.0990 -0.2833 -0.0597
 7404W        W27684   8.828  16.411  12.168  0.0623 -0.1981  0.1654
 7405W        W27685   7.358   3.060   9.618 -0.1265 -0.2947 -0.5111
 7406W        W27686   6.082  18.143  10.273  0.1826  0.3429  0.4206
 7407W        W27687   9.484  19.545  10.079 -0.0071  0.1831  0.1374
 7408W        W27688  14.195   0.254  12.236 -0.1902 -0.1719 -0.2313
 7409W        W27689   6.359   5.558   1.756  0.3474 -0.0466  0.0700
 7410W        W27690   8.842  12.411  14.021 -0.0984 -0.1640  0.2146
 7411W        W27691  15.300  10.227   0.673  0.0478  0.0832  0.0453
 7412W        W27692  14.877  19.585   2.397 -0.0219  0.2093  0.4492
 7413W        W27693  13.997  16.806   0.970  0.2140  0.0357  0.1682
 7414W        W27694  18.253   9.695  12.701  0.0953  0.0458  0.4485
 7415W        W27695  11.612   0.170  12.426 -0.1291 -0.4076 -0.0428
 7416W        W27696  10.176   8.473   3.241 -0.2683 -0.1140  0.2578
 7417W        W27697  13.664  11.632   3.606  0.0735  0.0194 -0.0663
 7418W        W27698   1.211  10.394   2.180 -0.0901 -0.1319  0.5110
 7419W        W27699  11.064  14.991   2.090  0.0693 -0.0317  0.1226
 7420W        W27700   0.101  15.742   0.468  0.1626  0.3402  0.0863
 7421W        W27701   4.549  12.110   0.739 -0.1950  0.1286 -0.1548
 7422W        W27702   0.160  10.530   2.829 -0.1163  0.1192 -0.1454
 7423W        W27703  12.191   8.728  10.413  0.2342  0.0530 -0.0954
 7424W        W27704  13.725   3.707  10.183  0.0310 -0.1658  0.2053
 7425W        W27705  19.570   7.409  10.291 -0.2501 -0.0838  0.3213
 7426W        W27706  11.186  17.803   3.822 -0.2190  0.4369  0.1021
 7427W        W27707  11.382   4.545   4.074  0.1634  0.0769  0.3083
 7428W        W27708  10.905   9.610   2.793  0.0671 -0.0201 -0.1023
 7429W        W27709   0.599   7.292   1.200  0.2646 -0.1561 -0.2584
 7430W        W27710   0.087   0.988   2.372 -0.1975 -0.0397  0.0849
 7431W        W27711  17.620  17.947   0.611  0.0782  0.1037  0.0188
 7432W        W27712  13.089  11.238   4.157 -0.1133  0.0545  0.1324
 7433W        W27713   7.997   3.556   3.609  0.0299  0.0134  0.2941
 7434W        W27714  14.972   7.177   0.516 -0.2268  0.0803  0.2039
 7435W        W27715   9.878  18.012  10.612 -0.4240 -0.3947 -0.0670
 7436W        W27716   3.060   7.826   2.542 -0.2548 -0.2529 -0.2291
 7437W        W27717   9.774  19.740   0.355 -0.1176 -0.1339  0.0615
 7438W        W27718   7.450  11.443   3.258  0.1299 -0.1217 -0.0133
 7439W        W27719   3.123   0.590   0.195  0.3793 -0.1114 -0.2860
 7440W        W27720   9.711  19.725   1.202 -0.0321 -0.0790  0.0149
 7441W        W27721   9.488   3.575  12.908 -0.2868 -0.3969  0.0630
 7442W        W27722  15.817  14.897  13.864 -0.2046 -0.1919 -0.1370
 7443W        W27723  12.994   9.705   3.897  0.0699 -0.1052  0.0244
 7444W        W27724   4.914   3.224  10.261  0.0007  0.0505 -0.0469
 7445W        W27725  17.930  16.065   0.910  0.0848 -0.0166  0.2081
 7446W        W27726  19.242   1.116  13.051  0.1980 -0.2875  0.0738
 7447W        W27727  16.977  14.298  11.747 -0.1483 -0.0605  0.0735
 7448W        W27728   9.434   6.237   3.020 -0.1202  0.0660 -0.0801
 7449W        W27729   7.566   7.119  10.876  0.2214 -0.0108  0.1822
 7450W        W27730  10.669   0.489  10.644  0.1006  0.0195  0.1372
 7451W        W27731  17.324   3.236  12.357 -0.0978 -0.2202  0.1221
 7452W        W27732   9.280   7.618   4.020 -0.2691  0.1369 -0.0034
 7453W        W27733  14.418  17.193  13.840 -0.0230  0.0026 -0.1378
 7454W        W27734   8.057  10.186  13.794  0.2177  0.0225  0.2694
 7455W        W27735   6.983   4.125   0.282  0.0929  0.2562 -0.0740
 7456W        W27736   2.826  16.970   2.707  0.0391  0.0653  0.1244
 7457W        W27737  12.156   5.733  12.668 -0.2112  0.0286 -0.3832
 7458W        W27738  15.222  11.429   4.328  0.2241  0.1208 -0.0800
 7459W        W27739   6.100   0.945  13.355  0.0510  0.2855  0.0417
 7460W        W27740   0.626   4.205  12.019 -0.0137 -0.1241 -0.0746
 7461W        W27741   4.187  12.913   2.160  0.0390  0.3364 -0.1289
 7462W        W27742   8.022  13.014   5.060 -0.2165  0.0344 -0.1863
 7463W        W27743   9.766  17.488   2.563  0.0491 -0.1129 -0.2854
 7464W        W27744  17.079  16.937   8.576 -0.0905  0.2257  0.1580
 7465W        W27745   0.733   9.737   0.792  0.2245 -0.1035  0.3759
 7466W        W27746   0.120  13.121   2.094 -0.1920 -0.2050 -0.0819
 7467W        W27747  13.882   9.539   0.643  0.1890 -0.0907 -0.1220
 7468W        W27748  15.312   0.392  10.027 -0.2333  0.0745  0.0589
 7469W        W27749   1.197  12.018  11.924 -0.1461 -0.0819  0.0316
 7470W        W27750  12.699   3.214  10.153  0.2204  0.0437 -0.3904
 7471W        W27751   0.242  15.652  13.927 -0.0188  0.0504 -0.2283
 7472W        W27752  12.348  10.118   0.114  0.2146 -0.0656 -0.0739
 7473W        W27753  11.143   2.090   3.713 -0.1674  0.1782  0.2841
 7474W        W27754   4.991  17.517  13.642 -0.1063  0.1905 -0.0229
 7475W        W27755  16.570  19.293  10.619  0.2683  0.1542  0.1614
 7476W        W27756   5.076   3.878   2.452 -0.0468  0.1927  0.0445
 7477W        W27757  10.538  17.010   1.229 -0.6170 -0.0484  0.1342
 7478W        W27758   4.622  10.674   0.084 -0.0333  0.2454  0.2020
 7479W        W27759  11.327  11.106   3.655  0.0836  0.0045 -0.1607
 7480W        W27760  17.978   0.215   1.147  0.1329  0.3810 -0.0169
 7481W        W27761   6.352  17.530  10.673  0.0036 -0.0726  0.0744
 7482W        W27762  10.915   5.588   2.550 -0.1112  0.1037 -0.0705
 7483W        W27763   9.905   6.007   3.263  0.1452 -0.2047 -0.1696
 7484W        W27764  12.946   5.194  13.541 -0.0398  0.1437 -0.2306
 7485W        W27765   7.335   6.339   3.579  0.1167  0.1766 -0.1195
 7486W        W27766  18.570  11.408  12.697  0.0500 -0.3324 -0.1542
 7487W        W27767   4.394   3.875  11.843 -0.2649  0.2447 -0.2633
 7488W        W27768   6.152   4.881   1.733  0.2836 -0.0923  0.0189
 7489W        W27769  12.034  13.683  12.317 -0.0251  0.1942 -0.2545
 7490W        W27770  19.198  13.761   1.378  0.0500  0.1047  0.0459
 7491W        W27771  18.093  15.188   3.443 -0.1799 -0.0123 -0.2554
 7492W        W27772   8.788  13.516   3.513 -0.1204  0.1116 -0.2414
 7493W        W27773   1.764   6.620   0.745  0.0658 -0.3374 -0.1345
 7494W        W27774  15.729   2.008  12.432 -0.1381 -0.1537 -0.1789
 7495W        W27775   6.707   1.323   3.563  0.1032 -0.0559  0.0127
 7496W        W27776  10.293   0.413   0.849  0.0742  0.1460  0.0690
 7497W        W27777  13.404   8.090   9.932  0.0515  0.2386  0.0353
 7498W        W27778  18.986  16.487  10.544  0.0679 -0.3633 -0.1324
 7499W        W27779   3.434  14.159  11.697  0.2630  0.0639  0.1758
 7500W        W27780  14.333  18.699   1.737 -0.1294 -0.3572  0.0284
 7501W        W27781   9.395   7.995   0.098 -0.2555  0.1223  0.1514
 7502W        W27782  13.508   3.080   0.548  0.2244  0.0152 -0.2212
 7503W        W27783   5.145  15.744  13.587 -0.5169  0.1583 -0.1576
 7504W        W27784  12.187  10.084  12.444 -0.2011 -0.1666  0.0054
 7505W        W27785  14.075   2.825  12.898 -0.0948  0.1703 -0.2009
 7506W        W27786   0.896   9.803   4.761 -0.2432  0.0018 -0.0630
 7507W        W27787  18.296   8.468  11.918  0.2366  0.2233  0.3573
 7508W        W27788  16.897   2.160   3.805 -0.1224  0.0822 -0.1312
 7509W        W27789   5.666  15.970   4.094 -0.0969 -0.0332  0.1164
 7510W        W27790   4.528  15.953   1.193 -0.1542 -0.0327 -0.2356
 7511W        W27791  10.997   4.555   3.368  0.1582 -0.3456  0.0725
 7512W        W27792  17.104  13.678  12.432 -0.2898  0.1731 -0.0149
 7513W        W27793  10.234   8.697   2.811  0.0334 -0.3400  0.2832
 7514W        W27794   5.765   5.605  12.173 -0.0670  0.1065 -0.3042
 7515W        W27795  10.710  12.439   0.726  0.0778 -0.3844 -0.2339
 7516W        W27796  14.116   9.231   0.321 -0.2076 -0.1817  0.1674
 7517W        W27797  11.493   1.889   3.360  0.0824 -0.1283 -0.1613
 7518W        W27798  13.221  15.766  13.328 -0.0008  0.0882  0.2462
 7519W        W27799   7.503  14.642   2.228  0.0125 -0.1080  0.0712
 7520W        W27800   3.287  18.722   1.048  0.1441  0.3292 -0.2188
 7521W        W27801  12.372   8.497  13.063  0.1131  0.3687 -0.0457
 7522W        W27802   8.120  10.117   3.362 -0.0864 -0.2040  0.3853
 7523W        W27803  19.704  17.198  10.584 -0.2995  0.1486 -0.0125
 7524W        W27804   4.228   2.077   0.779  0.0720 -0.0477  0.0827
 7525W        W27805   7.476  10.914   3.339  0.1801 -0.0563 -0.0859
 7526W        W27806   5.128  13.388  10.992 -0.1464  0.0956 -0.0195
 7527W        W27807  14.602   9.412   0.309  0.0226  0.0650  0.0720
 7528W        W27808   6.697   8.464  10.793  0.3351 -0.1315 -0.1226
 7529W        W27809  11.690  10.322  11.476  0.2093 -0.0533 -0.0131
 7530W        W27810  10.133  18.352   0.629  0.0835 -0.1136 -0.1327
 7531W        W27811  19.040   2.960  11.267 -0.0589 -0.3452  0.1952
 7532W        W27812   1.216   1.573   3.097 -0.2151  0.2552  0.1758
 7533W        W27813   0.871  16.597  13.289  0.0826  0.3237 -0.1188
 7534W        W27814  18.806   6.988   2.514 -0.0268  0.2379 -0.0957
 7535W        W27815  16.487   3.586  11.781  0.0608  0.0184  0.1437
 7536W        W27816  11.081  10.330  10.746  0.0176 -0.0835 -0.1616
 7537W        W27817   2.498  11.548  11.379  0.0492  0.2336  0.0758
 7538W        W27818  10.483   6.992  11.300  0.0420 -0.0983  0.3398
 7539W        W27819  14.337   3.537   2.211 -0.1259 -0.0025  0.1946
 7540W        W27820  10.142   1.353  13.184 -0.2649  0.2202  0.2388
 7541W        W27821   5.389   4.290   3.466 -0.0180  0.0134 -0.1598
 7542W        W27822   7.001   2.932   2.789  0.2089 -0.0078 -0.7293
 7543W        W27823  18.732  18.626   3.113  0.1015  0.1421  0.0727
 7544W        W27824   6.131  10.351   1.843 -0.0907  0.4835 -0.2987
 7545W        W27825  13.097   1.726  12.683 -0.0052 -0.0486  0.0015
 7546W        W27826  14.776  11.934  10.498  0.0546 -0.0813  0.2566
 7547W        W27827  17.318  19.637   4.106  0.1447  0.4452  0.2651
 7548W        W27828  11.035  11.677  12.394  0.2092 -0.2200  0.0248
 7549W        W27829   6.598  14.210  12.280  0.0674 -0.3405  0.1964
 7550W        W27830  18.881  11.371   1.810  0.0287  0.1464  0.3439
 7551W        W27831   0.269   7.190  11.000 -0.1163  0.2573  0.1368
 7552W        W27832   3.932   2.355   3.222 -0.2749  0.0264 -0.1288
 7553W        W27833  13.979  18.082   9.334 -0.1318  0.0827 -0.0119
 7554W        W27834  11.208   7.326   3.820  0.1566 -0.0657  0.0180
 7555W        W27835   6.086  18.864  11.436  0.0620 -0.1066  0.2683
 7556W        W27836  12.206  11.266   1.001 -0.0415  0.0418 -0.3130
 7557W        W27837   1.131  12.839  11.421  0.4471 -0.3363 -0.0136
 7558W        W27838  11.138   7.116   2.920 -0.3244 -0.1083 -0.0896
 7559W        W27839   7.982  15.293   0.994 -0.3772  0.1599 -0.0495
 7560W        W27840  14.350  16.182  11.674  0.2653 -0.1770 -0.2350
 7561W        W27841   1.810  19.082  12.435  0.1786  0.0811 -0.0339
 7562W        W27842  17.927   6.831   2.393  0.5542 -0.0338 -0.0577
 7563W        W27843  14.770   0.558  10.778 -0.1500 -0.3150  0.1729
 7564W        W27844   4.433   5.139   3.499 -0.2498 -0.2936  0.0388
 7565W        W27845  12.791   9.037   4.970  0.1127 -0.0764 -0.6724
 7566W        W27846  15.649   0.235   2.213  0.1876 -0.0461  0.0403
 7567W        W27847   9.578   4.964   1.756 -0.1230  0.0896 -0.0410
 7568W        W27848  17.764   1.819   1.844  0.0751  0.3573 -0.1218
 7569W        W27849  11.533  10.887  13.039  0.1898 -0.0491  0.2533
 7570W        W27850   4.779   9.515  12.722  0.1357 -0.3221  0.1853
 7571W        W27851   2.533   3.844   3.145 -0.0507 -0.3296 -0.0249
 7572W        W27852  17.903  12.509  11.866 -0.1234  0.0358 -0.0828
 7573W        W27853   7.160   5.498   3.935  0.3993 -0.0323 -0.2298
 7574W        W27854   7.643  10.324   3.697 -0.0920  0.0015  0.0831
 7575W        W27855  19.576  15.961   4.377 -0.1970  0.4027  0.2268
 7576W        W27856  14.614  11.513  11.505 -0.0566 -0.3520  0.0814
 7577W        W27857   0.032   0.377   2.875 -0.0751  0.1021 -0.0082
 7578W        W27858  15.566   6.207  14.077 -0.1165  0.1212 -0.2201
 7579W        W27859   8.318   8.865  10.682 -0.1548  0.1387 -0.1875
 7580W        W27860  15.229  15.878   3.300  0.3924  0.1542  0.2334
 7581W        W27861   8.089  15.797   0.330  0.0310  0.0016 -0.2111
 7582W        W27862  10.924   8.331  12.449  0.2148 -0.0699 -0.3076
 7583W        W27863   8.435   4.014  13.975 -0.0139 -0.0669 -0.1488
 7584W        W27864  14.283   6.802  11.262  0.0915 -0.1170  0.0017
 7585W        W27865  16.552   4.813   0.161  0.0864 -0.1809  0.0791
 7586W        W27866   0.220   8.575  10.733  0.1478  0.0070  0.1863
 7587W        W27867  15.634   9.072  13.767  0.2614  0.0888  0.1746
 7588W        W27868   8.698  17.100   2.835 -0.0420 -0.2946  0.0505
 7589W        W27869  14.751   4.323   1.219 -0.2961 -0.4374  0.3416
 7590W        W27870   8.151   5.371  13.242  0.0943  0.4110 -0.3077
 7591W        W27871   8.083   5.664  11.362 -0.1783 -0.2924  0.1177
 7592W        W27872  15.103   8.864  11.764 -0.0407 -0.0560 -0.1592
 7593W        W27873   7.090   0.925   2.684 -0.0235 -0.2212 -0.1720
 7594W        W27874  11.741  13.133  11.006  0.1035  0.2397 -0.2472
 7595W        W27875   5.179  12.862  12.466 -0.3718  0.1311 -0.1918
 7596W        W27876   9.740  15.504  13.848 -0.1483  0.3017  0.0766
 7597W        W27877  11.487   2.767  10.343  0.1435 -0.1308 -0.0887
 7598W        W27878  14.472  15.261  12.505  0.3392 -0.0404  0.0291
 7599W        W27879   6.387  17.822   3.681 -0.1368  0.0645 -0.1668
 7600W        W27880   2.563  15.066   1.178 -0.0513 -0.1845  0.0912
 7601W        W27881  19.078  13.183   0.439 -0.0283 -0.2874  0.3408
 7602W        W27882   2.224   6.386   3.543 -0.0963 -0.2681 -0.0335
 7603W        W27883  14.822  15.931  13.960  0.1462 -0.2117 -0.1556
 7604W        W27884  18.731  13.416   1.249  0.0046  0.1873  0.1313
 7605W        W27885   4.586  12.692  11.692  0.0379  0.0426  0.1327
 7606W        W27886  11.378   5.711  11.244 -0.0192  0.0241 -0.1636
 7607W        W27887  13.100   0.349  13.473  0.2900  0.0434  0.1552
 7608W        W27888   6.315  10.542  12.401 -0.0625  0.0537 -0.1206
 7609W        W27889   3.966  11.964   1.789 -0.2327  0.3788  0.1314
 7610W        W27890  18.520  15.835  13.394 -0.3162  0.0836  0.2194
 7611W        W27891  14.302   2.167  12.355  0.2436 -0.1457  0.2451
 7612W        W27892   6.098  19.063   2.946  0.2435 -0.1701  0.2140
 7613W        W27893   1.122   0.484   2.680  0.0635 -0.1424  0.0761
 7614W        W27894  19.440  18.229  10.767  0.2739 -0.0647  0.0470
 7615W        W27895  15.678  10.881  10.502 -0.2558 -0.0150  0.2583
 7616W        W27896  14.225   9.854  12.024 -0.0535  0.3461 -0.1321
 7617W        W27897  15.270  15.066  11.025  0.1304 -0.2857  0.1745
 7618W        W27898   4.687   3.634   2.942  0.0381 -0.0342  0.0559
 7619W        W27899  15.626  11.499   0.689 -0.3006  0.1863 -0.1292
 7620W        W27900   9.789   1.068  12.903 -0.1931 -0.0560  0.2060
 7621W        W27901  13.021  10.998  13.704 -0.0623  0.3217 -0.0008
 7622W        W27902  14.838   7.608   0.879  0.2141 -0.2832  0.1242
 7623W        W27903  17.922  12.576  11.379 -0.1297  0.1300  0.2744
 7624W        W27904  17.314   8.700  12.324  0.3188 -0.0977 -0.0542
 7625W        W27905   9.191   0.557  11.276  0.0593 -0.1697 -0.1523
 7626W        W27906  12.100  13.697  10.932  0.2124  0.1241  0.3585
 7627W        W27907  19.165  15.671   3.115 -0.0096 -0.2401 -0.1380
 7628W        W27908   2.924   8.531  12.748 -0.0058  0.1253  0.1954
 7629W        W27909  13.535  15.213  12.647 -0.2245 -0.2726 -0.2122
 7630W        W27910  11.755   4.452  11.442  0.0441  0.0205  0.1156
 7631W        W27911   5.306  17.741   1.706 -0.1956 -0.4200  0.2267
 7632W        W27912   0.100  12.749   9.646  0.0994 -0.1089 -0.0021
 7633W        W27913   0.941   6.704   3.258  0.0687 -0.1564  0.0699
 7634W        W27914   1.650   8.911   1.798 -0.0461 -0.3953  0.1294
 7635W        W27915   7.193   5.781   1.282 -0.0940  0.1220 -0.0006
 7636W        W27916   6.580  19.198   0.798 -0.2391 -0.3388  0.1781
 7637W        W27917  17.257   1.581   3.688 -0.0366 -0.1147  0.2836
 7638W        W27918  12.565   6.847   3.109  0.2235 -0.3056  0.1121
 7639W        W27919   2.179   4.583  11.321 -0.0107 -0.0995 -0.1870
 7640W        W27920  10.532   0.099   2.661  0.0634 -0.3344 -0.0722
 7641W        W27921  12.431   3.267  12.669  0.2696  0.0938  0.1105
 7642W        W27922  13.288  17.593  12.650  0.1052 -0.1509  0.2104
 7643W        W27923  17.826  13.379  13.040  0.2769 -0.1045  0.1792
 7644W        W27924   0.128  12.002   1.268 -0.4188 -0.4962 -0.2640
 7645W        W27925  14.680  10.966   2.072  0.3886  0.4796 -0.3541
 7646W        W27926  16.336  13.046   2.011  0.3580 -0.0742 -0.1167
 7647W        W27927   2.612   6.938   3.506 -0.0880 -0.0671  0.0254
 7648W        W27928   5.085   3.910   1.013 -0.1321 -0.1531 -0.0511
 7649W        W27929   1.023   0.926   0.550  0.2955  0.2563 -0.0321
 7650W        W27930   6.614   2.765   1.958  0.0228  0.1999  0.2016
 7651W        W27931  12.283   0.524  13.974 -0.1848  0.1560 -0.4654
 7652W        W27932   1.958  11.997   0.070 -0.0470  0.2509 -0.1895
 7653W        W27933  17.565   9.715  10.381  0.2562 -0.1138 -0.0219
 7654W        W27934   5.349   8.387  13.131 -0.1160 -0.2685 -0.3177
 7655W        W27935   5.346  19.531  10.883 -0.3325  0.1336  0.3583
 7656W        W27936  12.290   6.227   2.844 -0.1142  0.0399  0.0146
 7657W        W27937   5.936   0.560  13.113 -0.0406 -0.2515 -0.3046
 7658W        W27938   6.337  17.257   3.663  0.0519  0.0966  0.0533
 7659W        W27939  12.131   0.337  12.413 -0.3096  0.0081 -0.2725
 7660W        W27940   9.852   9.356   1.112  0.0811 -0.1880 -0.1361
 7661W        W27941  17.925  17.394   2.364  0.2482 -0.2357 -0.2183
 7662W        W27942   0.859   8.600   4.138 -0.2371 -0.1683 -0.3735
 7663W        W27943   7.069   3.002   0.996  0.2619 -0.2682  0.0149
 7664W        W27944   6.787   7.623   2.963 -0.1558 -0.1801  0.0503
 7665W        W27945   6.232   4.508   0.222 -0.2065 -0.0598 -0.1205
 7666W        W27946  10.424  19.660   1.635 -0.1289 -0.1657  0.0060
 7667W        W27947   6.147   0.634   2.589  0.0785 -0.0190 -0.1362
 7668W        W27948   0.303  15.822   2.114 -0.1781 -0.2751  0.0035
 7669W        W27949  15.179  15.060  12.978 -0.3311 -0.0036  0.0508
 7670W        W27950  10.900   9.220   1.373 -0.0627 -0.1687  0.1888
 7671W        W27951  11.920   3.212   4.418  0.2350 -0.3170 -0.0102
 7672W        W27952  17.195   9.327  12.018 -0.0175  0.2349  0.0672
 7673W        W27953  13.697  17.766  14.014 -0.1533  0.4271 -0.1764
 7674W        W27954  12.613  13.802  10.770  0.2574 -0.2369 -0.1277
 7675W        W27955   8.218  14.726  13.796  0.1004  0.0723 -0.0243
 7676W        W27956  11.855  15.812  11.259  0.0509 -0.1532 -0.2264
 7677W        W27957  15.837  18.407  10.173 -0.2284  0.2299  0.2540
 7678W        W27958   1.789   9.879   0.930 -0.3926  0.3138 -0.2438
 7679W        W27959  16.430   5.613   0.906  0.1819  0.1595 -0.0606
 7680W        W27960  11.692   7.828  11.099 -0.1640  0.1345  0.1575
 7681W        W27961   6.312  16.134  12.815 -0.1311 -0.1317  0.0166
 7682W        W27962  12.407  12.180   2.343 -0.1271 -0.2816  0.0732
 7683W        W27963  18.231   4.410  13.448  0.0402  0.2528 -0.3152
 7684W        W27964  17.686  18.677   2.188 -0.2248 -0.3875  0.0608
 7685W        W27965  12.020  12.700   1.487 -0.0297  0.5040 -0.0666
 7686W        W27966   1.586   6.313   0.329  0.0537 -0.1027  0.1224
 7687W        W27967   4.802  12.521  12.730  0.1385  0.1513  0.1290
 7688W        W27968  14.488  17.466   0.505  0.2066  0.1248  0.3931
 7689W        W27969  15.544  15.674  10.401  0.2890 -0.2183  0.0078
 7690W        W27970   7.144  11.279   1.587 -0.0295  0.1642  0.2393
 7691W        W27971   1.442   8.295   1.625 -0.2634 -0.0336  0.2040
 7692W        W27972  16.373  11.206  10.083 -0.1325  0.2599  0.0542
 7693W        W27973  15.136   1.955  11.201 -0.0604 -0.2432  0.0934
 7694W        W27974   5.443   5.221  11.886  0.2277 -0.2078 -0.0161
 7695W        W27975   8.420  17.925  13.438  0.1255 -0.1370 -0.1868
 7696W        W27976   2.441   2.592   2.000 -0.0369  0.1942  0.1070
 7697W        W27977  14.053   4.718   3.000  0.1893 -0.1866  0.1549
 7698W        W27978  12.077  14.245   1.689 -0.1845 -0.1386  0.1288
 7699W        W27979  17.968   3.302   1.548 -0.3136 -0.0221  0.0006
 7700W        W27980   8.194   8.149   1.022  0.2363 -0.1244 -0.1460
 7701W        W27981   3.843  10.280   4.315  0.1227  0.0230 -0.1694
 7702W        W27982   2.794   4.436   3.847 -0.3238 -0.2256 -0.0938
 7703W        W27983   9.201  17.676  12.509 -0.2046 -0.3587 -0.2226
 7704W        W27984   0.812   5.346  12.067 -0.0834 -0.2598  0.3334
 7705W        W27985  15.598  19.451  10.834 -0.0219  0.1033  0.3998
 7706W        W27986   2.312   1.855   9.973 -0.0667 -0.3384  0.0130
 7707W        W27987   2.380  10.095  10.769  0.1291  0.1217 -0.3590
 7708W        W27988   0.672  14.419   0.480  0.0049 -0.2501 -0.1060
 7709W        W27989   2.893  10.827   3.143 -0.0977 -0.1270 -0.1120
 7710W        W27990   4.564   7.848  11.596  0.1322  0.1217 -0.0544
 7711W        W27991  11.060  17.659  13.815  0.1713 -0.3203 -0.0150
 7712W        W27992  16.211   5.003   3.723 -0.0050  0.0092  0.1505
 7713W        W27993   6.858   0.679   3.707 -0.1240 -0.0033 -0.3019
 7714W        W27994   5.510   4.228   0.814  0.1598 -0.1973  0.1337
 7715W        W27995   7.286   2.123  11.856 -0.0019 -0.1203  0.0177
 7716W        W27996  17.255  15.354  10.837  0.3570  0.1689  0.1609
 7717W        W27997  18.138   9.376  10.971  0.0575 -0.2495  0.2890
 7718W        W27998  16.307  16.883   3.339 -0.1211  0.1029 -0.1663
 7719W        W27999  12.077   1.873   9.889  0.1214 -0.1469 -0.3202
 7720W        W28000   4.370   3.192  10.440  0.0996 -0.2355 -0.0461
 7721W        W28001   5.769   4.170   3.039 -0.0342 -0.1919  0.1592
 7722W        W28002   8.715   6.482   1.046  0.2733  0.2687 -0.0614
 7723W        W28003   8.291  12.664   1.645  0.1112  0.0329  0.1631
 7724W        W28004  13.698  14.579   2.236  0.1299 -0.1743 -0.1460
 7725W        W28005   3.133  10.322  11.361  0.1459  0.0171 -0.0989
 7726W        W28006  13.403  17.879  11.518 -0.2073  0.2577  0.0990
 7727W        W28007   9.030   3.829   1.321 -0.0847 -0.1916 -0.1417
 7728W        W28008   0.424  15.017  11.083 -0.0418  0.1812 -0.2189
 7729W        W28009  12.671  13.088   1.862 -0.1366 -0.0841 -0.1739
 7730W        W28010   5.443   7.104   2.111 -0.0093 -0.0683 -0.2495
 7731W        W28011  11.000   6.230   0.162 -0.2472  0.2903 -0.1920
 7732W        W28012  19.683  15.923  11.833 -0.2445  0.0159  0.0207
 7733W        W28013   6.904  18.699   1.443 -0.1136  0.1371 -0.0681
 7734W        W28014   5.708   1.985  10.502 -0.0925 -0.0386  0.1347
 7735W        W28015   0.778  15.408   2.449  0.1186 -0.0059  0.1472
 7736W        W28016   6.910   8.241  12.273 -0.1858  0.2004 -0.1108
 7737W        W28017  17.943  14.558  11.854 -0.1191 -0.1422 -0.1237
 7738W        W28018  13.475   2.872  13.743  0.1799  0.2860  0.1135
 7739W        W28019  16.135  10.578   3.202 -0.2557 -0.0227 -0.0557
 7740W        W28020   6.399  18.677   2.161  0.1116 -0.1786 -0.0866
 7741W        W28021   8.936  14.763  11.284  0.1464  0.0520  0.1280
 7742W        W28022  19.495  15.625   3.923  0.1023 -0.1866  0.1482
 7743W        W28023   4.398  15.627   0.029 -0.2870 -0.4167 -0.5547
 7744W        W28024  11.520   1.787   8.873  0.0633 -0.1403 -0.0266
 7745W        W28025  16.791  12.129   3.500  0.0196  0.0209  0.0110
 7746W        W28026   9.702  18.688  13.608  0.3089  0.0248 -0.0773
 7747W        W28027  10.973  18.095  13.614 -0.2271  0.0175  0.1062
 7748W        W28028   9.929   1.255   1.248 -0.3475  0.2734  0.2909
 7749W        W28029   2.113  14.942   1.712 -0.2216 -0.0497 -0.1904
 7750W        W28030  17.126   9.274   3.185 -0.1337 -0.0311 -0.0847
 7751W        W28031  12.712   4.924   1.837  0.3653  0.3225 -0.2097
 7752W        W28032  16.951   5.097   0.070  0.0814 -0.4245 -0.2656
 7753W        W28033  12.280  19.526   2.291 -0.0289 -0.1865  0.0541
 7754W        W28034   8.655  11.371   4.935 -0.1426  0.1463  0.1778
 7755W        W28035   0.188  12.421   4.267  0.0507 -0.1300 -0.1147
 7756W        W28036  10.993  11.956   2.597  0.1315  0.1302 -0.3076
 7757W        W28037  18.122  12.084   3.234  0.0027  0.1758  0.1011
 7758W        W28038  10.599   7.226   2.926  0.0387  0.0529 -0.0333
 7759W        W28039  14.886   1.964  13.134 -0.1796  0.0288  0.0783
 7760W        W28040  10.687  15.113  10.977  0.2844  0.0334 -0.1902
 7761W        W28041   4.884  13.982   3.269  0.0892  0.2324 -0.1014
 7762W        W28042   7.517   8.680  13.412 -0.0820  0.3790  0.0824
 7763W        W28043   9.677  12.231  11.422 -0.0426 -0.3769 -0.0252
 7764W        W28044   6.262  17.687  12.155  0.4228  0.0132  0.1390
 7765W        W28045  11.427   4.589   2.655 -0.0134  0.2133 -0.0278
 7766W        W28046  16.797   0.319   2.289 -0.1038 -0.1200  0.0714
 7767W        W28047   5.707  16.888  14.005  0.2936  0.2503  0.1736
 7768W        W28048  15.603   7.557   4.562 -0.2111  0.1119 -0.2245
 7769W        W28049   3.502  14.298   1.978 -0.2419 -0.0825 -0.2554
 7770W        W28050   3.676   6.628   1.878 -0.1004  0.1033  0.2189
 7771W        W28051  13.582   6.024   2.636 -0.2299 -0.3495 -0.0164
 7772W        W28052  13.948   3.268   8.655 -0.0631 -0.2434 -0.0843
 7773W        W28053  18.399   2.099  13.387 -0.1429  0.2242  0.2771
 7774W        W28054  13.425  16.112   1.321 -0.2772  0.0260  0.4661
 7775W        W28055   5.674  13.146   0.897 -0.0283  0.3420 -0.1872
 7776W        W28056  18.743   4.541   0.122 -0.1542 -0.0536 -0.0898
 7777W        W28057  19.022  10.349   3.090 -0.0266 -0.1239 -0.0562
 7778W        W28058   4.032  19.308  13.553  0.1136  0.1962 -0.0560
 7779W        W28059  10.970  10.261   2.700  0.1703 -0.0490  0.0272
 7780W        W28060   3.611   6.926   3.654  0.1317  0.0277  0.2633
 7781W        W28061  17.278   0.800  12.544 -0.0425 -0.2554 -0.0603
 7782W        W28062   1.038   3.618   2.472 -0.0444  0.2271  0.1065
 7783W        W28063  10.308   0.725   2.553 -0.0644 -0.0719 -0.0510
 7784W        W28064   7.521   1.510   0.904  0.0912  0.1341  0.0610
 7785W        W28065  19.717  15.567   9.329 -0.0143  0.0305 -0.0123
 7786W        W28066   4.041  10.775   0.251 -0.1139 -0.0968  0.0551
 7787W        W28067  16.663   4.349   0.355 -0.0102 -0.2376  0.2306
 7788W        W28068   1.463   3.552   2.758  0.0518  0.0326 -0.4844
 7789W        W28069  11.928  15.512   2.144 -0.2096  0.0072  0.3976
 7790W        W28070  15.080   1.271  13.263  0.2593 -0.0154  0.0309
 7791W        W28071   4.863  14.152   0.866 -0.0368 -0.1629  0.4452
 7792W        W28072   6.821  15.528   2.349 -0.2251 -0.1612  0.1286
 7793W        W28073   9.844  13.972  10.490 -0.0932 -0.2120  0.2479
 7794W        W28074  13.234   8.057   0.161  0.0102  0.0384  0.2700
 7795W        W28075  10.755   0.860   2.839  0.3406 -0.2937 -0.1403
 7796W        W28076   2.961  10.569   1.802  0.0179 -0.0575 -0.0663
 7797W        W28077   6.805  16.498  11.336 -0.0342  0.2801  0.1473
 7798W        W28078  18.246   1.781  12.471  0.0685 -0.0401 -0.3438
 7799W        W28079   1.807   5.177   5.401  0.2191  0.1301  0.1344
 7800W        W28080   9.847   1.603  13.459  0.0965 -0.0311 -0.0115
 7801W        W28081   9.805   9.101  13.626 -0.5010 -0.2615 -0.3355
 7802W        W28082   3.488  11.870  12.945 -0.2777 -0.1186  0.2622
 7803W        W28083  10.210  10.173  11.949  0.1075 -0.0099 -0.1260
 7804W        W28084   1.375  11.247  13.907  0.0198 -0.3171 -0.0545
 7805W        W28085   3.861  13.364   2.192 -0.1427 -0.0964  0.1140
 7806W        W28086   4.356   6.539  11.566 -0.3687  0.0299 -0.3250
 7807W        W28087  15.373   1.237   2.127 -0.2474  0.2874 -0.0657
 7808W        W28088   7.655   2.275  11.336 -0.0536 -0.0850 -0.1575
 7809W        W28089  12.094  19.155   3.179  0.0090  0.0207 -0.1382
 7810W        W28090   5.973  12.908   0.143  0.0253  0.0042  0.1126
 7811W        W28091  10.661  19.197   0.544 -0.0077 -0.0016  0.1386
 7812W        W28092   4.450   1.025   2.243  0.0210  0.0738 -0.1572
 7813W        W28093   3.452   2.902   0.315  0.0624 -0.1915  0.1547
 7814W        W28094   6.398   2.081   3.778 -0.3028 -0.3695  0.2533
 7815W        W28095  13.137  10.675  13.294 -0.1249  0.0907 -0.0943
 7816W        W28096  17.254   0.382   0.592 -0.0081 -0.0649 -0.2161
 7817W        W28097   6.671  14.221  12.780 -0.1618  0.4200 -0.0269
 7818W        W28098   9.970  16.319  12.198  0.0418 -0.1559  0.1815
 7819W        W28099   6.821  19.555   1.900  0.1088 -0.2018 -0.1922
 7820W        W28100   9.725   5.072  13.855  0.2642  0.0399 -0.4131
 7821W        W28101   4.611  12.603   1.012  0.1521  0.0416  0.0084
 7822W        W28102  13.955   0.380  10.272  0.0259 -0.0403 -0.0172
 7823W        W28103  18.858   0.720  13.024 -0.1403  0.1698  0.0323
 7824W        W28104  16.994  10.428   1.233 -0.2227  0.0995  0.1981
 7825W        W28105  19.261  15.866   2.224  0.1085  0.0998  0.1082
 7826W        W28106   7.206   8.266  11.188 -0.1138 -0.0247 -0.0799
 7827W        W28107   6.419   0.480  13.399  0.2167 -0.2475 -0.0348
 7828W        W28108  14.926  14.802  10.757 -0.4172 -0.0025  0.5042
 7829W        W28109   8.685   3.076   2.514 -0.0496 -0.1255  0.0758
 7830W        W28110  15.525  12.460   3.834  0.0967  0.1187  0.0232
 7831W        W28111   3.799  13.045   0.811 -0.3021  0.1630  0.3191
 7832W        W28112   7.569  12.512   0.046  0.2555 -0.1417 -0.1026
 7833W        W28113  12.832  14.980  12.977  0.0838 -0.0005 -0.2018
 7834W        W28114  12.522   5.873  11.663 -0.0173  0.1129 -0.3197
 7835W        W28115  19.760   6.792  11.176  0.3394 -0.0473  0.0922
 7836W        W28116   4.929  15.265  10.553 -0.1130  0.0496  0.1284
 7837W        W28117   2.739  18.015   0.813 -0.1737 -0.0778  0.0923
 7838W        W28118   8.571   4.388   3.294 -0.0341  0.1799  0.3211
 7839W        W28119  16.169   9.422   3.333 -0.1467 -0.2063  0.0741
 7840W        W28120  10.528   6.624  10.949 -0.0740  0.0739  0.1455
 7841W        W28121  18.769   3.589   1.106  0.0685  0.0790  0.2282
 7842W        W28122   6.976  10.416   1.947  0.0270  0.0221  0.0853
 7843W        W28123  19.066  13.663   0.303  0.0309 -0.2673 -0.2988
 7844W        W28124  14.837  19.633  10.467 -0.1584 -0.2872 -0.1001
 7845W        W28125   9.258  19.013   0.380 -0.3265 -0.0518  0.1790
 7846W        W28126  12.505   3.478   9.789 -0.1330 -0.1443 -0.0046
 7847W        W28127   6.848   8.011   3.854  0.0798  0.2523 -0.0941
 7848W        W28128   8.374  10.162  10.369 -0.2539  0.0686  0.0995
 7849W        W28129  14.280  11.779   2.504 -0.0605  0.3452 -0.1248
 7850W        W28130   3.777   9.428   0.133 -0.1125 -0.1640 -0.1043
 7851W        W28131  19.719   8.274   3.231  0.0687  0.2430  0.1299
 7852W        W28132  17.167   3.136   9.924 -0.0765  0.1485  0.0481
 7853W        W28133   2.063   0.083  12.450 -0.0883 -0.1636  0.2998
 7854W        W28134   3.883  13.750   1.220 -0.3567  0.1088 -0.3133
 7855W        W28135   4.228   7.445   0.826  0.1809  0.2391  0.0940
 7856W        W28136   5.913   9.646  13.628 -0.0130 -0.0037 -0.0873
 7857W        W28137  17.459   5.919   0.170  0.0168 -0.0436  0.3071
 7858W        W28138   1.470   9.181  12.012  0.1748 -0.0838  0.2274
 7859W        W28139  12.092  14.734   1.815 -0.2155 -0.0615 -0.2749
 7860W        W28140   7.282   5.633   2.758  0.0877  0.0058 -0.1650
 7861W        W28141  16.567  11.411   9.280 -0.0787 -0.3653  0.0929
 7862W        W28142  12.331   7.578  12.177  0.3816  0.1849 -0.0775
 7863W        W28143  13.233   3.712   2.993 -0.0608 -0.2659 -0.0009
 7864W        W28144   7.422  16.760  13.141  0.1532  0.3450  0.0702
 7865W        W28145   2.745  19.163   0.033 -0.0257 -0.3281  0.0364
 7866W        W28146  14.074  14.953  12.536  0.3103 -0.0392  0.2548
 7867W        W28147  17.092  17.222   3.239  0.0259  0.0598  0.2146
 7868W        W28148   6.377  17.272   1.050  0.0618 -0.0767  0.4062
 7869W        W28149   2.081  16.076   9.340  0.0201  0.0452 -0.1343
 7870W        W28150  10.142  16.255  12.774  0.2567 -0.0346  0.0779
 7871W        W28151  10.753  10.722  10.901  0.2528  0.2136 -0.1412
 7872W        W28152  16.062   6.089  11.143 -0.0189  0.0258 -0.0616
 7873W        W28153   2.679  14.216  11.871  0.2424 -0.1106  0.0478
 7874W        W28154  19.140   8.623  10.272  0.3193  0.0451  0.3014
 7875W        W28155   6.238   8.502   9.536  0.0788 -0.0141 -0.1345
 7876W        W28156  13.141   4.568  12.873  0.2902 -0.1926  0.0949
 7877W        W28157  17.681  16.524   3.144 -0.0075 -0.0279 -0.0585
 7878W        W28158  16.254   0.829  12.423 -0.0697  0.0848 -0.0571
 7879W        W28159   3.916  13.274  10.441  0.1058  0.0113 -0.1060
 7880W        W28160   0.516  18.377   1.478 -0.0453  0.0123  0.3231
 7881W        W28161  17.799   9.727   2.059  0.2469  0.1749 -0.1458
 7882W        W28162   6.424  18.314  12.847  0.5443 -0.0521 -0.2197
 7883W        W28163   2.513   3.619   3.631 -0.2437  0.1766 -0.2898
 7884W        W28164   7.186  10.023   3.734 -0.0409 -0.1854 -0.3182
 7885W        W28165   3.429  16.203  12.693 -0.1787 -0.3244 -0.2823
 7886W        W28166   6.529   3.141   2.311 -0.4476 -0.0648  0.0796
 7887W        W28167  16.016   1.001  11.122  0.0771 -0.2915 -0.0145
 7888W        W28168   1.734  10.207   0.566 -0.1069 -0.1540  0.1322
 7889W        W28169  12.470  13.525   3.950 -0.0349  0.1752  0.0738
 7890W        W28170  15.156   1.928  11.707 -0.0811  0.0874  0.1996
 7891W        W28171  16.012   0.344   3.577  0.3771  0.0300 -0.2160
 7892W        W28172   8.255   3.310   1.799  0.1979  0.1437 -0.3194
 7893W        W28173   2.569  14.982  10.067 -0.0952 -0.1413  0.0900
 7894W        W28174  13.837  18.509  10.201  0.0522 -0.1491  0.3080
 7895W        W28175   2.202   5.482  11.358  0.0079  0.1010 -0.2628
 7896W        W28176  13.178   2.413  10.883  0.2747  0.1245  0.1272
 7897W        W28177  12.796   5.618  13.373  0.1674 -0.1586  0.0363
 7898W        W28178   0.982   9.335  12.462 -0.0378 -0.0192 -0.1608
 7899W        W28179  18.394  18.881   1.528 -0.0356  0.0825  0.1995
 7900W        W28180  17.799   9.743   0.908  0.1615  0.1723 -0.1225
 7901W        W28181   9.002   1.226   2.952 -0.0749 -0.3345  0.0138
 7902W        W28182   0.076   8.498   1.317  0.1279 -0.2160  0.3369
 7903W        W28183   5.960   7.925   3.211  0.0433  0.0817 -0.1225
 7904W        W28184   0.386   3.579  10.690 -0.0068  0.1887  0.2548
 7905W        W28185   6.217   9.527   0.679  0.0824  0.2386  0.1411
 7906W        W28186  18.974  14.406   0.455  0.0345 -0.0927 -0.1213
 7907W        W28187   7.901  13.401   3.777  0.0439  0.2417 -0.2159
 7908W        W28188   6.885   7.131   2.226 -0.0224  0.0785  0.1528
 7909W        W28189  19.098  12.337  11.368 -0.1368 -0.0526 -0.3493
 7910W        W28190  19.731   4.932   1.530 -0.0075  0.4520 -0.1113
 7911W        W28191   8.485  13.107  11.624 -0.2555 -0.1175  0.1090
 7912W        W28192   2.096  19.350  13.406 -0.3987 -0.0845  0.2918
 7913W        W28193   2.764   3.134   3.390 -0.2457  0.0201  0.0689
 7914W        W28194  12.477   5.975   0.850 -0.2206 -0.2817 -0.3105
 7915W        W28195  13.495  16.643  12.434 -0.1115 -0.0267  0.3073
 7916W        W28196  14.755   3.266  13.444  0.2340  0.2605  0.4817
 7917W        W28197  12.281  17.152   9.309  0.5870 -0.0101 -0.0196
 7918W        W28198  14.872  14.333  11.576  0.1704 -0.0574  0.0927
 7919W        W28199  17.536  12.053  10.715  0.3007 -0.1402 -0.1216
 7920W        W28200  12.766   3.835   0.533 -0.2371 -0.2049 -0.1359
 7921W        W28201   8.747  12.555   9.406 -0.0105 -0.0393 -0.2799
 7922W        W28202  10.272  12.333   3.288  0.2433  0.1695 -0.3553
 7923W        W28203   9.667  15.430   3.372 -0.0587 -0.1982  0.4049
 7924W        W28204   9.603   0.859  11.309 -0.0484  0.0171  0.1116
 7925W        W28205  11.485   8.311  11.915 -0.0960  0.3798 -0.2551
 7926W        W28206  17.208  13.972   1.348 -0.0672 -0.3518 -0.1260
 7927W        W28207  17.919  13.557   2.799  0.1070  0.1778  0.2833
 7928W        W28208  14.706  12.187   1.688 -0.3999 -0.0523 -0.0911
 7929W        W28209   7.306  16.108   1.745  0.1419 -0.0290  0.0698
 7930W        W28210  16.171  17.974  13.410 -0.4036  0.2689 -0.0235
 7931W        W28211   5.247   0.086   2.319 -0.2127 -0.1380  0.2633
 7932W        W28212   9.758   4.028  12.109  0.0833  0.0897 -0.1316
 7933W        W28213  10.455   1.476   3.398 -0.1800  0.3412  0.3237
 7934W        W28214   8.445   1.078  12.399 -0.0254  0.0064  0.0769
 7935W        W28215   1.394  16.198   5.243  0.0555  0.3206 -0.1953
 7936W        W28216   3.861  13.347  11.827 -0.0401 -0.0252 -0.0983
 7937W        W28217  10.761   0.866  12.707  0.0012 -0.0679 -0.2275
 7938W        W28218   5.213  14.441   1.681 -0.2309 -0.2385 -0.3103
 7939W        W28219  18.581  15.799  10.496  0.0767  0.0220  0.1124
 7940W        W28220  17.387   5.281   3.953 -0.0031  0.1751 -0.1547
 7941W        W28221   8.263   4.929   2.385  0.2274 -0.0670 -0.1194
 7942W        W28222  11.692   3.752   0.232  0.3296 -0.0540 -0.1196
 7943W        W28223  17.410  19.588  12.264 -0.0091  0.2759 -0.2399
 7944W        W28224   9.044   8.548   0.735 -0.0015 -0.2335 -0.1658
 7945W        W28225   9.807  10.501  12.694  0.3413  0.4016 -0.1353
 7946W        W28226   8.519   2.486  10.686 -0.1320 -0.1530  0.3036
 7947W        W28227  12.439  11.559  10.061 -0.2141 -0.0655 -0.0504
 7948W        W28228  12.403   1.371  13.876  0.2183 -0.1142 -0.1029
 7949W        W28229   7.398   0.189   0.216 -0.0068  0.0530  0.7529
 7950W        W28230  12.452   4.395   2.023  0.0106 -0.0889 -0.1791
 7951W        W28231   0.970   4.823  11.991  0.0193 -0.2629 -0.3074
 7952W        W28232   8.742   6.026   2.395 -0.0274 -0.3052 -0.1977
 7953W        W28233   5.326  10.638  10.300  0.2571 -0.3750 -0.1685
 7954W        W28234  11.257   5.179  11.216 -0.0216  0.0201 -0.0470
 7955W        W28235   2.875  15.088  10.594 -0.0820 -0.2512  0.4110
 7956W        W28236  19.498  10.555   2.671  0.2709 -0.5443 -0.1253
 7957W        W28237   4.853   0.400  10.289 -0.0756 -0.3337 -0.0961
 7958W        W28238  11.013  15.839   1.568 -0.1413 -0.0581 -0.0663
 7959W        W28239   6.621   3.989  12.798 -0.0635 -0.1898 -0.1758
 7960W        W28240   2.746   2.537   0.748 -0.1178  0.1417 -0.4817
 7961W        W28241  12.990  10.012   3.036 -0.0087  0.3085 -0.0245
 7962W        W28242   7.348   0.506  10.102 -0.2069 -0.3502  0.0152
 7963W        W28243   2.596   3.750   1.453 -0.0059 -0.0282 -0.2487
 7964W        W28244  10.083  18.437   3.551 -0.0984 -0.0211  0.1944
 7965W        W28245  18.222   6.893  11.193  0.1962 -0.4208  0.2366
 7966W        W28246  14.252   2.823   1.899 -0.1250 -0.2677  0.3384
 7967W        W28247   0.803   4.579  12.955  0.3083 -0.1670  0.2096
 7968W        W28248  14.723   7.081   2.985 -0.0144  0.0591 -0.2047
 7969W        W28249   3.338  12.869   4.040  0.0483  0.0518 -0.1453
 7970W        W28250  15.095  12.447  12.228  0.4815  0.0127  0.1953
 7971W        W28251  13.243   6.797  11.391 -0.0522  0.0917  0.0665
 7972W        W28252   4.808   0.007  12.594  0.1053 -0.0041  0.3526
 7973W        W28253   3.918  15.308   1.443 -0.0532 -0.2866 -0.2035
 7974W        W28254   7.688  14.615  13.711  0.0287 -0.0831 -0.0819
 7975W        W28255  16.730  13.738   1.422 -0.3106  0.1010 -0.2104
 7976W        W28256  10.841   4.863  11.022 -0.1004  0.1509 -0.1513
 7977W        W28257  18.623  18.379   2.183  0.1390  0.0980  0.0431
 7978W        W28258  10.124  14.068  10.116 -0.2099 -0.1330  0.0411
 7979W        W28259  16.334   6.004   2.746 -0.0643 -0.2508 -0.0045
 7980W        W28260  14.567  19.130  10.615 -0.1510  0.0386  0.2727
 7981W        W28261  17.120   1.775  10.348  0.1230 -0.0525 -0.0249
 7982W        W28262  17.252   5.296  11.056  0.1732 -0.1392 -0.1154
 7983W        W28263   5.094   0.717  11.772  0.1783  0.0175  0.1111
 7984W        W28264  10.706  15.722  12.483  0.0805 -0.1103  0.2639
 7985W        W28265   1.751  15.775   2.720  0.2012 -0.1987 -0.1703
 7986W        W28266   8.874   7.757   3.138  0.0672  0.2983 -0.1303
 7987W        W28267  17.326  11.083  11.077 -0.0246  0.1650  0.3338
 7988W        W28268  10.320  15.359   0.379 -0.4153  0.2357  0.3389
 7989W        W28269  16.784   7.099   0.468  0.0544 -0.1688 -0.0392
 7990W        W28270  16.253   7.106   1.747 -0.0861  0.4037 -0.0128
 7991W        W28271   0.831   5.188  10.331 -0.1436  0.3717 -0.1705
 7992W        W28272   4.949  16.269  11.445 -0.3729  0.0656 -0.0987
 7993W        W28273   9.454   2.947  13.910 -0.0109 -0.1771  0.0881
 7994W        W28274  10.448   6.454  12.514  0.0182  0.0096 -0.2807
 7995W        W28275   5.611  14.795   1.312 -0.4645 -0.1573  0.0061
 7996W        W28276  12.192   8.397   1.807 -0.0561 -0.1095  0.0091
 7997W        W28277  16.381  17.749   1.163  0.0285  0.1860 -0.2239
 7998W        W28278  12.007  10.148   2.925 -0.0270  0.2618  0.3127
 7999W        W28279   7.614  11.619  11.436  0.1928 -0.1366 -0.0974
 8000W        W28280  15.454  10.461   4.074  0.0480 -0.1202  0.0802
 8001W        W28281   5.216   3.110   0.298 -0.1876 -0.0582  0.4080
 8002W        W28282   0.436  19.188  10.418  0.0604 -0.1435  0.2952
 8003W        W28283  19.637   7.774  11.521 -0.0296  0.0032 -0.1495
 8004W        W28284   4.859  15.079   3.626 -0.1840  0.2345  0.0382
 8005W        W28285   7.667  13.298   0.351 -0.1119 -0.0854  0.0158
 8006W        W28286   8.817  11.923   2.156  0.1974 -0.1985  0.2931
 8007W        W28287   3.140   5.716  13.111 -0.1036  0.0927 -0.1778
 8008W        W28288   3.050  17.870  13.194 -0.3473  0.1579  0.1342
 8009W        W28289  13.021  19.663  13.777  0.0774 -0.0475  0.2807
 8010W        W28290  14.679   3.560   0.468 -0.0479 -0.1716 -0.1039
 8011W        W28291  12.211   0.468  10.410  0.1968  0.0513  0.1254
 8012W        W28292   4.395   8.022   1.831  0.0902 -0.0041  0.0904
 8013W        W28293  19.595   5.451   2.279  0.0119  0.0651  0.1971
 8014W        W28294  18.199   4.075  11.537  0.0295 -0.2086 -0.1478
 8015W        W28295   0.815   6.331  12.039  0.2945 -0.4957  0.2414
 8016W        W28296   5.080  10.610   1.709  0.3231 -0.2568 -0.0433
 8017W        W28297  14.358   2.356  13.814 -0.2257  0.3113  0.0356
 8018W        W28298  17.939  15.051  11.960  0.0243  0.0382  0.0143
 8019W        W28299  17.595  15.675   0.177  0.1726  0.0455  0.1348
 8020W        W28300   3.838  11.365   1.462  0.4049  0.1058  0.1713
 8021W        W28301  12.312   8.049   2.075 -0.2398  0.3183 -0.1195
 8022W        W28302   0.584  10.527   0.128 -0.0846  0.0072 -0.4789
 8023W        W28303   8.109   0.093  11.699 -0.1164 -0.2043  0.1886
 8024W        W28304  10.554   9.119   2.958  0.0899  0.0587 -0.0471
 8025W        W28305  15.061  14.855   4.840  0.0263 -0.0977  0.4542
 8026W        W28306  11.657   2.580  11.456  0.0791  0.1856 -0.2922
 8027W        W28307   1.104  14.756   0.172 -0.1966  0.0704 -0.4298
 8028W        W28308   9.051  12.557   5.262  0.1067  0.0950  0.1532
 8029W        W28309   5.318   2.504  10.694  0.1990  0.2171  0.2299
 8030W        W28310   5.236   5.125  13.947 -0.2187  0.0246 -0.0259
 8031W        W28311   2.250  10.909  11.397  0.1464 -0.2660  0.1486
 8032W        W28312  16.278  14.651   0.672  0.1054 -0.2065 -0.4072
 8033W        W28313  16.250  10.944  13.640 -0.0198  0.1929  0.1914
 8034W        W28314  15.348   0.925   3.586  0.0701 -0.2327  0.3504
 8035W        W28315   6.696   1.194  13.810 -0.3201  0.2046 -0.0408
 8036W        W28316   2.344   5.081   1.251  0.2359 -0.2173 -0.1482
 8037W        W28317  10.983   8.332  11.953  0.0890  0.0218  0.2677
 8038W        W28318  10.099  17.619  10.328 -0.0079  0.1378  0.2003
 8039W        W28319  18.749  13.892  11.307  0.1247 -0.0407 -0.0943
 8040W        W28320   8.362  18.266   0.247 -0.2645 -0.1576 -0.0935
 8041W        W28321   5.224   6.947  11.508 -0.3218 -0.1715  0.1591
 8042W        W28322  10.763   2.423   8.669 -0.0897 -0.2468 -0.1550
 8043W        W28323   6.562   0.965   2.702 -0.1970 -0.4419 -0.4078
 8044W        W28324  14.246  12.154  13.359 -0.1558 -0.1303  0.0345
 8045W        W28325  17.473   6.511  10.415  0.2308  0.0240 -0.1151
 8046W        W28326   8.485  13.678  13.670  0.2074 -0.2968 -0.0635
 8047W        W28327  16.488   6.607   3.345  0.0433  0.0545 -0.2216
 8048W        W28328   5.134   0.012   3.868 -0.1228 -0.0275  0.1914
 8049W        W28329   3.565  15.896   3.338  0.0924 -0.0342  0.2259
 8050W        W28330   3.694   3.064   4.928  0.0028 -0.1079 -0.1679
 8051W        W28331  19.000   6.710  11.269  0.0226 -0.1435  0.2472
 8052W        W28332   4.553   6.041  12.765  0.0376  0.2205  0.0528
 8053W        W28333  18.170  13.573   4.260 -0.0460 -0.0955  0.1628
 8054W        W28334   4.098  17.437   0.701  0.1145 -0.4315 -0.0980
 8055W        W28335  17.168   7.570  10.494  0.1522 -0.2290  0.2147
 8056W        W28336  10.816   5.116   0.761  0.2579 -0.1769 -0.2269
 8057W        W28337  17.830  19.066   1.376 -0.1962 -0.0078  0.1769
 8058W        W28338   0.243   1.344   0.078 -0.3886 -0.0537  0.1708
 8059W        W28339  16.545   4.936  10.575 -0.0816  0.0844  0.2897
 8060W        W28340   5.118   9.612  13.245  0.0654  0.0558  0.1531
 8061W        W28341  12.319   7.864   3.434 -0.1328  0.2205  0.1304
 8062W        W28342  10.288  14.517   0.373  0.5019 -0.0346  0.0390
 8063W        W28343  12.380  17.838   4.762  0.3333 -0.1643 -0.1904
 8064W        W28344   1.370   5.181  10.342 -0.2451  0.0370 -0.1721
 8065W        W28345  17.635  14.370   3.567 -0.2612  0.2119  0.1502
 8066W        W28346  17.373  18.242   0.871  0.1079  0.0385  0.3984
 8067W        W28347  13.530   6.548  10.906 -0.1453 -0.1368 -0.0727
 8068W        W28348   0.170   7.263   3.505 -0.0972  0.0637  0.1134
 8069W        W28349  14.063  12.414   1.940  0.0222 -0.0446  0.1208
 8070W        W28350   3.836  12.342   2.174  0.1156  0.1899  0.1602
 8071W        W28351  11.784   3.538  13.002  0.0706 -0.2433  0.2567
 8072W        W28352   0.272   9.269   3.665  0.2493  0.0920  0.0185
 8073W        W28353  15.366   4.272  12.985  0.1839  0.1623  0.0085
 8074W        W28354  14.019  13.662  13.005 -0.1246  0.2101  0.0276
 8075W        W28355   7.155   2.517  11.542 -0.1051  0.0360  0.0389
 8076W        W28356  17.883   7.691   0.197  0.0357 -0.0378  0.1269
 8077W        W28357  15.189  19.185   1.036 -0.1868  0.1591  0.1145
 8078W        W28358   4.824   0.223   0.295 -0.4174 -0.1426 -0.1599
 8079W        W28359   2.827   0.673  13.412 -0.1505  0.0616  0.0484
 8080W        W28360   6.204  13.897  10.658  0.2465 -0.0991  0.0577
 8081W        W28361  15.271  16.495   0.947 -0.0698 -0.0592  0.0688
 8082W        W28362   4.565  15.487  10.254  0.0123  0.0189  0.1404
 8083W        W28363  11.443  19.733  11.204  0.2361 -0.4739  0.2622
 8084W        W28364   8.311  14.069   3.144  0.2120  0.1768 -0.0154
 8085W        W28365   7.494   5.294  12.497 -0.1069 -0.1869  0.2047
 8086W        W28366  15.152   5.230  10.174  0.2699 -0.3020  0.1526
 8087W        W28367  12.721  11.150  10.726 -0.2505 -0.0492  0.2299
 8088W        W28368  14.403  16.034  10.795  0.0416  0.0642 -0.1578
 8089W        W28369  17.505   8.399   3.795  0.2226 -0.2689 -0.2242
 8090W        W28370  11.213   2.323  13.325 -0.1152 -0.1516  0.6552
 8091W        W28371   7.336   0.277   1.362 -0.0506  0.0228 -0.0408
 8092W        W28372  16.053  18.400   1.524  0.1602  0.1970 -0.0615
 8093W        W28373   2.217   5.114   0.350  0.1254  0.0062 -0.0205
 8094W        W28374  13.379   1.193   3.321 -0.0411  0.0123 -0.1959
 8095W        W28375   3.420   8.624   0.155 -0.3373 -0.0304 -0.2002
 8096W        W28376  19.659  15.417   0.903 -0.1266 -0.1613  0.1385
 8097W        W28377  19.700   7.950   0.151  0.1612 -0.0480  0.0111
 8098W        W28378   5.236  14.129  13.989  0.1337 -0.0653 -0.3036
 8099W        W28379   4.287  10.314   3.688 -0.0834 -0.0842  0.0205
 8100W        W28380  10.780  10.915  11.380  0.0756  0.2915  0.0634
 8101W        W28381  11.951  13.898   0.657  0.1263  0.2759  0.0635
 8102W        W28382   4.790  19.298  12.681 -0.2959 -0.2081 -0.0199
 8103W        W28383   4.944  17.447   0.426 -0.2323 -0.1892 -0.1387
 8104W        W28384  15.680  14.628   1.889  0.2011  0.0930  0.0957
 8105W        W28385   6.067   0.899  11.499  0.1552  0.0835  0.2654
 8106W        W28386  13.210  16.292  13.247  0.2043  0.0930  0.1860
 8107W        W28387  15.018   3.530  12.477 -0.1215 -0.3312  0.1299
 8108W        W28388  16.335  14.552  10.505 -0.2780  0.0586  0.0189
 8109W        W28389  12.426   5.616  10.747 -0.1174  0.0982  0.0205
 8110W        W28390   4.546  10.395  11.361 -0.1901 -0.2096  0.1592
 8111W        W28391  14.048   2.621  12.397  0.0450 -0.1104 -0.1266
 8112W        W28392  19.192   6.885   0.695 -0.1056 -0.1030 -0.1753
 8113W        W28393  12.064   6.604  10.628  0.0086  0.0121  0.0424
 8114W        W28394  10.170   8.391   0.530  0.0059  0.3201  0.2167
 8115W        W28395  14.291   6.721  10.285  0.1560 -0.0923 -0.2511
 8116W        W28396   2.359   3.396   3.199 -0.1561 -0.0199  0.2611
 8117W        W28397  11.977  17.570  13.435  0.3828  0.0433 -0.0785
 8118W        W28398  12.088   0.322  11.112 -0.2766  0.2130 -0.1453
 8119W        W28399   2.340   8.726  10.370 -0.0518  0.4427  0.0345
 8120W        W28400   1.407   2.169   3.437  0.2002  0.0640  0.1709
 8121W        W28401  18.803   7.640   2.884  0.3686  0.0763 -0.0935
 8122W        W28402   3.489   2.801  11.388  0.3163  0.1618 -0.1668
 8123W        W28403   0.965   2.359   2.613 -0.0020 -0.3102  0.1662
 8124W        W28404   6.294  19.151  13.805 -0.1133  0.2588  0.2023
 8125W        W28405  16.751   5.258  10.965 -0.0875  0.0541  0.0533
 8126W        W28406   5.431  12.636   2.885  0.3582 -0.2159  0.0642
 8127W        W28407  16.549  10.260   1.439 -0.0197 -0.1717 -0.1284
 8128W        W28408  15.028   3.226   3.223 -0.0426 -0.1068 -0.1197
 8129W        W28409  11.424   7.697  10.507  0.0248  0.1192 -0.0690
 8130W        W28410  17.878  16.652   1.015 -0.1234  0.0200 -0.0986
 8131W        W28411  18.679   7.721  12.844 -0.0672 -0.2101 -0.0016
 8132W        W28412  17.694   4.667   3.411 -0.1779 -0.4031  0.0605
 8133W        W28413   2.666  16.654  12.083 -0.1243  0.0301  0.0400
 8134W        W28414   7.044   0.184   1.905  0.2717 -0.2075 -0.0116
 8135W        W28415   8.200   8.297  13.372  0.0179 -0.3082 -0.0712
 8136W        W28416  11.128   4.219  13.087 -0.0214  0.0165  0.1199
 8137W        W28417  17.089   3.743   0.951  0.1727  0.0914  0.0859
 8138W        W28418  17.520   0.155   0.161 -0.1332  0.1000 -0.0014
 8139W        W28419   1.887  15.354  11.677 -0.0837  0.1793 -0.1921
 8140W        W28420   6.113   7.881   4.635 -0.0100  0.2615 -0.0866
 8141W        W28421  19.489  11.236   1.087  0.2506 -0.1192 -0.1208
 8142W        W28422  12.517   5.030   0.761 -0.3255  0.5100 -0.1174
 8143W        W28423  15.681  11.512  12.553 -0.0341  0.0382 -0.2373
 8144W        W28424  10.540  18.590   0.916  0.2439  0.0547 -0.0918
 8145W        W28425  15.345   2.580   0.995  0.0829  0.0409  0.3008
 8146W        W28426  14.790  16.285  11.410  0.0323 -0.0072 -0.1522
 8147W        W28427   4.159   7.003   0.056  0.0574  0.3103  0.0488
 8148W        W28428   4.880  18.789  13.572 -0.3248 -0.0452  0.0842
 8149W        W28429   3.531  12.959  11.861 -0.1929 -0.1905 -0.0961
 8150W        W28430  17.218  14.383  12.204 -0.1437  0.0895  0.0528
 8151W        W28431  12.574  15.281  11.122  0.1270 -0.3491  0.3268
 8152W        W28432  12.864   1.234   4.321 -0.0929 -0.0571  0.1149
 8153W        W28433  12.824  11.062  11.622  0.0165 -0.0386 -0.3324
 8154W        W28434   1.849  10.807  12.713 -0.1273 -0.3150 -0.0694
 8155W        W28435   2.314   4.622   3.874  0.0358  0.2648  0.0252
 8156W        W28436   3.566   1.215   3.396 -0.0206 -0.0684  0.2756
 8157W        W28437  17.210  11.274  11.576 -0.0334  0.0889  0.2414
 8158W        W28438  12.471  11.088  11.298  0.1392 -0.0547  0.0577
 8159W        W28439   3.063  15.204   0.494  0.1855  0.2435 -0.0044
 8160W        W28440   4.788  10.262   0.325 -0.0463 -0.1057  0.2627
 8161W        W28441  17.169  15.329   1.408  0.0839 -0.2496  0.2025
 8162W        W28442  11.046  12.507  12.205  0.1694 -0.1675 -0.3556
 8163W        W28443  12.259   7.786  10.134 -0.2260  0.1057  0.1270
 8164W        W28444   9.755  18.020  12.248 -0.1341  0.0632  0.0901
 8165W        W28445   3.534   9.844   9.411 -0.2517 -0.1263  0.0223
 8166W        W28446  14.774  18.034   0.292  0.1080 -0.0509 -0.2255
 8167W        W28447   8.319   4.597   1.998 -0.1731  0.0090 -0.0894
 8168W        W28448  12.459   5.057  10.651 -0.1898  0.1742 -0.0944
 8169W        W28449   4.036   8.818   2.436  0.3873  0.1141  0.0132
 8170W        W28450   1.373  11.946   9.807  0.0324  0.2951 -0.2006
 8171W        W28451  15.218  10.754  10.410  0.2501  0.0946 -0.0793
 8172W        W28452   3.162   5.829   2.384 -0.1141  0.1425 -0.2984
 8173W        W28453   8.702   4.123   2.442  0.0767  0.0158  0.0655
 8174W        W28454   4.218   2.758  13.328  0.1132  0.0142 -0.1484
 8175W        W28455   1.310   0.757  12.733 -0.0040 -0.1279 -0.0071
 8176W        W28456  10.103   3.166   1.240 -0.0764 -0.0246  0.0508
 8177W        W28457   9.500  10.551   4.443  0.0784  0.0672  0.2136
 8178W        W28458   8.732  17.034   0.004 -0.2425  0.1497  0.0872
 8179W        W28459  10.458  14.115   4.390  0.3827 -0.0214 -0.3683
 8180W        W28460   8.601  10.499  11.564 -0.2999 -0.0866 -0.3546
 8181W        W28461   1.309   7.158   2.516 -0.0102  0.0929 -0.1879
 8182W        W28462  19.121   3.374   2.730 -0.3665 -0.4013 -0.1807
 8183W        W28463   0.619   8.916  13.817  0.0185 -0.3037  0.0909
 8184W        W28464  12.451  17.260  13.444 -0.0255  0.1663 -0.0539
 8185W        W28465   1.652   5.575  10.617 -0.0234 -0.2858  0.1706
 8186W        W28466   7.698   1.045   0.623 -0.1176 -0.2399  0.1692
 8187W        W28467  14.028   6.393  11.688 -0.1068 -0.1112 -0.0077
 8188W        W28468   0.259   1.439   9.014 -0.3472 -0.0612  0.0586
 8189W        W28469   0.727  12.351  13.581 -0.2705 -0.0460 -0.0020
 8190W        W28470  13.733   0.962   4.304  0.2513  0.2565 -0.1239
 8191W        W28471   8.221  14.057  12.140  0.0005 -0.1436  0.1576
 8192W        W28472   5.494  15.321  13.539  0.0176 -0.1664  0.2520
 8193W        W28473   4.775  16.149   9.633 -0.1094  0.1777  0.1227
 8194W        W28474  19.246   4.971   4.964  0.0506 -0.1247  0.0644
 8195W        W28475  19.650   0.683   1.397 -0.1973 -0.0931  0.2505
 8196W        W28476   7.534  17.788   1.540 -0.3449 -0.4718 -0.0987
 8197W        W28477  16.419   2.036  11.349 -0.1271 -0.1597  0.0257
 8198W        W28478   9.249   3.305  10.488 -0.1464  0.2724 -0.1086
 8199W        W28479   2.924  15.411   1.844  0.0655  0.0004 -0.0298
 8200W        W28480   3.973   4.042  12.382 -0.2326 -0.0845  0.0118
 8201W        W28481   8.010  19.213  12.945 -0.1279  0.1103 -0.0425
 8202W        W28482  17.866  14.434   3.166 -0.2613 -0.1706  0.0361
 8203W        W28483   4.315  16.416   2.724 -0.0578 -0.2204 -0.0677
 8204W        W28484   5.890  12.811   3.516 -0.1158  0.3446 -0.2697
 8205W        W28485  16.094  16.047  13.074  0.0660  0.0129  0.4025
 8206W        W28486   4.482   2.241   1.504 -0.0386 -0.0024 -0.1221
 8207W        W28487  11.390   8.429  13.828 -0.1063  0.1776 -0.2756
 8208W        W28488  18.041  14.002   2.904  0.0605  0.1632 -0.1394
 8209W        W28489   3.393  10.755   1.584  0.3932  0.1495  0.2404
 8210W        W28490   1.926  12.102   9.382  0.3630 -0.0225 -0.0197
 8211W        W28491  18.314   0.500   0.895  0.1178  0.0426  0.1751
 8212W        W28492  10.763   2.617  13.881 -0.1030  0.1970 -0.2734
 8213W        W28493  13.503  16.865   3.675 -0.0452  0.5126  0.2206
 8214W        W28494   6.692  15.558  12.129  0.2430 -0.2299 -0.2394
 8215W        W28495  12.859   9.411  13.959 -0.0695 -0.1302  0.2848
 8216W        W28496  10.341   6.491   3.297  0.1180  0.4405 -0.3708
 8217W        W28497   3.284   2.496  10.619  0.0894 -0.0517  0.1969
 8218W        W28498  15.680  11.669   4.338  0.2858 -0.1163  0.5206
 8219W        W28499  15.386  19.759   0.708  0.2226  0.3989  0.2446
 8220W        W28500   4.703   4.606   0.402  0.0796  0.1773  0.0735
 8221W        W28501  19.721  19.080  10.703 -0.0031  0.3575 -0.6121
 8222W        W28502  11.660  12.562  13.772 -0.0259 -0.3009  0.2417
 8223W        W28503  15.211  14.599   2.113 -0.1097  0.0760 -0.0253
 8224W        W28504   2.000   5.487   2.711 -0.0743  0.0653 -0.2761
 8225W        W28505  14.645   1.974  11.818 -0.0933 -0.0227 -0.4250
 8226W        W28506   2.267  10.102  14.062 -0.0999  0.0225  0.0276
 8227W        W28507  18.215  18.918  12.176  0.1510  0.0172  0.2435
 8228W        W28508   0.592  13.103   3.003  0.0983  0.0046  0.4155
 8229W        W28509  10.549   1.329   1.481  0.2877  0.2255  0.2333
 8230W        W28510   8.671  19.035  10.218 -0.2363  0.0381  0.2786
 8231W        W28511  17.180  17.134   0.874  0.2335 -0.0270  0.1744
 8232W        W28512   8.952   2.099   3.889  0.0403  0.1121  0.1424
 8233W        W28513   3.953   6.916   2.159 -0.0175 -0.0358 -0.0687
 8234W        W28514  11.479  13.391  12.378 -0.0852  0.0622 -0.1757
 8235W        W28515   2.660   8.080  13.687  0.3660 -0.0561 -0.0443
 8236W        W28516   9.158   0.400  11.862  0.2511 -0.3682  0.0738
 8237W        W28517   8.495   8.690   2.976  0.1140  0.2603 -0.1608
 8238W        W28518  19.230   9.917  11.536  0.1392 -0.1029 -0.2157
 8239W        W28519   9.733   7.755   5.391 -0.1509 -0.2073 -0.0569
 8240W        W28520   1.966   3.806   2.169  0.0696 -0.1923 -0.1557
 8241W        W28521   0.094  13.497  12.000  0.0215  0.2653 -0.1618
 8242W        W28522  15.142   8.697   0.472  0.0638  0.0066 -0.1263
 8243W        W28523   1.850   8.038   2.058  0.2554 -0.0643  0.1554
 8244W        W28524   7.392   3.814   2.059  0.2141  0.1426 -0.0153
 8245W        W28525  15.756  13.966   0.533  0.2567 -0.1270 -0.2806
 8246W        W28526  11.204   4.218   2.359 -0.2996  0.4655  0.1203
 8247W        W28527   3.684   5.611   3.392 -0.1593 -0.0736  0.0099
 8248W        W28528  15.026  13.235  11.773  0.2104  0.0803 -0.0070
 8249W        W28529  11.565   7.781   0.630 -0.3984 -0.5132  0.1495
 8250W        W28530  16.515   0.553   0.915  0.3706 -0.0200  0.0335
 8251W        W28531   0.272  15.937   9.292 -0.4537 -0.1972  0.0083
 8252W        W28532  10.315  15.137  11.915 -0.3142  0.0891 -0.4489
 8253W        W28533  11.689  16.943  13.922 -0.3857  0.0230 -0.3088
 8254W        W28534   1.455   6.930   0.242 -0.0411 -0.0606 -0.0955
 8255W        W28535   5.438  16.662   3.419  0.1063 -0.0048  0.2772
 8256W        W28536  16.862  19.347  13.983  0.1366  0.1014  0.1225
 8257W        W28537   9.910   3.465  13.302  0.3004 -0.0196 -0.0702
 8258W        W28538   1.779   9.306   4.472 -0.2109  0.0322 -0.0398
 8259W        W28539  16.519  11.075  12.459 -0.0556  0.0419  0.1886
 8260W        W28540   5.806  17.810   2.683 -0.0214 -0.0353  0.1636
 8261W        W28541   0.985  16.789  14.075 -0.2943 -0.2301 -0.3552
 8262W        W28542  10.759  14.871  12.765  0.3432 -0.0464  0.0714
 8263W        W28543  12.101  12.161   0.564  0.0973  0.0990  0.1879
 8264W        W28544  16.924  17.257  13.623  0.0509  0.1476 -0.0621
 8265W        W28545   2.129  15.608   0.059  0.0014 -0.2869 -0.2055
 8266W        W28546  14.889  17.884   2.196 -0.0685  0.0325  0.1580
 8267W        W28547  10.244   4.407  13.804 -0.0012 -0.1913  0.0231
 8268W        W28548   9.079  14.616  12.321  0.1752 -0.1112  0.0390
 8269W        W28549  13.339  11.631  11.315  0.0402 -0.2548  0.1168
 8270W        W28550   9.979  16.534   2.699 -0.0027 -0.1455 -0.1668
 8271W        W28551  17.009  10.251  13.930  0.1742 -0.1119 -0.0791
 8272W        W28552  13.308  14.284  12.697 -0.2438  0.1861  0.0117
 8273W        W28553   9.048  19.576   0.300  0.0483 -0.2542 -0.0457
 8274W        W28554  19.612   0.166   3.275  0.1133 -0.2528  0.0273
 8275W        W28555   6.393  16.404  12.172  0.0671  0.0944 -0.0906
 8276W        W28556   3.971   9.670  13.096  0.1026  0.3010 -0.0868
 8277W        W28557   7.264   8.727  11.541  0.0664  0.5432  0.2848
 8278W        W28558   2.196   6.501  10.676 -0.1896  0.1159  0.0831
 8279W        W28559  11.536   0.699   0.937 -0.0189  0.1023  0.0624
 8280W        W28560  12.017   9.119  10.710  0.0675 -0.1611 -0.0276
 8281W        W28561  15.195  18.123   1.836  0.2277  0.2361 -0.0444
 8282W        W28562  16.274  16.532  13.668 -0.0256  0.0928 -0.0642
 8283W        W28563   9.990  15.513   4.167 -0.1012 -0.0304  0.2464
 8284W        W28564  15.673   9.558  10.207 -0.0397 -0.1094  0.1532
 8285W        W28565  15.940   8.186  13.792 -0.2105 -0.2124 -0.0210
 8286W        W28566  13.422   7.541  12.098 -0.2462 -0.0022 -0.0653
 8287W        W28567  18.971  16.642  11.561 -0.5089  0.2392 -0.0032
 8288W        W28568  18.383   7.971  10.632  0.2925  0.0192  0.2310
 8289W        W28569  12.094  18.107  11.334 -0.0631 -0.3266 -0.0774
 8290W        W28570  16.231  19.689   1.466 -0.0049  0.0017 -0.0143
 8291W        W28571   2.770  12.037  13.625  0.0559  0.0455 -0.0771
 8292W        W28572   2.973   9.473  12.471  0.0175  0.6292 -0.2450
 8293W        W28573  14.689   7.215   2.184 -0.1058 -0.4375  0.0752
 8294W        W28574  10.086  10.070   2.798  0.2365  0.2605  0.0848
 8295W        W28575   9.303  14.633   0.617  0.2547 -0.3806  0.0828
 8296W        W28576  15.945   5.575  11.277 -0.2259 -0.2347 -0.0135
 8297W        W28577  14.496   6.006  12.409 -0.0953  0.0809  0.2519
 8298W        W28578  10.369  19.171   0.924  0.0694  0.0065 -0.1694
 8299W        W28579  11.994   0.297  12.963  0.3981  0.3009  0.3559
 8300W        W28580  14.201   5.897  13.175  0.1670 -0.3053  0.1697
 8301W        W28581   6.780  17.271  10.161  0.2238  0.1219 -0.0585
 8302W        W28582  12.714   7.292  11.996  0.0102  0.3568  0.3714
 8303W        W28583  14.797  11.611  13.635 -0.0529 -0.1623 -0.0770
 8304W        W28584   0.693  10.909   1.371 -0.0752  0.1864 -0.2371
 8305W        W28585   0.663   4.250   0.887 -0.2880  0.2339 -0.0853
 8306W        W28586  17.477   4.771   1.344  0.0229 -0.0891 -0.3248
 8307W        W28587   1.544  18.121   2.047  0.1591 -0.0377 -0.1468
 8308W        W28588   6.434  18.922  11.786  0.0724  0.0577 -0.3304
 8309W        W28589  17.966   5.390  11.534 -0.2186 -0.1268  0.2246
 8310W        W28590   3.224   5.392  11.712  0.1140 -0.0945  0.1614
 8311W        W28591  19.442  14.730  10.010  0.1527  0.4930 -0.2782
 8312W        W28592  10.823   7.784  12.393 -0.2759  0.0029 -0.0870
 8313W        W28593  11.093  17.252   0.608 -0.1689 -0.2246 -0.0280
 8314W        W28594  14.801  10.056   2.365  0.2076  0.1278  0.0123
 8315W        W28595   0.390  10.228  12.735 -0.0533  0.2238  0.2359
 8316W        W28596  11.117  11.234  13.680 -0.0439 -0.1902 -0.2256
 8317W        W28597   3.748  10.218   0.587 -0.1412 -0.0759 -0.2323
 8318W        W28598  16.984  13.721   2.087 -0.0200 -0.1677  0.0987
 8319W        W28599  12.912   4.516  12.085  0.0991 -0.3740 -0.2565
 8320W        W28600  18.351   1.580  11.869  0.0748 -0.0534 -0.0326
 8321W        W28601   3.683  10.001  10.404 -0.0916 -0.2129 -0.5341
 8322W        W28602  14.999  10.351   2.758  0.1689 -0.2900 -0.1502
 8323W        W28603   2.235  16.043   2.648  0.0822  0.0367 -0.1773
 8324W        W28604   9.508   7.577   1.308 -0.0342 -0.1883 -0.0865
 8325W        W28605   7.360  17.189  11.830 -0.0092  0.0757 -0.1377
 8326W        W28606   9.638   1.295   1.651  0.0882  0.6054 -0.1509
 8327W        W28607   1.203  19.580  12.686  0.3127  0.4046 -0.0496
 8328W        W28608  10.711  16.430  13.987  0.3395  0.1462 -0.1290
 8329W        W28609  15.114  11.866  11.481  0.1057 -0.1691  0.0493
 8330W        W28610   0.377   6.098   0.996  0.1894  0.0570 -0.2680
 8331W        W28611   5.340  17.046  11.683  0.0545  0.0840  0.0649
 8332W        W28612   8.747   5.430  11.731  0.0550 -0.0773  0.0106
 8333W        W28613   8.630   6.189  12.167 -0.1138 -0.1172 -0.2482
 8334W        W28614   6.063   5.674   0.093  0.3325  0.1505  0.1350
 8335W        W28615  13.473   8.096   2.738 -0.0312  0.1255 -0.3566
 8336W        W28616  18.459  17.927  12.781 -0.2115 -0.1106 -0.0228
 8337W        W28617  10.235  15.691   0.010  0.2372  0.0308 -0.2291
 8338W        W28618   3.645  15.411  11.506 -0.0447 -0.3401 -0.0152
 8339W        W28619  10.292  14.305  13.552  0.0858  0.2269  0.1672
 8340W        W28620   1.213   9.877  13.264  0.1266  0.0496  0.0706
 8341W        W28621   0.756  11.363   2.312  0.4543  0.1365  0.1474
 8342W        W28622  12.000   3.233  10.856  0.1256  0.2283  0.2562
 8343W        W28623   9.567  14.646   3.852 -0.2219  0.0053  0.0129
 8344W        W28624   6.853   1.372   2.733  0.0576 -0.3889  0.1256
 8345W        W28625  11.658   2.944  12.793 -0.0864  0.1305  0.2311
 8346W        W28626   4.657  18.282  12.251 -0.3037 -0.1743  0.0962
 8347W        W28627   9.689   2.105  11.976  0.1423  0.0949 -0.1501
 8348W        W28628  15.402   2.784  13.539  0.1132  0.0268  0.2046
 8349W        W28629   2.423  18.943  10.785  0.0228 -0.0681  0.2227
 8350W        W28630  16.970   5.121  11.441 -0.0137  0.1853  0.1204
 8351W        W28631   3.751   1.289   1.868  0.2552  0.1766 -0.0753
 8352W        W28632   2.283  19.163   2.547  0.1017 -0.2255  0.1158
 8353W        W28633   1.474  14.526   3.431 -0.0369 -0.0175 -0.1967
 8354W        W28634   4.032  18.285   2.351 -0.2096 -0.0317 -0.1228
 8355W        W28635  13.814  18.001  10.605 -0.0938  0.1787 -0.2475
 8356W        W28636   9.787  19.152  13.314 -0.1524  0.0835 -0.0904
 8357W        W28637  17.678   2.118  10.906 -0.1818  0.1320  0.1204
 8358W        W28638   9.763  11.218  12.009  0.1470  0.0623 -0.2053
 8359W        W28639   1.605   4.575   3.679  0.2664  0.0538 -0.1706
 8360W        W28640  10.148   4.335   4.837  0.1786 -0.2721  0.0893
 8361W        W28641  15.307   9.765   0.465 -0.1463  0.3620  0.2508
 8362W        W28642   8.852   2.882   3.329 -0.0009  0.1169 -0.0561
 8363W        W28643  17.059   4.019   0.422 -0.1378  0.0155  0.0972
 8364W        W28644  10.346   0.588   3.108 -0.0550  0.0997  0.0506
 8365W        W28645  16.945   5.656  11.475  0.1639  0.3297  0.2530
 8366W        W28646   7.211   6.808   1.929 -0.0992 -0.1943 -0.0014
 8367W        W28647  10.158  11.953  11.999 -0.1102 -0.1566  0.1339
 8368W        W28648   4.680  12.772   2.997 -0.0000 -0.1753 -0.1749
 8369W        W28649  10.877  14.083  14.044  0.1074  0.1148 -0.3836
 8370W        W28650   5.051  15.492   4.359  0.1111 -0.3087 -0.0996
 8371W        W28651  18.571   6.205  10.758 -0.0641 -0.1028 -0.0700
 8372W        W28652  15.338  19.460   2.484  0.0637 -0.1575  0.1558
 8373W        W28653   5.361   8.532   4.505  0.0030 -0.1542 -0.4769
 8374W        W28654  11.224   5.616  13.790  0.0834 -0.3882 -0.2595
 8375W        W28655  16.947  15.033  13.508 -0.2126  0.1962  0.2372
 8376W        W28656  18.738  13.605  13.340  0.2156  0.1247  0.0618
 8377W        W28657   4.930   0.540  13.947 -0.0391  0.1114  0.4059
 8378W        W28658  16.383  10.377  11.913 -0.1665 -0.0022 -0.1269
 8379W        W28659   3.935   2.705  11.213 -0.2993  0.0819 -0.1332
 8380W        W28660  13.302  16.397  13.694  0.1271  0.2725 -0.2061
 8381W        W28661  15.406  14.606  10.185 -0.3810 -0.0675 -0.2956
 8382W        W28662  16.790   3.192  11.508 -0.1688 -0.1902  0.2680
 8383W        W28663   7.416   6.814   3.800  0.0071 -0.2953  0.1080
 8384W        W28664  12.413  19.273  10.234  0.0214 -0.1336 -0.0818
 8385W        W28665   0.580  13.873   2.615 -0.1605  0.1250 -0.1754
 8386W        W28666   4.506   6.618   5.302  0.0822 -0.0812 -0.0547
 8387W        W28667  14.234   9.470   3.535 -0.1744  0.0850 -0.0355
 8388W        W28668   7.529   8.725   3.326 -0.1871  0.1052 -0.1409
 8389W        W28669  12.973   3.664   3.993  0.0621 -0.1198  0.1522
 8390W        W28670  12.596  15.393   3.676 -0.0342 -0.1452 -0.4518
 8391W        W28671   6.938   6.060   3.498  0.0768  0.1142  0.0764
 8392W        W28672   8.637   9.887   1.771 -0.1044 -0.2462 -0.1259
 8393W        W28673  15.773   5.843  12.015 -0.2133  0.0301 -0.0378
 8394W        W28674  13.956  14.847   3.576 -0.1865  0.2067  0.1187
 8395W        W28675   8.339  17.784  12.039  0.1921  0.2500 -0.4258
 8396W        W28676   5.950  10.505  12.767 -0.3953  0.0169  0.0815
 8397W        W28677  12.081   7.166   4.180  0.2604  0.0929  0.0339
 8398W        W28678   3.517  10.994   3.517 -0.1395  0.0406 -0.2067
 8399W        W28679  19.333  12.275   0.079 -0.2864 -0.2991 -0.2172
 8400W        W28680   6.663  12.909   1.148  0.1699  0.1490  0.4163
 8401W        W28681   1.845   5.684  11.051  0.0391 -0.0747 -0.1490
 8402W        W28682  12.065   2.157   1.737  0.1392 -0.2219  0.0826
 8403W        W28683  10.688   2.475   3.717 -0.1379 -0.1442 -0.0317
 8404W        W28684   8.518  15.367   1.019  0.2887  0.0895  0.0547
 8405W        W28685   5.378  13.564  13.305  0.1835  0.1253 -0.1152
 8406W        W28686  12.077  16.849  13.564  0.2045 -0.0367 -0.2304
 8407W        W28687   8.694  16.141   3.006 -0.0375  0.1075  0.3041
 8408W        W28688   1.509   8.449  13.457  0.0021 -0.0107 -0.1366
 8409W        W28689   9.268  18.355  11.441 -0.0026 -0.0123  0.1981
 8410W        W28690  12.539  10.458   3.941  0.0399  0.0459  0.1181
 8411W        W28691  13.803   1.409   1.720  0.2085  0.0699  0.0447
 8412W        W28692   5.027   8.968  13.977 -0.0666 -0.0110 -0.1134
 8413W        W28693   5.126  18.354  11.901  0.0333  0.0371 -0.5142
 8414W        W28694   6.573   9.793   0.354  0.0985  0.0268 -0.1129
 8415W        W28695   1.062   4.050   2.144 -0.1318  0.1764 -0.0347
 8416W        W28696  13.660   8.339   0.818  0.1801  0.0748 -0.1393
 8417W        W28697  16.935  18.427   4.716 -0.0580 -0.2244  0.5958
 8418W        W28698   4.973  10.001  12.970  0.1757 -0.1449 -0.2275
 8419W        W28699  16.238  10.659   1.272 -0.0519 -0.0051 -0.3313
 8420W        W28700  13.868  17.072  12.639  0.0673 -0.0127 -0.1939
 8421W        W28701   3.880   5.957  13.645 -0.0096 -0.2307 -0.0498
 8422W        W28702   7.751  14.438   0.582 -0.0729  0.0596  0.1427
 8423W        W28703   7.651   4.756  13.733  0.0212 -0.2714 -0.0517
 8424W        W28704   8.346  15.867  10.600 -0.1373 -0.0349  0.2167
 8425W        W28705   9.321  10.248   1.935 -0.5949  0.2958 -0.1260
 8426W        W28706   2.006   5.709   0.935  0.0497 -0.2711 -0.1198
 8427W        W28707   6.259  11.479  12.305  0.1030  0.0461  0.2391
 8428W        W28708   3.675  10.825  13.957  0.2512 -0.0007 -0.1890
 8429W        W28709  17.498  12.243  11.330 -0.3971  0.2245  0.0686
 8430W        W28710   5.236   1.900  13.873 -0.1033  0.1386  0.3694
 8431W        W28711   5.035  18.606  12.824  0.0717  0.2376  0.0140
 8432W        W28712  10.651  17.684   3.776  0.1859 -0.2822  0.0827
 8433W        W28713   4.399  12.722   9.839  0.2816 -0.1550 -0.0027
 8434W        W28714  16.655   7.030   3.460  0.1477 -0.4818 -0.0562
 8435W        W28715   0.962   4.317   0.269  0.0963  0.0255 -0.1011
 8436W        W28716  14.397  11.914  12.873  0.1337 -0.2818  0.1944
 8437W        W28717  14.717  17.803   0.864  0.0011 -0.1540  0.2378
 8438W        W28718   8.576   8.535   1.142 -0.1525 -0.1471 -0.1924
 8439W        W28719   2.164  19.396  12.398 -0.1256 -0.0811  0.3040
 8440W        W28720   6.737   0.776   1.805  0.1879  0.3585 -0.0296
 8441W        W28721  14.341   3.069   9.704 -0.3804 -0.1117 -0.2905
 8442W        W28722  19.284  17.444   2.503 -0.1429 -0.2701 -0.1304
 8443W        W28723   4.812  19.421   2.004  0.2373  0.1421  0.0064
 8444W        W28724   8.842  18.164   3.501 -0.0984 -0.2582  0.0871
 8445W        W28725   4.376  10.101   2.197  0.1348 -0.1697  0.1575
 8446W        W28726  18.518  14.122   3.018  0.1466  0.1083  0.0926
 8447W        W28727   0.629   7.853  13.761 -0.4949  0.1449  0.1094
 8448W        W28728  19.495   8.451  10.632 -0.1155 -0.1293 -0.0630
 8449W        W28729  17.505   7.522  11.227  0.0613  0.1076  0.0737
 8450W        W28730  14.924  18.147   1.295  0.0751 -0.2875  0.0817
 8451W        W28731  12.076   3.199  12.352 -0.2457 -0.1095  0.1487
 8452W        W28732   9.407   4.676  11.740  0.0592 -0.0491 -0.0395
 8453W        W28733  11.793  17.000   3.664 -0.0807  0.0018 -0.1789
 8454W        W28734   4.112   8.951   3.538 -0.0962 -0.0524  0.3223
 8455W        W28735  12.734  19.724   3.114 -0.1249  0.1484 -0.0500
 8456W        W28736  13.176  12.239  11.497  0.0358 -0.2106  0.2539
 8457W        W28737  16.427  14.004  12.850  0.0840  0.2747 -0.3094
 8458W        W28738   9.473  16.333   1.323 -0.0046 -0.1514 -0.0450
 8459W        W28739   9.330  13.266  11.529  0.1053  0.1060  0.0361
 8460W        W28740   4.281  13.285   2.451 -0.2194 -0.0293 -0.0037
 8461W        W28741  12.358  19.390  10.813 -0.1045  0.0061  0.0423
 8462W        W28742   7.133  14.265  13.809 -0.2526 -0.0792 -0.1203
 8463W        W28743   6.685   9.307  10.376  0.0013  0.2232 -0.1270
 8464W        W28744   8.018   0.877  12.438 -0.4746  0.2799  0.3262
 8465W        W28745   2.912  16.328  11.836  0.0322  0.0766  0.0854
 8466W        W28746   1.895  15.179  12.634 -0.0452 -0.0623 -0.0222
 8467W        W28747   2.690   1.867  10.689  0.1828 -0.1200  0.1140
 8468W        W28748   2.526   1.430  12.278  0.6403  0.0532 -0.2405
 8469W        W28749  12.381   2.311  10.212 -0.2113 -0.2929 -0.1684
 8470W        W28750   1.647   2.257  11.630  0.0072 -0.5405 -0.0515
 8471W        W28751   3.005   8.779   2.802 -0.1887 -0.2198  0.0928
 8472W        W28752   8.083   4.087   2.149 -0.0352 -0.0888 -0.0836
 8473W        W28753  15.143   7.140  12.235 -0.0190  0.0950  0.0154
 8474W        W28754   8.248  15.039   3.560 -0.1071  0.3646 -0.0479
 8475W        W28755   0.749   1.711   0.012  0.1444 -0.1511  0.0760
 8476W        W28756  13.586  17.383  11.383  0.0347  0.0877  0.0363
 8477W        W28757   0.612   0.570  11.115  0.1161 -0.1451 -0.2454
 8478W        W28758   6.901  18.091   1.887 -0.3645  0.0792 -0.1835
 8479W        W28759   9.647  16.818  12.016 -0.1032  0.1178  0.1535
 8480W        W28760  17.467  13.938   1.841 -0.0291  0.0815  0.1013
 8481W        W28761  12.053   2.314  12.795 -0.2964 -0.0403  0.0006
 8482W        W28762  14.021  14.818  11.108  0.1053  0.1670  0.0316
 8483W        W28763  17.672   1.868  12.441 -0.2203 -0.3292  0.1531
 8484W        W28764  14.447   2.442   1.279 -0.2283 -0.0548  0.1581
 8485W        W28765  12.797  14.403  12.669  0.0405  0.0070 -0.0786
 8486W        W28766   7.427   2.640  13.309 -0.0895 -0.4621 -0.1025
 8487W        W28767  13.286   7.862  10.427 -0.3233 -0.2636 -0.1259
 8488W        W28768   5.332  19.352   2.053  0.2561  0.0590  0.0464
 8489W        W28769  10.617   4.346  11.151  0.2480 -0.0344 -0.0733
 8490W        W28770   7.794  13.976   1.129  0.1044 -0.2977  0.0008
 8491W        W28771  16.053   5.803  12.418 -0.0129 -0.0507  0.0203
 8492W        W28772  10.448   5.219   8.777 -0.1583  0.1608 -0.1612
 8493W        W28773   3.100  11.701   2.023 -0.2193 -0.1505 -0.0540
 8494W        W28774  13.313  13.635   4.151 -0.2440  0.3089 -0.1059
 8495W        W28775  19.535   3.168  12.150  0.1364 -0.0576  0.0220
 8496W        W28776  11.480  16.587  11.782  0.0521  0.2004  0.1943
 8497W        W28777  15.998   7.628  10.275  0.0298  0.1010  0.0352
 8498W        W28778  15.247   0.810  12.874  0.0139 -0.1054  0.0267
 8499W        W28779   8.863   6.622  13.682 -0.0590  0.1428 -0.1321
 8500W        W28780   1.929  15.670  12.221  0.0949  0.0487  0.0047
 8501W        W28781  11.443   0.523   1.454  0.2240  0.1030 -0.1554
 8502W        W28782   3.182   5.111   2.333 -0.1373 -0.0693  0.0489
 8503W        W28783  18.961  19.610   1.733 -0.0826 -0.1922 -0.0225
 8504W        W28784  16.113   9.512   2.329  0.0781 -0.2989 -0.1588
 8505W        W28785  16.158  12.607   0.332  0.0810  0.2791 -0.3945
 8506W        W28786   6.788   8.120   3.114 -0.0243  0.0135 -0.2834
 8507W        W28787  14.351   3.235  12.643  0.0236 -0.1823  0.0436
 8508W        W28788  10.192   0.570  10.490 -0.1997  0.1933 -0.2436
 8509W        W28789   4.578  11.039  13.720  0.0328  0.2541 -0.1468
 8510W        W28790  15.406  14.659  12.209 -0.6175 -0.4811 -0.3117
 8511W        W28791  12.908  13.359  13.677 -0.0564 -0.1037  0.0759
 8512W        W28792   2.564   6.175  13.274 -0.0952 -0.0171  0.0503
 8513W        W28793   3.068  13.524   0.331 -0.2951 -0.1441  0.2210
 8514W        W28794  13.390   8.504   3.165 -0.0118  0.1443  0.1558
 8515W        W28795   6.334  12.540   1.208 -0.2102  0.1564 -0.0035
 8516W        W28796  13.259   6.668   1.176  0.1348  0.1472  0.0181
 8517W        W28797  15.331   2.086   0.909 -0.0403  0.1919  0.1201
 8518W        W28798   4.175  17.510   1.173  0.4861  0.1227  0.0669
 8519W        W28799   7.088  18.543   3.502  0.0628  0.0095  0.1579
 8520W        W28800  10.847  16.048   3.528 -0.3149 -0.1280 -0.0699
 8521W        W28801  12.157  19.737   1.332 -0.2087 -0.0014 -0.1998
 8522W        W28802  19.443  10.020   2.105 -0.0931  0.2015  0.0600
 8523W        W28803   7.879   1.239  12.180 -0.1647  0.1344 -0.0777
 8524W        W28804  17.315  16.989   4.059  0.1528 -0.0191 -0.0536
 8525W        W28805   9.429  10.644   2.178  0.0802 -0.1330  0.0632
 8526W        W28806  15.661   2.488  11.287 -0.1099  0.1183 -0.2055
 8527W        W28807  19.621   1.458  11.181 -0.2123 -0.1040  0.4183
 8528W        W28808  14.966  13.070   3.683  0.1365  0.0340  0.2087
 8529W        W28809  14.749   7.714  11.808 -0.0025 -0.4399 -0.2646
 8530W        W28810  17.435   8.606   0.921 -0.0609 -0.1218  0.1468
 8531W        W28811  18.747   0.370   0.671  0.0468  0.4362 -0.2944
 8532W        W28812  13.467   7.236  13.988  0.0402  0.0918 -0.0061
 8533W        W28813  15.148   1.362  10.561 -0.2046 -0.3977 -0.0513
 8534W        W28814   9.343   5.006  10.270 -0.2426  0.0199  0.0128
 8535W        W28815   3.715  11.028  13.111  0.1791  0.2969  0.3366
 8536W        W28816  14.644   9.994  10.544  0.0425  0.0347 -0.2689
 8537W        W28817  11.148  12.614  13.517  0.4141  0.4334 -0.3798
 8538W        W28818  15.763   9.590  12.926 -0.3565  0.0452 -0.0940
 8539W        W28819   1.140  19.206  11.673  0.0294  0.0496  0.0975
 8540W        W28820  18.608   1.017   3.818  0.0095 -0.1382  0.1540
 8541W        W28821  14.545   8.395   0.146 -0.0602  0.2477 -0.2220
 8542W        W28822  12.857   2.079  13.122 -0.1076 -0.1347 -0.0085
 8543W        W28823   2.644   6.095   3.867  0.0387 -0.1329  0.0403
 8544W        W28824  18.602   0.912  12.609  0.3694  0.0962 -0.3129
 8545W        W28825  18.319  10.975   0.623 -0.2085 -0.0468  0.0098
 8546W        W28826  19.076   2.425   0.591 -0.1765 -0.0092 -0.1059
 8547W        W28827  14.878   7.608   0.298 -0.1701  0.3415 -0.1737
 8548W        W28828   8.164   4.146   3.516 -0.0040  0.0078 -0.4245
 8549W        W28829  17.899   1.531  12.783  0.1462 -0.2593  0.0031
 8550W        W28830  19.243   7.491   2.723  0.2859 -0.4962 -0.2214
 8551W        W28831   1.267   5.451  12.731  0.2737 -0.2432  0.0025
 8552W        W28832   2.705  13.952  10.834 -0.0829  0.0420  0.1377
 8553W        W28833  12.616  10.600  11.585  0.1568 -0.3013 -0.0419
 8554W        W28834   9.392   6.123   0.315  0.1395  0.1953 -0.3241
 8555W        W28835   3.536   6.031   3.696 -0.2665  0.0631  0.0711
 8556W        W28836  14.857   2.085   1.197 -0.0132  0.1646  0.1379
 8557W        W28837   8.174  14.142  10.606 -0.0675 -0.0424 -0.1364
 8558W        W28838   5.564  15.868   9.453 -0.1497 -0.1028 -0.0856
 8559W        W28839  16.952   4.045   9.410 -0.3935  0.3230  0.2545
 8560W        W28840  17.906  14.650  12.913  0.0975  0.2303 -0.3442
 8561W        W28841  18.915   7.697   0.097 -0.3399 -0.0197 -0.2077
 8562W        W28842  15.111  16.437   0.506 -0.3631  0.1795 -0.0847
 8563W        W28843   9.506  17.966  12.829  0.1454 -0.0890 -0.0596
 8564W        W28844  14.822  15.535  13.031 -0.1857  0.1887  0.0846
 8565W        W28845   1.131  19.556  11.973  0.0578  0.1608  0.0042
 8566W        W28846  16.950  17.201   2.521 -0.0540 -0.0280  0.0908
 8567W        W28847  12.829   4.318  13.325  0.0379  0.0868  0.1478
 8568W        W28848   1.520   1.075  11.987 -0.1750  0.1622  0.1296
 8569W        W28849   1.027  13.831   3.583 -0.2320  0.0764  0.1016
 8570W        W28850   2.142  17.643   1.216  0.1847 -0.1698  0.1138
 8571W        W28851  10.721   7.141   2.003  0.0017 -0.0520  0.0960
 8572W        W28852  10.273  12.608  10.557 -0.0791 -0.1021 -0.2503
 8573W        W28853   7.405  14.818   3.447  0.2204  0.0308  0.3276
 8574W        W28854  10.800   2.243  10.887  0.0254  0.0968 -0.2390
 8575W        W28855  17.945   9.586   3.167  0.1673  0.0979  0.0750
 8576W        W28856  13.387   0.460   1.166 -0.0765  0.0155  0.0683
 8577W        W28857   7.424   5.807  12.581  0.0662 -0.1634  0.1301
 8578W        W28858   8.661   6.164   3.677  0.1459  0.2635  0.0707
 8579W        W28859   4.394   2.863  13.790  0.0383  0.0267 -0.1217
 8580W        W28860   8.013  10.893   5.099 -0.0806  0.0746 -0.1193
 8581W        W28861  14.239   3.741  11.187 -0.4680  0.0248  0.1381
 8582W        W28862   2.972   0.064  12.798  0.2868  0.2466 -0.0990
 8583W        W28863  15.085   6.075   0.006  0.1315 -0.3878  0.1367
 8584W        W28864   9.851   6.585   1.075 -0.1222 -0.1306 -0.3459
 8585W        W28865   3.634   7.523   3.786 -0.1906  0.0118 -0.1462
 8586W        W28866   8.470   2.464  11.950 -0.0588  0.1037 -0.0872
 8587W        W28867   2.208  11.958  11.033 -0.0186 -0.2284  0.0191
 8588W        W28868   7.233   3.706  13.537  0.0430 -0.1246  0.0802
 8589W        W28869   5.672   2.533  13.334  0.0800 -0.1453  0.1341
 8590W        W28870   5.718  13.646  10.451  0.2538  0.0640 -0.3478
 8591W        W28871  17.150  11.688   1.590 -0.0060 -0.0883 -0.3115
 8592W        W28872  17.267  10.827  11.942 -0.1077  0.4277  0.0703
 8593W        W28873   2.584   7.211  12.043  0.0904  0.0035  0.1287
 8594W        W28874   5.295   9.078  11.951  0.0977 -0.0033 -0.2977
 8595W        W28875   2.930  16.790  11.621  0.3699  0.1168  0.3735
 8596W        W28876  17.325   1.319  11.115 -0.2660  0.1442 -0.2469
 8597W        W28877   2.633  17.108   2.202 -0.1578  0.1969  0.1098
 8598W        W28878   6.100   5.568   1.344 -0.0686  0.1078 -0.6238
 8599W        W28879   2.770  15.966   0.838  0.1264 -0.0461 -0.1472
 8600W        W28880  18.042  15.427   1.870 -0.1261 -0.1864 -0.0284
 8601W        W28881  18.969   8.267   3.771 -0.0087  0.1206  0.0116
 8602W        W28882  16.959   9.802  11.288 -0.1336  0.1063  0.2353
 8603W        W28883   4.076   2.819   4.598 -0.1322  0.1290  0.1837
 8604W        W28884  12.766   3.246   0.905  0.1587 -0.0462  0.1509
 8605W        W28885   1.926   9.781   4.662 -0.5097 -0.0975 -0.1535
 8606W        W28886  16.604  16.924  10.267  0.0080 -0.1817 -0.3479
 8607W        W28887   2.713  14.593   2.755  0.1821 -0.0254 -0.0725
 8608W        W28888  14.345   8.010  10.768 -0.0035 -0.2200  0.0307
 8609W        W28889  16.008   3.815   0.467 -0.0593 -0.0375  0.1758
 8610W        W28890   5.563  14.107  11.162 -0.1009  0.0420 -0.3543
 8611W        W28891  10.510   7.874   1.327 -0.2502 -0.1944 -0.1276
 8612W        W28892  19.582   4.348  13.575 -0.0591  0.4203 -0.2517
 8613W        W28893   6.863  12.534  13.636  0.2269 -0.0078  0.0989
 8614W        W28894  15.392  13.245  13.109  0.1059 -0.1391  0.2865
 8615W        W28895  17.088   6.307  13.195 -0.0267 -0.1373 -0.1260
 8616W        W28896   0.680   7.887  12.321  0.2987  0.2160  0.0363
 8617W        W28897   9.852  18.001  11.306  0.0880  0.2274 -0.0433
 8618W        W28898  17.250   2.182  10.630 -0.0808  0.3351 -0.0790
 8619W        W28899  14.280   0.358  10.711 -0.0267 -0.0139  0.1713
 8620W        W28900  18.286   3.613   3.239 -0.2553  0.1300 -0.1663
 8621W        W28901  18.963   7.436  13.313  0.0021 -0.2108  0.3419
 8622W        W28902  18.948   3.553   0.251 -0.2028 -0.0472 -0.0126
 8623W        W28903  15.317  13.181   1.096  0.0742 -0.2115  0.0248
 8624W        W28904   3.103  13.136  11.171 -0.2778  0.0694 -0.1284
 8625W        W28905  17.163  16.687   2.442  0.1857 -0.1880  0.3130
 8626W        W28906  10.100   4.596  10.322 -0.0079 -0.0715  0.0337
 8627W        W28907  15.605  11.778   2.901  0.1730  0.2345 -0.0293
 8628W        W28908  19.715   7.645  11.003 -0.0371  0.1039  0.2106
 8629W        W28909   5.193   2.044  10.880  0.0367 -0.2397  0.1705
 8630W        W28910  10.882   3.096   2.876  0.0850 -0.2349 -0.1249
 8631W        W28911   4.759   4.053  10.300  0.1354  0.2306 -0.3311
 8632W        W28912   5.480  17.140  10.850 -0.0748  0.1105  0.0038
 8633W        W28913   1.726   8.302  11.307  0.0979  0.0459  0.0655
 8634W        W28914   4.215  13.922  12.084  0.2378 -0.0998 -0.1286
 8635W        W28915   8.802  13.357  13.863 -0.4014 -0.0157 -0.3088
 8636W        W28916   2.589   2.980   2.228  0.1086  0.2189 -0.1684
 8637W        W28917   0.546  17.770  14.078 -0.1784 -0.1469 -0.0629
 8638W        W28918   6.651   1.726  14.075  0.3173 -0.2274 -0.2087
 8639W        W28919  18.251   1.821   3.382 -0.2517  0.0702 -0.0701
 8640W        W28920   1.123  19.546   3.609 -0.0212 -0.1898  0.0737
 8641W        W28921   9.400  11.722  13.193 -0.2722 -0.2034 -0.0384
 8642W        W28922  10.972  18.321  11.362 -0.0925  0.5539  0.1353
 8643W        W28923   1.738  11.317  13.588 -0.0378  0.0501 -0.0540
 8644W        W28924  13.804   7.122  13.597  0.1379  0.2150 -0.1213
 8645W        W28925  18.337  13.486   3.100 -0.0157 -0.1343 -0.0997
 8646W        W28926  11.486   9.032  12.909 -0.1326  0.1603  0.4130
 8647W        W28927  12.729  13.437  11.280  0.0379  0.2210  0.0272
 8648W        W28928  15.006   9.552  11.240  0.0164 -0.0684  0.0216
 8649W        W28929  16.284   8.551  13.848 -0.3285 -0.0459 -0.2487
 8650W        W28930  15.210   8.371  10.340  0.3401  0.2344 -0.2357
 8651W        W28931   3.365   6.314   0.358  0.2442 -0.0863  0.4312
 8652W        W28932  18.899   2.459   4.641 -0.1305 -0.0678 -0.1295
 8653W        W28933  18.046   6.245   1.664 -0.1643 -0.0943  0.0067
 8654W        W28934  14.478  15.306   1.616 -0.2258  0.1340 -0.0974
 8655W        W28935  12.535  14.967   0.745  0.2374  0.0420  0.0388
 8656W        W28936   3.832  16.351   2.837  0.1313 -0.0604  0.3097
 8657W        W28937   9.849   0.823  11.885  0.1980  0.2984  0.1661
 8658W        W28938   0.859   8.447   2.284  0.1676  0.3599 -0.1752
 8659W        W28939  14.524  16.859   1.352 -0.1647  0.2309  0.1631
 8660W        W28940  17.048  12.147   1.920  0.0231  0.1967  0.1366
 8661W        W28941   1.566  19.583   1.086 -0.1486 -0.1640 -0.3745
 8662W        W28942   3.476   6.062   2.035  0.0653  0.1120 -0.4015
 8663W        W28943  17.742  18.809   9.405  0.1757  0.1161 -0.0288
 8664W        W28944  10.035   5.067  12.435  0.1036 -0.1960 -0.4066
 8665W        W28945  15.895   1.842   0.275  0.0532 -0.1480  0.0345
 8666W        W28946   8.345  16.418  10.628 -0.2579  0.0548 -0.1499
 8667W        W28947  12.326  11.663   1.349 -0.2647  0.0873 -0.3294
 8668W        W28948   4.879  16.510   2.599  0.0874  0.3716 -0.5606
 8669W        W28949  11.665  11.600   3.741 -0.1508  0.2152  0.0895
 8670W        W28950   5.938   9.691   3.427  0.1263  0.0966 -0.0619
 8671W        W28951   9.188   5.511   1.142  0.1185  0.1151  0.0377
 8672W        W28952   3.756   6.196  12.398  0.1655  0.3744  0.0359
 8673W        W28953   0.785  14.118  10.276  0.1048  0.5538 -0.0941
 8674W        W28954   9.648  19.248   1.722  0.1767 -0.2450 -0.1186
 8675W        W28955   5.024   7.107   0.826  0.4240  0.1814  0.1607
 8676W        W28956  13.303   2.120   0.379 -0.1886 -0.0585  0.3019
 8677W        W28957  19.665   7.030  10.742 -0.1483  0.0906  0.0710
 8678W        W28958   8.752   6.987  10.951  0.0140 -0.0573  0.1677
 8679W        W28959   0.208  14.630   4.432  0.0666 -0.1133  0.1592
 8680W        W28960   0.093   7.250   2.074  0.1164  0.1194 -0.2021
 8681W        W28961  18.778   2.866   2.653 -0.1640 -0.3509 -0.0216
 8682W        W28962  18.127   5.450  12.982  0.2743  0.0131 -0.0383
 8683W        W28963  17.397   3.392   1.176  0.0131 -0.2135  0.2387
 8684W        W28964  10.387  17.994  12.989 -0.0505  0.0277 -0.0334
 8685W        W28965  12.015  17.536  12.674  0.1228 -0.0914 -0.0609
 8686W        W28966  18.541  16.738  13.743  0.1440 -0.0776 -0.1116
 8687W        W28967   0.572  15.854   2.596  0.0187 -0.0836  0.2457
 8688W        W28968   6.530   4.166  14.029 -0.1138 -0.2180  0.1325
 8689W        W28969   5.635  11.930   0.158 -0.0115  0.0826  0.5201
 8690W        W28970  10.568   1.968   1.487 -0.0756  0.4686  0.3563
 8691W        W28971   0.130   7.916   2.302  0.0208 -0.0380  0.1199
 8692W        W28972   6.027  16.873   2.456  0.1278 -0.1288 -0.0427
 8693W        W28973   4.885   0.314  12.133 -0.0247 -0.4210  0.1753
 8694W        W28974   8.196  18.093  12.507  0.0283  0.3821 -0.5295
 8695W        W28975  16.665  19.323  12.517 -0.2187 -0.1306  0.1949
 8696W        W28976   9.473   5.242   3.277 -0.2100  0.0373  0.2473
 8697W        W28977  18.590   1.158  13.901 -0.3066  0.5111 -0.0314
 8698W        W28978   6.006   5.935  11.848 -0.3392 -0.1913 -0.2194
 8699W        W28979   9.083  10.304   1.162  0.1102  0.3388 -0.1694
 8700W        W28980   4.687  19.649  10.728 -0.2421  0.1815  0.1832
 8701W        W28981  14.899  14.282   0.198  0.0440  0.0021 -0.1364
 8702W        W28982  12.108  17.586  11.238  0.1753 -0.0204 -0.2149
 8703W        W28983   5.329  12.974   4.144  0.2122 -0.3094 -0.2037
 8704W        W28984  13.535   9.066  12.247  0.5152  0.0019 -0.0390
 8705W        W28985  10.319   4.787   8.917  0.0416 -0.0323  0.1689
 8706W        W28986   5.695  14.680   3.809 -0.3717  0.1028 -0.0318
 8707W        W28987  13.373   1.386   1.408 -0.1169 -0.0099 -0.1393
 8708W        W28988  13.759   0.313  12.565  0.0247 -0.0328 -0.3362
 8709W        W28989  11.303   0.665  13.560  0.1182 -0.4271  0.2346
 8710W        W28990  17.435  12.781   2.533  0.0756 -0.1365 -0.1144
 8711W        W28991  17.254   5.747   3.340  0.2639 -0.0005 -0.4530
 8712W        W28992  11.470   5.731  10.304 -0.1008 -0.0523 -0.1033
 8713W        W28993   0.039   5.965  13.632 -0.1083  0.1718  0.1260
 8714W        W28994   6.973  12.178   2.858 -0.1518  0.1963  0.0581
 8715W        W28995  15.177  12.312   1.559  0.0068  0.1812 -0.0550
 8716W        W28996   3.195  15.297  12.606  0.0505 -0.0100  0.4572
 8717W        W28997  18.806   2.064   2.628 -0.1429  0.2452 -0.1566
 8718W        W28998   5.468  11.345  13.457 -0.0492 -0.2395 -0.0374
 8719W        W28999   8.868   4.005  10.062 -0.4003 -0.0442  0.2339
 8720W        W29000   9.282  10.221   2.405 -0.2354  0.1089 -0.2403
 8721W        W29001   9.868  11.599   3.557  0.0274 -0.0181  0.1730
 8722W        W29002  15.635  15.862   9.931  0.4090 -0.1885 -0.2830
 8723W        W29003  13.550  11.325   0.153 -0.3480  0.1177  0.0720
 8724W        W29004  18.783   6.509   0.794 -0.1790 -0.4081 -0.1242
 8725W        W29005   9.617   0.329  14.084  0.1110  0.0749  0.1247
 8726W        W29006   6.496  14.775   4.245  0.0672  0.0428 -0.1175
 8727W        W29007   0.593   2.515  10.295 -0.1712 -0.3847  0.3703
 8728W        W29008   7.467  12.315  11.855  0.2105 -0.1364  0.2426
 8729W        W29009   0.874   6.234  10.549  0.1279 -0.0782  0.0963
 8730W        W29010   6.826  12.441   1.273  0.2444 -0.2522  0.0494
 8731W        W29011  10.951  15.232  13.247  0.0370 -0.1608 -0.3445
 8732W        W29012   4.497   7.027   0.877 -0.2726 -0.0897  0.0790
 8733W        W29013   3.976  15.159  12.714  0.0343  0.1000 -0.0591
 8734W        W29014   8.467  15.788   1.984 -0.2086  0.2033 -0.0527
 8735W        W29015  18.734   3.060  13.198 -0.1721 -0.2397 -0.0912
 8736W        W29016   1.101  14.881  13.623 -0.1176 -0.1254  0.2355
 8737W        W29017  18.148  16.030  10.819  0.1486  0.1470 -0.1722
 8738W        W29018  16.907  11.080   0.486  0.0750 -0.0446 -0.0477
 8739W        W29019   2.014  14.316   1.253 -0.0118 -0.0056 -0.0709
 8740W        W29020  14.652  13.088  13.673  0.0680 -0.4436 -0.0619
 8741W        W29021  10.510   4.742  10.018 -0.2641  0.0274 -0.1759
 8742W        W29022  18.967   8.120  12.638 -0.0526  0.0436 -0.1163
 8743W        W29023  16.578  16.482   3.159  0.0414 -0.2743  0.2742
 8744W        W29024  13.736   0.745   1.379 -0.2271 -0.1386 -0.1659
 8745W        W29025  15.323   2.163   1.449  0.0924 -0.2370  0.0435
 8746W        W29026   3.218  10.925  12.993 -0.0851 -0.0413  0.2772
 8747W        W29027  14.505  15.010   3.706  0.0421 -0.1669  0.0038
 8748W        W29028  15.407  15.699   1.042 -0.2562 -0.0286 -0.1059
 8749W        W29029   4.177  10.635   2.820 -0.1216  0.0743 -0.0066
 8750W        W29030  14.332   8.878   0.596 -0.1263  0.2474 -0.0408
 8751W        W29031  15.963   1.322  10.760 -0.2915  0.0762  0.1426
 8752W        W29032   0.266  11.312   3.713  0.5618  0.0319  0.1191
 8753W        W29033  10.584   5.598  11.951 -0.4410  0.1036  0.1306
 8754W        W29034  10.147  12.867  11.041  0.1940 -0.2995  0.3071
 8755W        W29035   2.469  17.195   1.677 -0.1773 -0.0383 -0.3908
 8756W        W29036   8.239  13.399  12.247  0.0253 -0.0921 -0.2622
 8757W        W29037  19.114  15.100  13.520  0.3238  0.0282 -0.2222
 8758W        W29038  17.638  14.124  10.022  0.3250  0.0863  0.4570
 8759W        W29039   2.920  15.037   2.525 -0.2077  0.1767  0.0817
 8760W        W29040  14.136  14.890   1.128 -0.3860 -0.1473  0.2325
 8761W        W29041  14.044  17.361   0.041 -0.1495 -0.2620  0.0069
 8762W        W29042   8.053  18.439  13.634 -0.1271  0.2502 -0.0302
 8763W        W29043  15.296  14.289  12.565  0.0065 -0.1174  0.1564
 8764W        W29044   4.521  13.882  14.076  0.0510 -0.2362  0.2112
 8765W        W29045   4.531  12.536   0.462 -0.0009  0.2077 -0.0098
 8766W        W29046   1.752   6.238  12.453 -0.2091  0.1011 -0.2009
 8767W        W29047  11.880  14.347   1.148 -0.1436  0.1742 -0.0231
 8768W        W29048  12.146   3.681  11.519  0.0866 -0.2034  0.3989
 8769W        W29049   4.557   4.353  13.797  0.1193 -0.1055 -0.2047
 8770W        W29050  18.837  15.244   1.853 -0.0598  0.0433  0.2160
 8771W        W29051   7.795  18.866  13.742 -0.0111  0.0529 -0.2396
 8772W        W29052   1.607   7.809   4.633 -0.4066  0.0666 -0.4318
 8773W        W29053  15.059  15.038  12.110 -0.0323  0.0552 -0.0181
 8774W        W29054   0.543  17.280  11.131 -0.0116 -0.6805  0.1608
 8775W        W29055   4.320   7.495  10.469 -0.0608  0.0811  0.1194
 8776W        W29056  17.228   0.766   1.454 -0.1614  0.0969  0.0828
 8777W        W29057   9.035  17.996   0.958  0.1516 -0.1351  0.2075
 8778W        W29058  17.311   9.116  12.633  0.1063 -0.0398 -0.1769
 8779W        W29059   9.919  11.292   2.060  0.2025  0.1226 -0.1738
 8780W        W29060   0.626   9.990   0.010  0.1063 -0.2403  0.0539
 8781W        W29061  11.980  18.294   1.268  0.0356  0.1265 -0.2150
 8782W        W29062  18.818  18.981   1.175 -0.0361  0.1168  0.0376
 8783W        W29063   5.872  17.689   1.639 -0.1575 -0.0499  0.2447
 8784W        W29064  19.064  15.224   3.632 -0.0386  0.0515 -0.1531
 8785W        W29065  13.340  18.223   2.657  0.0850 -0.0996  0.1255
 8786W        W29066  12.163  17.157   0.586 -0.2182 -0.0683  0.0510
 8787W        W29067  19.769   9.134   0.669  0.0888  0.0247 -0.0055
 8788W        W29068   7.177   0.589   3.339 -0.2996 -0.1220 -0.1639
 8789W        W29069   2.837  14.749  12.286 -0.1409  0.0780  0.1685
 8790W        W29070  17.592   7.554  12.196 -0.1131 -0.1410  0.1081
 8791W        W29071  15.324  13.047   0.580  0.0671 -0.0278 -0.4881
 8792W        W29072   4.505  15.013   1.036 -0.1542 -0.2858 -0.2020
 8793W        W29073   4.635  10.384   1.919 -0.3594 -0.0428  0.2225
 8794W        W29074   4.648   7.093  14.094  0.3815 -0.0704 -0.0909
 8795W        W29075   9.991   5.175   1.268 -0.3337  0.1969 -0.0023
 8796W        W29076   2.818   8.860  11.805  0.2278  0.1288 -0.1273
 8797W        W29077  13.246   2.602   0.452  0.0103 -0.1842 -0.1780
 8798W        W29078  15.123   7.716   4.448 -0.1011  0.2583  0.0413
 8799W        W29079  17.045   0.131   3.391 -0.2637 -0.1022 -0.0802
 8800W        W29080  18.035  15.541  14.032 -0.1232  0.0981  0.0187
 8801W        W29081   7.331  14.143   0.183 -0.2203  0.1694  0.2290
 8802W        W29082   3.909   4.270   4.244 -0.2234 -0.1094  0.1140
 8803W        W29083  17.600  12.790   1.524 -0.1556  0.2325 -0.1313
 8804W        W29084   5.872   1.641   1.173 -0.2826 -0.0766 -0.2277
 8805W        W29085  18.262   7.675  12.400 -0.0217 -0.2647 -0.2072
 8806W        W29086  19.652  14.927   3.227 -0.1657 -0.2798  0.3061
 8807W        W29087   9.381  11.817   0.526  0.1856 -0.0592 -0.1397
 8808W        W29088   4.786   2.900  13.368 -0.0395 -0.1992 -0.0414
 8809W        W29089  11.912   4.183   3.068 -0.0082 -0.0381 -0.2036
 8810W        W29090  11.259   3.112  13.927 -0.2282  0.2444  0.1142
 8811W        W29091  17.365   8.485   1.442 -0.0797  0.1247 -0.0478
 8812W        W29092  16.425  10.747   0.019  0.2192 -0.0389 -0.2286
 8813W        W29093  19.754   6.031   1.453  0.0514 -0.0094  0.1035
 8814W        W29094  17.813  14.033   1.279 -0.1567  0.1187 -0.1242
 8815W        W29095   0.142   5.250  10.848  0.1125 -0.2323 -0.5065
 8816W        W29096   6.676  18.133  11.341  0.0665  0.1008  0.0561
 8817W        W29097  14.420   2.631  11.375  0.0625 -0.0660  0.2326
 8818W        W29098   2.792  14.949  11.787 -0.0873  0.3660  0.3556
 8819W        W29099   8.854  18.726   0.516  0.1287  0.2947  0.2149
 8820W        W29100   2.736  15.992  13.241  0.0605 -0.1028  0.0153
 8821W        W29101   8.052   9.579  13.204 -0.1982 -0.2284  0.1350
 8822W        W29102   8.378  13.943   1.791 -0.0443  0.4600  0.2152
 8823W        W29103   7.741   1.653  12.693 -0.2328  0.1786 -0.0264
 8824W        W29104   5.748   1.196  11.130 -0.0507 -0.0844  0.0470
 8825W        W29105  11.180   4.222   3.719 -0.0465 -0.1159 -0.1032
 8826W        W29106  14.317   3.403  10.859 -0.3001  0.1079  0.0467
 8827W        W29107   8.723   7.731   2.566 -0.0070 -0.2839 -0.0265
 8828W        W29108   2.024   6.748   5.271  0.0998  0.1019 -0.3739
 8829W        W29109  15.336   8.244   2.203 -0.2013  0.2169  0.1366
 8830W        W29110  18.236  12.892   0.675 -0.1216 -0.0399 -0.1729
 8831W        W29111   6.646  17.727   0.867  0.0126  0.0662  0.2931
 8832W        W29112  18.505   0.730  13.614  0.2414 -0.0851  0.1251
 8833W        W29113  12.257   4.859  11.897  0.0008 -0.0325 -0.0707
 8834W        W29114  19.671   0.991  10.907 -0.1473  0.1595 -0.1798
 8835W        W29115   4.937  12.891  13.664 -0.1706  0.3008 -0.2308
 8836W        W29116  13.919   3.875  10.836 -0.1484 -0.1606 -0.0362
 8837W        W29117  19.232  10.472   4.149  0.1182 -0.0772 -0.0594
 8838W        W29118  12.377  18.165   1.546 -0.1267  0.3848  0.3095
 8839W        W29119  17.375  18.507  10.990  0.1278  0.1841 -0.2061
 8840W        W29120  18.444   8.227   9.976 -0.0800 -0.0088 -0.2315
 8841W        W29121  12.248  14.897   4.499 -0.1717  0.5496 -0.1148
 8842W        W29122   9.553   8.366   0.618  0.0488  0.1737  0.0449
 8843W        W29123   9.811  14.691   0.148  0.1170  0.1219 -0.1356
 8844W        W29124  12.561  15.306  12.116  0.1090 -0.1001 -0.1727
 8845W        W29125   0.224   0.187  13.317  0.3044 -0.1536 -0.2213
 8846W        W29126   8.687   2.682  12.877  0.2903  0.1945 -0.2262
 8847W        W29127  18.717   5.880  11.184  0.1814 -0.3793  0.1446
 8848W        W29128   4.716   1.155  14.076 -0.5726 -0.0413 -0.0803
 8849W        W29129   3.362   2.203   3.214 -0.0288 -0.3153 -0.1959
 8850W        W29130   2.474   9.431   3.101  0.0983 -0.3359 -0.0205
 8851W        W29131  13.149   0.916   1.300 -0.1808  0.0044 -0.1594
 8852W        W29132  10.658  14.896   4.589 -0.0168  0.1445  0.1018
 8853W        W29133   6.901   0.473   1.440  0.3522 -0.0530  0.0311
 8854W        W29134   6.014  17.461  11.123  0.1183 -0.2740  0.1502
 8855W        W29135  17.954  10.661  11.751 -0.1118  0.2000  0.0133
 8856W        W29136   1.024   5.843   0.244 -0.0161 -0.1153  0.2347
 8857W        W29137   4.819  11.490   1.862 -0.1709  0.1489 -0.0503
 8858W        W29138   7.201   4.226  10.782  0.1853  0.0684 -0.0921
 8859W        W29139   8.513   7.373   0.580  0.0848 -0.1934  0.3772
 8860W        W29140  14.670  10.610   2.498  0.2975  0.2063  0.1501
 8861W        W29141  17.564   4.825  11.943 -0.1342  0.0829 -0.1924
 8862W        W29142  12.227  11.916  10.531  0.1279  0.0671 -0.1126
 8863W        W29143  12.301   3.601  13.196  0.0276  0.0928 -0.0001
 8864W        W29144   1.821   6.834  10.536 -0.1971  0.2149 -0.0473
 8865W        W29145  15.819   0.118  11.580  0.4231  0.1368 -0.4343
 8866W        W29146  19.653  14.875   0.805 -0.1029  0.2300 -0.0635
 8867W        W29147  16.079   2.589   0.782 -0.1548 -0.0554  0.2201
 8868W        W29148   5.866   4.938   2.827  0.0125  0.0370  0.1099
 8869W        W29149   8.078  11.166  10.599 -0.0784 -0.1386  0.0408
 8870W        W29150  18.714  19.406   0.906  0.0855 -0.0695 -0.2543
 8871W        W29151   2.496  19.655   4.890 -0.1064 -0.2786  0.1117
 8872W        W29152  11.399  17.356   0.987 -0.2277 -0.5107 -0.0100
 8873W        W29153  19.305   6.412   1.180  0.2857  0.3484  0.1743
 8874W        W29154   2.109   5.627   1.723 -0.1489 -0.3250  0.1971
 8875W        W29155   5.676   7.602   1.445  0.2192 -0.0669 -0.4652
 8876W        W29156   9.669  13.295   1.254 -0.0407  0.1509 -0.2124
 8877W        W29157  13.310   6.422   1.645  0.0522 -0.3049  0.3840
 8878W        W29158  17.223  18.029  12.899  0.0599 -0.2828  0.0047
 8879W        W29159  19.468  11.693   1.383  0.2923  0.1335  0.1402
 8880W        W29160  10.210   1.903  13.172 -0.2111  0.1277  0.2242
 8881W        W29161   4.295  16.329  13.990  0.0243  0.1323  0.1800
 8882W        W29162  13.056   4.841   1.249 -0.0511 -0.1208  0.0508
 8883W        W29163  12.426  15.100   3.041  0.0538  0.1362  0.3081
 8884W        W29164  12.368   3.012   2.328  0.1533 -0.0943 -0.1778
 8885W        W29165   2.999   9.028  10.770  0.4112  0.3129  0.1089
 8886W        W29166   0.804   4.231   1.674  0.3232 -0.0289  0.3569
 8887W        W29167  13.930   4.370   4.736 -0.0302  0.1379 -0.2054
 8888W        W29168   6.587   0.839   0.080 -0.0846 -0.1977 -0.4061
 8889W        W29169   7.370  19.147  10.735  0.4749  0.0288  0.0994
 8890W        W29170  10.317  10.701  11.139 -0.1714  0.1843  0.0466
 8891W        W29171   6.397  13.344   2.663 -0.1033 -0.1151 -0.0676
 8892W        W29172   6.923   1.616  11.582 -0.0104 -0.1552 -0.0373
 8893W        W29173  11.422   0.950  10.963  0.1969 -0.0921 -0.0754
 8894W        W29174   0.513  16.812  12.856 -0.1503  0.2121 -0.0061
 8895W        W29175  12.069   5.834   3.410 -0.3252 -0.1895  0.0090
 8896W        W29176   4.017   1.795   3.711 -0.3118  0.1548 -0.1541
 8897W        W29177  15.090  11.747   2.633  0.3187  0.2050  0.4668
 8898W        W29178   9.860  11.991  10.983  0.3348 -0.2300  0.2322
 8899W        W29179  16.365   5.314   9.898 -0.0004  0.1777 -0.2194
 8900W        W29180  16.577  14.770   2.120  0.2118  0.1719 -0.1339
 8901W        W29181  10.973   5.295   2.989 -0.1033 -0.0338  0.0002
 8902W        W29182   4.641   6.704  12.075  0.0051  0.2664 -0.2556
 8903W        W29183   6.957   0.617   0.957 -0.1636 -0.1035  0.2100
 8904W        W29184  13.160  18.825   1.212 -0.1163 -0.1856 -0.0271
 8905W        W29185  15.047   5.761  10.986 -0.2561 -0.1323 -0.1105
 8906W        W29186   6.046  14.235  12.135 -0.2899 -0.0406 -0.2940
 8907W        W29187   0.100  18.282   3.374 -0.2471 -0.2721 -0.1562
 8908W        W29188  18.717  15.980   3.939  0.0045  0.2786  0.0352
 8909W        W29189  19.703   6.070  10.927 -0.1067 -0.0212 -0.1539
 8910W        W29190   0.670  17.611  12.367 -0.0165  0.4899  0.1434
 8911W        W29191   3.862  14.543  13.897  0.1960  0.1492 -0.1892
 8912W        W29192   3.091   4.094  13.559 -0.3015 -0.0068 -0.0423
 8913W        W29193   3.962   5.635  11.371  0.0520  0.3008 -0.2501
 8914W        W29194  19.416   9.212  10.793 -0.1010  0.1369 -0.2834
 8915W        W29195   4.336  10.408   0.518  0.1568  0.1192  0.2184
 8916W        W29196  17.731   0.037  12.657  0.1708  0.2128  0.1683
 8917W        W29197   3.657  12.478  13.324  0.1998  0.1825  0.3558
 8918W        W29198  15.248  13.691   2.742  0.0156 -0.1575 -0.0771
 8919W        W29199  10.374   9.070   2.030 -0.3277  0.0246  0.0456
 8920W        W29200  19.447  15.519   1.348  0.2720 -0.1592  0.1294
 8921W        W29201  15.066  10.976  12.581 -0.0352  0.2238 -0.1097
 8922W        W29202   0.018  14.751   1.618  0.1397 -0.3219 -0.2093
 8923W        W29203   9.354   4.836  12.340  0.3671  0.1438 -0.0251
 8924W        W29204  11.576   7.215  14.018 -0.1533  0.3195  0.1457
 8925W        W29205  15.810  11.874   1.506  0.1352 -0.0113 -0.2492
 8926W        W29206  11.049   3.563   0.695 -0.2126  0.0950 -0.2507
 8927W        W29207   1.769  10.463   9.996  0.0728 -0.1335  0.2071
 8928W        W29208  18.950   4.482  11.992 -0.0551  0.4465 -0.0636
 8929W        W29209   3.121   5.459   3.161 -0.1562  0.0741 -0.2522
 8930W        W29210   5.260   9.280   2.189  0.1822  0.0162  0.1088
 8931W        W29211   0.978  18.582  11.111 -0.2207 -0.1307  0.0062
 8932W        W29212  15.429  18.025   1.172 -0.2957  0.2275  0.2223
 8933W        W29213  16.460   1.908   3.707  0.0446 -0.2298  0.2468
 8934W        W29214  15.270   6.723  11.084  0.2105  0.2253 -0.1758
 8935W        W29215   3.478   3.116   2.821  0.1405 -0.0363 -0.2517
 8936W        W29216  16.542  19.633  11.159  0.0386 -0.4597 -0.0514
 8937W        W29217   0.829   0.095   2.469 -0.1379  0.0101 -0.3391
 8938W        W29218   3.424  13.696  13.022 -0.2520  0.1611  0.3028
 8939W        W29219   8.165  17.820   9.888  0.0475  0.0760  0.0732
 8940W        W29220   9.458   2.562  10.895 -0.0373 -0.0186  0.1484
 8941W        W29221   8.813  14.320  12.698 -0.0752 -0.1582 -0.2130
 8942W        W29222  13.111   5.161  11.737  0.1168 -0.1843  0.0655
 8943W        W29223  16.980   0.598   1.923 -0.1781  0.1295 -0.2449
 8944W        W29224   6.244   8.410  11.519 -0.2645  0.1361  0.0848
 8945W        W29225   5.054   5.097  11.563 -0.0212 -0.4025 -0.1115
 8946W        W29226  11.086   0.085  13.371  0.4425  0.1679  0.0298
 8947W        W29227  12.683  11.947  12.171 -0.2422  0.1471  0.3101
 8948W        W29228  19.348   4.609  12.359 -0.2666 -0.1458  0.0209
 8949W        W29229  17.540  13.658   2.253 -0.0145  0.0517 -0.1507
 8950W        W29230   2.052   4.665   0.930 -0.1098  0.0960  0.0922
 8951W        W29231  14.920   3.972   0.373  0.4922  0.2677 -0.0657
 8952W        W29232   9.658  11.703  14.084 -0.2696  0.1340  0.3990
 8953W        W29233   4.322  10.337  12.858 -0.3214  0.2277 -0.0328
 8954W        W29234   2.074  15.752   1.404 -0.0825  0.1930  0.0087
 8955W        W29235   1.908   9.210  11.677 -0.1221 -0.0414 -0.0238
 8956W        W29236   7.235  10.160   2.869  0.0170 -0.1550  0.0680
 8957W        W29237  14.362   2.149  11.451  0.3957  0.0544 -0.1281
 8958W        W29238   3.410  18.870  12.589  0.1905  0.1224 -0.1918
 8959W        W29239  15.600  13.596   1.806  0.0357 -0.0430  0.0515
 8960W        W29240   9.304   3.152   1.304 -0.0715 -0.1649  0.1005
 8961W        W29241   8.259  17.576  10.336 -0.1795  0.1564  0.4398
 8962W        W29242   6.414  13.512  10.908 -0.1661  0.0335 -0.0511
 8963W        W29243  12.740  12.681   3.351 -0.0780 -0.0178  0.1208
 8964W        W29244   1.799   7.074  13.950 -0.0920  0.1676 -0.0767
 8965W        W29245   2.515   4.955  13.015  0.0871 -0.1645  0.0979
 8966W        W29246  19.215  12.977   3.947 -0.1440 -0.2817  0.0782
 8967W        W29247   5.985  12.774  10.492  0.0921  0.1696 -0.2773
 8968W        W29248  13.923   9.189   9.402 -0.2181 -0.0526  0.1391
 8969W        W29249  18.532   8.464   9.549  0.0645  0.2172  0.4908
 8970W        W29250   1.184  14.026   0.949 -0.1889 -0.2181  0.1817
 8971W        W29251   1.351   2.818  13.109 -0.1835 -0.2661  0.0744
 8972W        W29252   0.864   2.609  12.879 -0.2694  0.0913 -0.1612
 8973W        W29253   5.889   9.611  12.724 -0.1878 -0.0055  0.1187
 8974W        W29254  15.043   8.192   4.419 -0.0648 -0.0341 -0.0454
 8975W        W29255   8.092  12.564   0.024 -0.3197  0.0829  0.0949
 8976W        W29256   8.959   1.623   2.269  0.2828 -0.0676 -0.2353
 8977W        W29257   6.652  14.825   3.509  0.1045  0.0133 -0.2148
 8978W        W29258   8.828  13.882   3.962  0.3074 -0.1801  0.0033
 8979W        W29259  16.648   1.015   2.846  0.1014 -0.2359  0.2856
 8980W        W29260   1.844   5.229   0.046  0.3210  0.2864  0.0594
 8981W        W29261   3.421  16.831  11.585 -0.4801 -0.0781  0.0131
 8982W        W29262   1.719  13.815  13.462 -0.0429  0.0020  0.2695
 8983W        W29263  19.289  18.086  13.869  0.0658  0.1071 -0.0640
 8984W        W29264   0.387   7.448   3.092  0.1039  0.2877  0.2976
 8985W        W29265  15.845  14.439  14.104  0.0532  0.1929  0.0274
 8986W        W29266   7.403   2.238  12.914 -0.0551  0.2370  0.0701
 8987W        W29267   9.833  10.836   1.818  0.0766 -0.0941  0.1205
 8988W        W29268  13.715   3.521   0.779  0.0357 -0.3788  0.0714
 8989W        W29269   4.397   8.135   3.805 -0.0045 -0.1171  0.1943
 8990W        W29270   6.964  13.943  12.481  0.0840  0.3913  0.2197
 8991W        W29271   2.921  12.909  10.777 -0.2417 -0.1199  0.4535
 8992W        W29272   5.027  11.485   4.967  0.1346  0.0578 -0.2043
 8993W        W29273  13.676  17.523  10.265 -0.1403  0.0758 -0.1635
 8994W        W29274   9.772   5.936   2.748  0.0250  0.1069  0.1755
 8995W        W29275  10.697  16.543   3.831  0.2492  0.1992 -0.1262
 8996W        W29276   1.087  10.026  10.624  0.2091 -0.0198 -0.2289
 8997W        W29277   7.702  12.962  10.943  0.1704  0.1985 -0.1004
 8998W        W29278  14.860   4.545  14.027 -0.0445 -0.2299  0.4552
 8999W        W29279   3.706  14.885   3.582 -0.0629 -0.1334 -0.2915
 9000W        W29280  18.881  11.525   1.186  0.1806  0.0363  0.1491
 9001W        W29281  14.685   1.273   2.290  0.2196  0.0590 -0.1569
 9002W        W29282   5.934  13.784  11.081  0.1355  0.1223  0.2569
 9003W        W29283  14.517   8.998  12.363  0.1758 -0.2386 -0.1063
 9004W        W29284   8.520  16.172  13.588 -0.1730  0.0714  0.0860
 9005W        W29285   1.966  16.659   1.732 -0.2755 -0.2694 -0.3136
 9006W        W29286   8.002  10.623   4.058  0.3195  0.0507  0.0803
 9007W        W29287   6.730   4.752  13.171 -0.1486 -0.2532 -0.2353
 9008W        W29288  11.898   0.110  11.993  0.0369 -0.3366  0.1927
 9009W        W29289  15.225  11.428  12.682 -0.2792 -0.0337  0.0208
 9010W        W29290   7.966  18.999  12.242  0.0254 -0.0216 -0.2430
 9011W        W29291  16.380  17.253   1.255 -0.2027  0.0279  0.1156
 9012W        W29292   9.137   9.701  10.962  0.3549 -0.0420 -0.2457
 9013W        W29293  13.730  16.413   1.129 -0.0495 -0.0492 -0.0221
 9014W        W29294   6.526  18.108   2.761  0.0567  0.0429  0.0198
 9015W        W29295   6.057   3.020  11.609 -0.1637  0.1125 -0.0637
 9016W        W29296  18.963   5.046   0.062  0.0371 -0.0887 -0.1472
 9017W        W29297  15.461   4.724  13.773 -0.1687  0.1262  0.0179
 9018W        W29298   1.320   9.597   0.059 -0.0871  0.1728 -0.0855
 9019W        W29299  17.881   6.341  13.079  0.2493 -0.0651  0.0098
 9020W        W29300  17.132  16.258  10.611  0.3057 -0.2428 -0.1018
 9021W        W29301   1.330   0.968   2.906  0.1233 -0.1437  0.1537
 9022W        W29302   5.675   7.451  13.937  0.0033  0.1667 -0.3016
 9023W        W29303  10.945  16.981  13.024  0.0340  0.1346  0.1040
 9024W        W29304   4.203  15.143   0.102 -0.1840 -0.0330  0.1033
 9025W        W29305  14.545  19.475   1.419 -0.0600 -0.1816 -0.0239
 9026W        W29306   0.783  16.754  10.940 -0.2876 -0.5512 -0.0816
 9027W        W29307  15.274  15.570  11.266 -0.1670  0.2309 -0.2687
 9028W        W29308   8.933   6.308   2.855  0.0130 -0.0045  0.1401
 9029W        W29309   1.909  10.971   3.283 -0.2490  0.0507  0.2120
 9030W        W29310  13.403   1.582  10.749  0.0397 -0.1921 -0.1329
 9031W        W29311  11.425  19.203  11.363  0.1116 -0.0983  0.1102
 9032W        W29312  14.885   0.322  13.898  0.0460  0.0949  0.2032
 9033W        W29313   8.779   3.200   3.894 -0.0043  0.0239 -0.1010
 9034W        W29314  14.477  18.325  13.229  0.0257 -0.0717 -0.1055
 9035W        W29315   1.469  12.030   1.404 -0.0674 -0.2803 -0.1924
 9036W        W29316  11.715  19.269   2.882  0.0534  0.3262  0.0933
 9037W        W29317  14.266   7.047   3.165 -0.0442 -0.0074  0.0485
 9038W        W29318  11.360   1.644  13.929 -0.0706 -0.0293  0.0360
 9039W        W29319  19.291   6.035  12.761 -0.2560 -0.1823  0.4756
 9040W        W29320   1.086  11.461   3.162 -0.1299 -0.0913  0.2876
 9041W        W29321   8.633   8.015   1.229 -0.2762  0.0735 -0.0750
 9042W        W29322   2.742  10.273   3.023 -0.0563  0.0827  0.0519
 9043W        W29323  16.978   4.703  11.848  0.0790  0.1470 -0.0293
 9044W        W29324  14.129   0.298  11.586  0.3217  0.1002 -0.0547
 9045W        W29325   5.887   3.143   1.547  0.0261 -0.1127 -0.2180
 9046W        W29326  18.770  15.237  10.392 -0.1728 -0.1492  0.1602
 9047W        W29327  13.027   2.453   2.062 -0.0413 -0.2580 -0.1158
 9048W        W29328  11.981  19.509   1.828  0.1811  0.0129 -0.2823
 9049W        W29329   2.621  15.779   2.717 -0.0224  0.1353 -0.0908
 9050W        W29330  19.177   7.037  10.970  0.0295  0.1386  0.1311
 9051W        W29331   1.419  14.767  10.650  0.0177 -0.1912  0.1039
 9052W        W29332  11.202  18.902  10.640 -0.1159 -0.0350 -0.5070
 9053W        W29333  18.042  11.417  13.777  0.0321  0.1019  0.2456
 9054W        W29334   3.016   7.969   1.091 -0.0490 -0.1544  0.4709
 9055W        W29335   8.785  13.667   1.706 -0.1795  0.2475 -0.2196
 9056W        W29336  12.357  10.779  13.129 -0.1084 -0.1154 -0.2272
 9057W        W29337   7.287   3.090  10.947 -0.3010  0.2200 -0.1426
 9058W        W29338  14.949   5.661   1.065  0.1799  0.1985  0.1134
 9059W        W29339  13.579  18.613   1.411  0.2763 -0.0089 -0.2243
 9060W        W29340   8.254   6.437   3.335  0.1230 -0.2050  0.0789
 9061W        W29341  16.126   4.637   0.882 -0.2411 -0.0354  0.1857
 9062W        W29342   2.694  19.431   1.130  0.2207 -0.3137 -0.4178
 9063W        W29343  13.910   1.994   9.829 -0.0285 -0.1859 -0.2217
 9064W        W29344  13.789  18.707   3.089  0.1782  0.0235 -0.1286
 9065W        W29345  14.466   7.956   0.583  0.0672  0.0760  0.1653
 9066W        W29346   3.458   0.193   0.111  0.1945 -0.3344  0.0626
 9067W        W29347  12.447  17.501  12.958  0.0883  0.1560 -0.0536
 9068W        W29348  12.325   0.466   1.399  0.1146  0.0146 -0.1811
 9069W        W29349  15.807   2.045  10.538  0.1611 -0.0278  0.1419
 9070W        W29350  16.414   4.795  12.557 -0.0608 -0.0091 -0.0888
 9071W        W29351  10.873   6.252  12.751  0.3554 -0.0726  0.0657
 9072W        W29352   5.515  18.671  10.803  0.1181 -0.1442 -0.3032
 9073W        W29353  15.516  17.159   9.488  0.0635  0.1666  0.0698
 9074W        W29354  15.189  14.594  13.048  0.0101  0.1596 -0.1278
 9075W        W29355   2.931  17.870  10.193 -0.0399  0.1011 -0.5158
 9076W        W29356  10.487  17.679   3.206  0.3867  0.4047 -0.3184
 9077W        W29357   8.097   5.285   3.804 -0.1001 -0.1209  0.2253
 9078W        W29358   1.303  11.248  13.312 -0.0757  0.0185  0.0756
 9079W        W29359   1.550   4.728   9.807  0.2584 -0.1260  0.0017
 9080W        W29360  14.591   3.632  11.526  0.0627 -0.1624 -0.1493
 9081W        W29361  18.596  19.599  10.847 -0.1991  0.4613 -0.2602
 9082W        W29362  12.900  11.106   1.671 -0.2220 -0.0127 -0.0583
 9083W        W29363  16.741   0.633  13.290 -0.0251  0.0319  0.0898
 9084W        W29364   4.645  13.238  11.502 -0.0120 -0.1009 -0.0190
 9085W        W29365  13.799   3.151  11.635  0.0021 -0.2537 -0.2315
 9086W        W29366   6.662  11.444   2.526 -0.3245  0.2024 -0.1935
 9087W        W29367  14.366  17.760  10.557  0.0661  0.2498  0.0269
 9088W        W29368   6.365  14.532  14.061 -0.2211  0.1206 -0.0867
 9089W        W29369   0.704  15.178   3.141 -0.3019 -0.1320  0.0410
 9090W        W29370  11.671  12.547   3.132 -0.1055 -0.1617  0.0145
 9091W        W29371   2.710   5.361  13.835  0.0155  0.0925 -0.1386
 9092W        W29372   2.000   6.290   1.160 -0.0960 -0.2650  0.1153
 9093W        W29373  12.606   5.935  12.183  0.0492  0.2626 -0.1818
 9094W        W29374  14.402   8.556   3.188 -0.0007  0.3274 -0.0632
 9095W        W29375  12.222  19.071  11.789  0.0262  0.0983 -0.0664
 9096W        W29376   9.781  10.211   2.346 -0.2920 -0.3984  0.2728
 9097W        W29377   3.254   0.963   3.110 -0.0246  0.2534 -0.1442
 9098W        W29378   4.398   0.186  12.057 -0.0727  0.1758  0.0260
 9099W        W29379   4.618   0.075  13.540  0.0098 -0.1436  0.4515
 9100W        W29380  10.710   9.862  12.392 -0.0165  0.3574  0.2848
 9101W        W29381   0.529   8.349   3.399 -0.2376 -0.1005 -0.2399
 9102W        W29382  12.378  16.846  13.101  0.0540  0.0893 -0.1012
 9103W        W29383  12.494  15.254  12.698  0.3841  0.0454 -0.0332
 9104W        W29384  15.123  11.259   3.873 -0.2208  0.0378 -0.1187
 9105W        W29385   8.580   0.373   1.669 -0.0801 -0.0750  0.1271
 9106W        W29386   3.276  16.082   1.670 -0.0223 -0.2545 -0.0429
 9107W        W29387  14.665  15.456   2.137  0.1337 -0.6386 -0.3596
 9108W        W29388   0.223  12.960  11.962  0.0894 -0.0256  0.0451
 9109W        W29389  16.560   9.316   3.024  0.0357  0.0225 -0.0438
 9110W        W29390  16.182  16.889   1.614 -0.4015  0.0978 -0.0853
 9111W        W29391  12.372  19.708  13.967 -0.0932 -0.0733  0.0757
 9112W        W29392   6.354   8.461   0.598  0.2549  0.2699 -0.0196
 9113W        W29393  18.183  16.638  12.097  0.1422 -0.0923  0.1472
 9114W        W29394   1.396   9.199  10.683  0.1230 -0.1469  0.0529
 9115W        W29395  15.663  12.492   0.300  0.0316  0.1192  0.1691
 9116W        W29396   1.418   7.474  11.995  0.1192  0.0915  0.1185
 9117W        W29397   7.317   0.574  13.343 -0.2137 -0.0756 -0.1346
 9118W        W29398  13.693   7.685  11.194 -0.0882  0.0512 -0.3857
 9119W        W29399  18.870  14.642   9.804  0.1630 -0.0770 -0.0905
 9120W        W29400   4.972   3.159  12.406 -0.2343 -0.3318  0.2760
 9121W        W29401   7.584  17.048   1.739  0.0672 -0.0457  0.0552
 9122W        W29402  12.311   1.543  10.363  0.3269  0.0543  0.0595
 9123W        W29403   7.854  18.985  10.477  0.1522  0.0140 -0.4293
 9124W        W29404  10.179   0.368  13.399 -0.0225 -0.1052  0.2536
 9125W        W29405   2.477   8.103   2.624  0.0096  0.1061  0.2620
 9126W        W29406  13.164   2.530   1.581 -0.0202  0.1632 -0.1392
 9127W        W29407  17.427   4.188   3.388  0.1574 -0.0447 -0.3207
 9128W        W29408  11.337   7.620   2.906  0.0251  0.3098  0.1091
 9129W        W29409  12.175   4.744  12.810 -0.1466 -0.3808 -0.3585
 9130W        W29410  13.182  16.567   1.925  0.0373 -0.2212 -0.2317
 9131W        W29411   0.454   2.677  13.985  0.0749 -0.1420  0.0977
 9132W        W29412   6.989  17.002  12.661  0.0272 -0.0454  0.2812
 9133W        W29413  19.170  19.388   4.496 -0.0078 -0.2737 -0.1140
 9134W        W29414   6.193   6.153   9.533 -0.0800  0.0869 -0.1841
 9135W        W29415  10.292   3.399  11.615 -0.2331 -0.1685  0.1915
 9136W        W29416   8.105  18.288   3.407  0.1416 -0.3770  0.0954
 9137W        W29417   5.434  12.644   0.816  0.1926  0.0686  0.1891
 9138W        W29418   1.941  15.253   1.250  0.1407 -0.0703  0.1026
 9139W        W29419   3.157  16.271  11.410 -0.3275 -0.0884 -0.0682
 9140W        W29420  16.512   5.693  10.099  0.1291  0.0713  0.0106
 9141W        W29421  14.709  10.663  12.038  0.2528 -0.0058 -0.0563
 9142W        W29422   8.387  11.714   1.883  0.0179 -0.4391  0.1986
 9143W        W29423   9.502   8.875   1.896 -0.0863  0.1317 -0.2331
 9144W        W29424   5.602   2.869   1.873 -0.0414  0.2244 -0.0916
 9145W        W29425  14.648   7.631  13.150  0.1042  0.1290  0.0884
 9146W        W29426  11.852  19.670   2.571 -0.0498 -0.0105  0.1684
 9147W        W29427   3.079   1.550   3.932  0.0359 -0.1739  0.0083
 9148W        W29428  11.047  12.204  11.685 -0.1551 -0.0731 -0.0986
 9149W        W29429  14.822  16.841  13.666  0.0149 -0.1732  0.0520
 9150W        W29430   8.079  15.746   1.683  0.1586 -0.0158  0.1217
 9151W        W29431   8.719   6.500   3.267  0.0761 -0.0641 -0.0211
 9152W        W29432   2.034   5.416  12.365 -0.0059 -0.0581  0.0650
 9153W        W29433  14.384  17.160  12.799 -0.0234  0.3669 -0.1019
 9154W        W29434  14.662  12.415   0.571  0.1741  0.0035 -0.1743
 9155W        W29435   4.459  14.578  12.291  0.0046 -0.0930  0.1968
 9156W        W29436  10.941   8.901   4.258 -0.1296  0.0667  0.2813
 9157W        W29437   0.426   4.200   1.331 -0.2106  0.0561  0.1338
 9158W        W29438  16.593   7.467  11.644 -0.0507  0.0561 -0.3099
 9159W        W29439  17.049   2.542  13.639 -0.1225 -0.1324 -0.0445
 9160W        W29440  13.627   3.003  13.229 -0.0371 -0.1163 -0.2976
 9161W        W29441  19.455   7.694   1.034 -0.1671  0.0217 -0.0275
 9162W        W29442  14.903  17.967  13.495  0.1277  0.1607  0.1750
 9163W        W29443   6.693   8.744   0.114 -0.0636  0.1372 -0.0963
 9164W        W29444  11.983   5.587   1.594  0.0119  0.1505 -0.1204
 9165W        W29445   6.621   5.484  12.099  0.2303 -0.0657  0.1893
 9166W        W29446  17.810   2.788   2.940 -0.0435 -0.1909  0.1865
 9167W        W29447  15.838   6.541  10.202  0.0762 -0.0047  0.0261
 9168W        W29448   9.389  18.046  11.875  0.0168 -0.1062 -0.5273
 9169W        W29449  16.441   5.151   1.071  0.1760  0.0417 -0.0848
 9170W        W29450  11.693   6.251  12.134  0.1218  0.0761  0.1291
 9171W        W29451  14.929   8.374   3.019 -0.0616 -0.1898 -0.0597
 9172W        W29452   9.224   6.534   3.510 -0.2628 -0.2938 -0.1237
 9173W        W29453  15.327   5.917   0.414  0.1852  0.0495 -0.0689
 9174W        W29454  19.736   4.261   0.006  0.1210  0.2507 -0.0426
 9175W        W29455  12.636  12.101   5.013 -0.0308 -0.1636 -0.2601
 9176W        W29456   2.000  10.531   4.045  0.1961 -0.0472  0.2183
 9177W        W29457  17.610  13.396  10.515 -0.3723 -0.1894  0.1806
 9178W        W29458  15.295  16.222   9.596 -0.1645  0.1787 -0.0235
 9179W        W29459  14.353   1.090  10.268  0.0727  0.0926  0.0397
 9180W        W29460   0.115  11.759   4.048 -0.0287 -0.1006  0.3695
 9181W        W29461   2.936   0.464   2.296  0.2389 -0.0149  0.0753
 9182W        W29462  14.227  15.169  13.018 -0.0401  0.0839  0.1569
 9183W        W29463  10.648   7.905  11.989 -0.0776  0.0556 -0.0286
 9184W        W29464  13.165   3.106   3.530  0.1092  0.2142 -0.0251
 9185W        W29465  14.188   1.702  11.409 -0.1496 -0.2718  0.0262
 9186W        W29466   5.752   5.617  10.078  0.1489 -0.0270  0.0967
 9187W        W29467   3.465  15.829   9.958  0.0909 -0.2492  0.2499
 9188W        W29468  11.276  13.501   3.192  0.1798  0.4795  0.1006
 9189W        W29469  16.817  12.645   3.887 -0.0888 -0.0872  0.0057
 9190W        W29470   3.448   2.444   1.193 -0.1197 -0.1702 -0.1409
 9191W        W29471   4.291   3.046  12.519 -0.3856 -0.2471  0.1293
 9192W        W29472  18.886   9.777   2.606 -0.2365  0.2496  0.2510
 9193W        W29473  11.373  11.559   0.706  0.2053 -0.1078 -0.2703
 9194W        W29474   7.026  15.589  12.529 -0.0147  0.0942  0.1496
 9195W        W29475   1.793   6.343   3.228  0.2524  0.2123 -0.1569
 9196W        W29476   4.050   5.876   3.980 -0.1829 -0.2730  0.2328
 9197W        W29477  15.938   6.285  12.343 -0.3521 -0.0193 -0.0784
 9198W        W29478  14.884   1.988  12.622  0.1196 -0.1699 -0.2144
 9199W        W29479   4.345   9.969   4.180  0.1892 -0.1566 -0.0915
 9200W        W29480   5.532   7.303   0.566  0.1944  0.2473  0.2161
 9201W        W29481   3.671  17.365   4.272  0.1117  0.3170 -0.2337
 9202W        W29482   1.786   1.857  12.119 -0.0602 -0.1130  0.3370
 9203W        W29483  18.467   4.657   2.752 -0.1263 -0.0772 -0.0751
 9204W        W29484   8.854   3.020  12.482 -0.0815 -0.0371  0.2045
 9205W        W29485   9.749  13.096  11.139  0.1858 -0.2132 -0.2625
 9206W        W29486   0.875  16.103   1.673  0.1359  0.2420  0.2717
 9207W        W29487   7.123  19.197   1.276  0.2527  0.1592  0.1685
 9208W        W29488   7.625  13.437   1.248  0.0281  0.0135 -0.1159
 9209W        W29489  15.104   6.136  10.288 -0.2388  0.0499 -0.0262
 9210W        W29490   7.947  16.533  11.027  0.0155  0.1866 -0.0399
 9211W        W29491   7.578  19.738  11.375 -0.1871 -0.4583 -0.2250
 9212W        W29492  11.670  17.370   1.852  0.1029  0.2110  0.0521
 9213W        W29493  12.633  14.215   0.079  0.0375  0.1757 -0.0036
 9214W        W29494   7.911   5.611   1.530 -0.0352  0.0725  0.0995
 9215W        W29495  18.702   7.612  10.587 -0.2653  0.1996  0.1494
 9216W        W29496  10.048   5.712   0.941  0.1833 -0.0037  0.0399
 9217W        W29497  13.177  10.490  13.755 -0.1565  0.1111 -0.0797
 9218W        W29498   3.433  17.507   2.474 -0.0296  0.0276 -0.2259
 9219W        W29499  15.046   1.657   2.294 -0.1396 -0.0506 -0.0910
 9220W        W29500  11.574   0.795   2.268  0.0612 -0.2229  0.1480
 9221W        W29501  10.276   2.372   0.001 -0.3965  0.1865  0.1088
 9222W        W29502   2.575   5.367   4.244 -0.3300  0.2618 -0.0260
 9223W        W29503   0.002  13.734   3.388 -0.0750 -0.0856 -0.0472
 9224W        W29504  13.432   2.242   1.880 -0.0146  0.1141  0.0734
 9225W        W29505   0.540   7.188  11.804  0.0800  0.0104 -0.2022
 9226W        W29506  12.135  17.112  12.173  0.2150 -0.2012 -0.2916
 9227W        W29507  17.922   0.797   1.153 -0.0231 -0.0402  0.0636
 9228W        W29508  10.494  18.308   2.199  0.0073  0.1111  0.0212
 9229W        W29509   6.713   0.294   3.276  0.2771 -0.3216  0.0392
 9230W        W29510  16.014   8.552   1.217  0.0699 -0.0628  0.0296
 9231W        W29511   6.029  12.286   0.260  0.1016 -0.1256  0.1744
 9232W        W29512  16.900  15.487   3.454  0.4063  0.0712 -0.0784
 9233W        W29513   4.403  11.777  13.070  0.1570 -0.0773 -0.1616
 9234W        W29514   5.728  15.891   1.482 -0.1112  0.0821  0.1013
 9235W        W29515  10.071  19.578  13.308  0.3047  0.1437 -0.1387
 9236W        W29516  15.804   4.555   9.883 -0.0681 -0.1969 -0.0799
 9237W        W29517  19.566   2.469   0.523  0.2436 -0.0207 -0.3256
 9238W        W29518   1.620   5.692  12.395 -0.1494 -0.1483 -0.0377
 9239W        W29519   8.105  12.061   3.125 -0.1201 -0.2233 -0.0532
 9240W        W29520  16.646  17.826  11.197  0.0386  0.3085  0.1061
 9241W        W29521   1.529  16.981   1.832 -0.2530  0.2113  0.1812
 9242W        W29522   7.400   8.054  13.436  0.0602  0.1336  0.2501
 9243W        W29523  17.763   4.985   3.783  0.0248 -0.0063  0.1285
 9244W        W29524   4.801   8.384   3.505  0.0283  0.4171 -0.0492
 9245W        W29525   7.880   7.927  13.494  0.0349  0.2400  0.1279
 9246W        W29526   1.284  18.647  11.941 -0.3334 -0.2135 -0.0460
 9247W        W29527  16.139  11.788  12.399 -0.3961  0.0055  0.0547
 9248W        W29528   0.650  11.466   1.233 -0.0247  0.2320  0.1560
 9249W        W29529   7.701   4.978  13.258  0.1545  0.1565 -0.1139
 9250W        W29530  16.487  18.635  12.251 -0.3993  0.3211 -0.0429
 9251W        W29531   7.672  14.318   2.520 -0.4851 -0.2998 -0.0371
 9252W        W29532   9.516  11.362  12.798 -0.3093 -0.2286 -0.1193
 9253W        W29533   2.523  18.497   0.973 -0.3137  0.2698  0.2584
 9254W        W29534  19.782   7.400   0.363  0.2675  0.3107  0.0871
 9255W        W29535  18.378   4.046   2.956  0.0383 -0.0766  0.3758
 9256W        W29536   5.591   1.580   3.523  0.1530 -0.2544 -0.1663
 9257W        W29537   8.475   6.484   5.044  0.0230  0.0205  0.1004
 9258W        W29538  16.811  15.005   3.719 -0.1782  0.1442 -0.2971
 9259W        W29539  10.895  13.812   0.436  0.1831 -0.0769 -0.2813
 9260W        W29540   6.831  15.781   2.965  0.1468 -0.0982 -0.2070
 9261W        W29541   9.260   2.502  12.973  0.0965 -0.1321 -0.0923
 9262W        W29542  12.679   5.621   1.709 -0.0319 -0.1877 -0.2493
 9263W        W29543   0.713   4.077  13.842 -0.1703  0.0554  0.0358
 9264W        W29544  14.365   5.242  12.290 -0.1366  0.0670  0.4367
 9265W        W29545  18.664   2.671  12.784  0.2418  0.0235  0.4015
 9266W        W29546  19.757  17.069   2.171  0.0750 -0.0346 -0.0176
 9267W        W29547   8.748  11.154  13.165  0.2961 -0.1034 -0.1268
 9268W        W29548  19.325  16.187  12.617  0.3886  0.0958 -0.3480
 9269W        W29549   8.778   7.313   2.844 -0.3949  0.0563 -0.0576
 9270W        W29550   0.635   4.744  13.394 -0.0272  0.1465 -0.2553
 9271W        W29551  19.511   2.476  13.554 -0.1561  0.0955  0.0186
 9272W        W29552  16.008   7.332  12.197  0.0377 -0.0397  0.0366
 9273W        W29553   0.525  16.610   0.886  0.1873 -0.1674  0.0729
 9274W        W29554  18.503  15.390   1.438  0.0396  0.0557 -0.1686
 9275W        W29555  13.733  12.799  12.772 -0.0345  0.0605  0.0950
 9276W        W29556  11.521   9.965   1.730  0.0894 -0.2865  0.0246
 9277W        W29557  11.303   7.434   0.323  0.0867 -0.2958  0.0068
 9278W        W29558  14.748   2.374   3.335  0.1797 -0.1205  0.2602
 9279W        W29559  10.571  13.863   2.064  0.4129 -0.0612 -0.5450
 9280W        W29560   6.979  15.723   4.070  0.0406 -0.2588 -0.0008
 9281W        W29561  15.848  16.436  12.095  0.0099  0.0400 -0.1017
 9282W        W29562  17.310  14.888  10.618 -0.1270 -0.0357  0.2940
 9283W        W29563   6.200   0.108   0.268  0.0381 -0.1624  0.3563
 9284W        W29564  14.801  14.647   2.453 -0.0702  0.2750 -0.1266
 9285W        W29565  18.886  19.390  13.885  0.1620 -0.0740  0.2378
 9286W        W29566   3.142  11.701  11.966  0.0572 -0.1551 -0.1144
 9287W        W29567  10.532  10.703   0.557 -0.0999 -0.0721  0.0838
 9288W        W29568  16.112   2.652  13.593 -0.2625 -0.0250 -0.0956
 9289W        W29569   8.568  10.740   9.724 -0.2408 -0.3648  0.0048
 9290W        W29570   7.539  17.585   2.911 -0.1072  0.1512  0.0809
 9291W        W29571   5.981  13.260  11.943 -0.0177 -0.1503  0.0134
 9292W        W29572   1.844  18.016  12.254  0.1021 -0.2497 -0.3248
 9293W        W29573   0.186   6.831   3.202 -0.1178 -0.1702  0.1261
 9294W        W29574  11.894  18.577   0.859  0.2672  0.0042  0.0298
 9295W        W29575  17.881  18.385   4.315  0.0808 -0.2344 -0.0353
 9296W        W29576   3.401  17.509   0.411  0.1588 -0.0383  0.0080
 9297W        W29577   9.271   6.853   1.733 -0.0459  0.0129 -0.0662
 9298W        W29578   8.795   1.272   1.945  0.0056  0.2981 -0.2271
 9299W        W29579   2.311   5.445  12.952  0.3973 -0.0411 -0.2788
 9300W        W29580   5.583   0.294   1.442 -0.2319 -0.0680 -0.1933
 9301W        W29581  19.208   8.370   2.217 -0.0441  0.2807 -0.0954
 9302W        W29582  15.789  19.365  10.038  0.0345 -0.1318  0.1521
 9303W        W29583  11.240   6.747   4.028  0.2502  0.1776 -0.3419
 9304W        W29584  19.337  17.537  10.699  0.2630  0.1679 -0.1444
 9305W        W29585   2.190  14.731  12.892  0.1071 -0.0562  0.0380
 9306W        W29586  10.596  18.110  12.019 -0.0125 -0.0390 -0.1713
 9307W        W29587   7.570   9.055  11.329 -0.0749  0.2896 -0.3667
 9308W        W29588   9.687   6.541   3.279  0.3436 -0.1212 -0.1437
 9309W        W29589  15.425  14.189   0.205 -0.1267  0.1376  0.1122
 9310W        W29590  12.298   2.012  13.124 -0.0911  0.2118  0.1601
 9311W        W29591   9.593   7.048   1.258 -0.4260 -0.2357 -0.2962
 9312W        W29592  16.179   8.125  10.345 -0.0654  0.1755  0.2188
 9313W        W29593  11.309  11.766   4.487 -0.5384  0.1742  0.1433
 9314W        W29594   1.592  14.206  10.736  0.1886 -0.1469  0.1943
 9315W        W29595  12.821  16.661   1.506  0.3296  0.0091  0.0397
 9316W        W29596  13.715  18.877  11.628 -0.1299  0.3871  0.0416
 9317W        W29597  13.930  11.609   2.055  0.2352  0.1175 -0.0427
 9318W        W29598  18.751   6.679   3.181 -0.1473  0.2063  0.0101
 9319W        W29599   0.486  10.691  10.256  0.0797 -0.1885  0.0387
 9320W        W29600  12.384  16.126   3.882  0.0811  0.2275  0.0431
 9321W        W29601   4.448  13.133   1.389  0.1438  0.1494  0.1330
 9322W        W29602  16.527  16.009  12.070  0.2457 -0.1754  0.3494
 9323W        W29603   5.920   9.263  11.596 -0.2327 -0.1545  0.0819
 9324W        W29604   8.934   1.912  11.324  0.4187  0.0661 -0.0634
 9325W        W29605  12.993  18.331   0.724 -0.2281 -0.0017  0.0139
 9326W        W29606   0.506  18.479  11.027 -0.1122 -0.0586 -0.2315
 9327W        W29607  13.328  14.032   0.507 -0.2168  0.0471  0.1614
 9328W        W29608  17.493  17.500   3.127 -0.1147 -0.3372  0.2645
 9329W        W29609  10.575  19.666   0.725 -0.3229  0.0214 -0.1427
 9330W        W29610   5.374   9.316   1.231 -0.0758  0.1287 -0.2113
 9331W        W29611   6.801  10.425  12.679 -0.0207  0.4029  0.1438
 9332W        W29612   5.167  17.876   3.681 -0.0494  0.1674 -0.2507
 9333W        W29613   3.177  19.458   0.937  0.2761  0.0134  0.2051
 9334W        W29614   5.609   6.854  11.085  0.2528 -0.0086  0.0696
 9335W        W29615   6.694  18.439   0.105  0.0482 -0.1331 -0.0109
 9336W        W29616  19.507  11.221   3.912 -0.3458 -0.0855 -0.3347
 9337W        W29617  11.028   9.084   2.864 -0.1249  0.2971  0.4500
 9338W        W29618   0.763  13.270   3.583  0.3107 -0.0677  0.2207
 9339W        W29619   2.923  17.274  11.039 -0.0931 -0.1821  0.3007
 9340W        W29620  18.452  12.299   0.880 -0.1363  0.1012 -0.2539
 9341W        W29621  10.401  11.213   0.528 -0.4031 -0.1048 -0.0278
 9342W        W29622   7.491  12.068  10.151 -0.2953  0.1989  0.1881
 9343W        W29623   1.647   1.005  10.412  0.1497  0.2245  0.3972
 9344W        W29624   7.215   8.261   1.696  0.3163 -0.1753 -0.0457
 9345W        W29625  18.052  12.065   9.854 -0.3250 -0.0066 -0.0352
 9346W        W29626   5.639  11.408   2.894 -0.3758  0.1497 -0.1065
 9347W        W29627  14.071  10.376  11.243 -0.2242 -0.0135 -0.1002
 9348W        W29628   0.983   9.227   0.785  0.2923  0.1557 -0.3461
 9349W        W29629  15.006  15.281  12.542 -0.1329 -0.2119  0.1686
 9350W        W29630  13.935   2.569  11.458  0.0196  0.0041  0.1796
 9351W        W29631  17.812  10.196   1.159 -0.0847 -0.1823 -0.1928
 9352W        W29632  13.366   2.446   2.973  0.1506  0.0708  0.0594
 9353W        W29633  15.186  15.037   0.582  0.1158  0.0960 -0.0971
 9354W        W29634  18.528  11.993   0.038 -0.3105  0.3067 -0.1302
 9355W        W29635  14.787  16.151  13.079  0.0429  0.0146  0.0450
 9356W        W29636  14.237  16.589  11.963  0.0857  0.0154 -0.1458
 9357W        W29637   0.723   3.350   2.235 -0.1326 -0.0911  0.2157
 9358W        W29638  13.805   4.969  14.105 -0.0818 -0.2184 -0.2140
 9359W        W29639  12.323  14.391   3.678 -0.0065 -0.0086  0.2356
 9360W        W29640   1.609  19.284  10.468 -0.4187 -0.1537 -0.0513
 9361W        W29641   6.790  10.189  10.550  0.0976  0.1196 -0.0352
 9362W        W29642   2.141   1.509   3.320 -0.0496  0.0633 -0.1866
 9363W        W29643   0.163  17.298   3.099 -0.4811  0.3758 -0.0601
 9364W        W29644  19.607  10.871  12.513 -0.1523  0.1224  0.0685
 9365W        W29645  10.274  11.663  13.009 -0.2641 -0.0401 -0.6008
 9366W        W29646   5.138   3.301  11.366  0.3611 -0.0712  0.2116
 9367W        W29647  17.581   1.453   2.227 -0.2224  0.2653  0.0271
 9368W        W29648  16.620   7.835  10.397  0.1039  0.2141 -0.0975
 9369W        W29649   5.163  10.085   4.128  0.0702  0.0021 -0.3920
 9370W        W29650  18.424   1.293   3.339  0.2555  0.0578 -0.0215
 9371W        W29651  18.282  13.482  12.522 -0.2440  0.2774  0.1520
 9372W        W29652  16.860   2.944   3.023 -0.0213  0.1219  0.1123
 9373W        W29653   3.481   8.593  12.128  0.5453  0.1778  0.2821
 9374W        W29654   6.417   2.614  13.344 -0.0355  0.0818  0.1320
 9375W        W29655  18.560  11.849   1.826 -0.0489  0.0727  0.0983
 9376W        W29656   4.616   9.709   2.475  0.0929  0.2091  0.0411
 9377W        W29657   4.712   7.522   1.608 -0.2297 -0.1708 -0.1797
 9378W        W29658  16.485  15.955  12.590 -0.0577 -0.0952 -0.0588
 9379W        W29659   7.663  18.946   9.912 -0.3553 -0.1925  0.1872
 9380W        W29660   8.895   2.804   1.182 -0.0802 -0.1361 -0.0419
 9381W        W29661   9.927   9.822  11.244 -0.2369 -0.1284  0.1782
 9382W        W29662  17.724  16.617   5.286  0.0151  0.3747  0.1456
 9383W        W29663   5.029  16.821  12.191 -0.1477 -0.0991  0.3260
 9384W        W29664  14.719   2.076  13.678  0.3163  0.0780 -0.0135
 9385W        W29665  14.273  14.871   3.205 -0.0494 -0.0005  0.0790
 9386W        W29666   7.935  15.903   5.243 -0.0867  0.1817  0.1658
 9387W        W29667   7.070  10.617   1.002 -0.2078  0.1530 -0.3630
 9388W        W29668  13.146   7.109  11.862 -0.3246  0.0052  0.1289
 9389W        W29669  14.320  10.005  11.456 -0.1413 -0.0486  0.1398
 9390W        W29670   9.239  14.154   1.323 -0.1446  0.0706  0.0827
 9391W        W29671   4.715   3.561  10.568 -0.0554  0.3678 -0.3576
 9392W        W29672   4.498  14.529  13.290  0.3249 -0.3498 -0.1466
 9393W        W29673   1.078   0.612   3.147  0.1595 -0.1425 -0.2166
 9394W        W29674   6.640  13.021  13.607 -0.1476 -0.2106  0.1145
 9395W        W29675  18.755   9.322  12.953  0.2125  0.2269 -0.5574
 9396W        W29676  18.027   9.973  11.329  0.1500  0.0464  0.3094
 9397W        W29677  12.132   4.337   0.281  0.1136  0.1896  0.2907
 9398W        W29678   8.218  12.112  12.617  0.0343 -0.1563  0.0315
 9399W        W29679   9.941  12.018   9.769  0.0561 -0.3324  0.2409
 9400W        W29680  19.679  17.420  13.642  0.4024 -0.2204 -0.0060
 9401W        W29681   3.964   7.033   1.073 -0.1043  0.1581 -0.0950
 9402W        W29682  17.524   1.735   3.121 -0.0470  0.1526  0.1050
 9403W        W29683  15.411  14.437  13.829  0.0082 -0.3584 -0.0271
 9404W        W29684  14.251  17.098  11.907  0.3378 -0.0315  0.2225
 9405W        W29685  13.581   0.982   2.895 -0.0424 -0.1518 -0.0929
 9406W        W29686  17.768   3.816   1.170  0.2740  0.1198  0.1647
 9407W        W29687   6.591  15.675  10.744 -0.0643  0.0102 -0.1680
 9408W        W29688   3.451  12.309   0.026  0.0758 -0.0336  0.1884
 9409W        W29689   9.041  11.363   3.743  0.1205  0.0129 -0.0602
 9410W        W29690   6.587   1.121  10.535  0.2203 -0.0531  0.0595
 9411W        W29691   9.076  15.129   0.570  0.1771  0.0432  0.3607
 9412W        W29692   7.724   5.335  11.558 -0.0211  0.0537 -0.0185
 9413W        W29693   8.012   4.491   1.226 -0.0686  0.0747 -0.4215
 9414W        W29694  14.836   4.861   0.793  0.0086 -0.1704  0.0314
 9415W        W29695  19.255   0.653   3.205  0.0025 -0.1656  0.3172
 9416W        W29696   3.589  13.190  11.439 -0.1674 -0.0994 -0.0061
 9417W        W29697  11.139  11.603  11.895 -0.2172  0.1691  0.3613
 9418W        W29698   1.205  10.129   1.663 -0.3612 -0.3144  0.0171
 9419W        W29699  10.507  16.521  13.050  0.0569 -0.1832  0.0896
 9420W        W29700   0.460   8.284   2.478  0.0484  0.0385  0.2110
 9421W        W29701  10.171   1.162  11.597  0.2132 -0.1644  0.0320
 9422W        W29702  18.713  13.540  12.794 -0.2050  0.0371  0.1381
 9423W        W29703   8.415   9.272  10.902 -0.0496 -0.1626  0.2323
 9424W        W29704  19.581   1.659  11.800 -0.2675  0.4320 -0.0160
 9425W        W29705   7.699   1.666  13.728 -0.3276 -0.3001 -0.3949
 9426W        W29706  18.892  16.022   0.560  0.0999 -0.0960  0.0125
 9427W        W29707   3.701   1.840  11.085  0.0714  0.1650 -0.1412
 9428W        W29708   0.757  17.117  12.170 -0.0391  0.3234 -0.2102
 9429W        W29709   3.106   5.576  12.571 -0.3369 -0.1752 -0.3155
 9430W        W29710  14.518  19.562   0.263  0.1164 -0.2724  0.0102
 9431W        W29711  14.083  17.518   1.609 -0.1299 -0.0585 -0.0210
 9432W        W29712  17.949  15.700  10.346 -0.1885  0.3049  0.0468
 9433W        W29713  17.840   5.536  13.423  0.2451 -0.1478  0.2334
 9434W        W29714   8.579  14.031   2.688  0.2214  0.0251  0.1261
 9435W        W29715  17.125  11.614   3.626 -0.0285 -0.1379  0.2045
 9436W        W29716  15.352   9.493  10.632  0.2009 -0.1227  0.0204
 9437W        W29717  14.388   6.376  13.205 -0.0766 -0.1281 -0.1076
 9438W        W29718  14.090   7.853   3.433  0.3084 -0.0234  0.2779
 9439W        W29719  13.624   6.643  12.782 -0.1039 -0.0704  0.2397
 9440W        W29720   7.288  14.803  12.131  0.0522 -0.0913  0.3988
 9441W        W29721   7.774  10.909  13.036 -0.2787  0.0335 -0.2039
 9442W        W29722  16.346  15.214   2.230  0.0293  0.1162  0.0878
 9443W        W29723   0.353   5.255  11.846 -0.1099 -0.0456  0.2422
 9444W        W29724   1.369  11.526  11.932 -0.0152  0.0472 -0.1497
 9445W        W29725  11.468   0.416   1.903 -0.1351 -0.1506  0.1546
 9446W        W29726  13.319   7.188   1.121  0.0100  0.1500 -0.0344
 9447W        W29727   5.934   8.688   2.955 -0.0833 -0.1068 -0.0406
 9448W        W29728   9.305   0.242  12.301  0.3193  0.0767  0.2124
 9449W        W29729   7.178  13.024   3.300  0.4159 -0.1062 -0.3569
 9450W        W29730   9.083   3.701   3.036 -0.1354  0.2254  0.0012
 9451W        W29731  18.860   1.071   2.403 -0.1661  0.0272  0.2010
 9452W        W29732   4.362   8.675   0.928 -0.1522  0.0707 -0.2615
 9453W        W29733   3.834   4.352  12.897  0.1672  0.3285 -0.2951
 9454W        W29734  13.505  18.578   0.382 -0.3915 -0.0544  0.2909
 9455W        W29735   9.949   1.206  13.766 -0.3604 -0.2301  0.0959
 9456W        W29736   8.202   9.045   0.427  0.0806  0.0798  0.0292
 9457W        W29737   9.637  15.005   2.080  0.4886  0.4501 -0.0831
 9458W        W29738   5.035   6.098  12.554 -0.2144 -0.5137  0.1012
 9459W        W29739  16.604   8.907  13.951 -0.0324 -0.1063  0.0904
 9460W        W29740  19.245   9.393   3.411  0.1959 -0.1054 -0.1322
 9461W        W29741  11.984   4.557   0.740 -0.1920  0.1593  0.2005
 9462W        W29742  11.428   2.268   0.831  0.0763 -0.1455  0.1978
 9463W        W29743  15.729  12.181  11.675  0.0605  0.4297 -0.1673
 9464W        W29744  10.158   3.313  13.705  0.1394 -0.0652  0.1403
 9465W        W29745   4.990   8.825  12.262 -0.2071 -0.0645 -0.0469
 9466W        W29746   3.293   5.308  13.387  0.1736  0.0219  0.2177
 9467W        W29747  12.594   8.502  13.990  0.0670  0.0730  0.3129
 9468W        W29748  13.623  14.566  13.452 -0.3561  0.0459  0.1943
 9469W        W29749   2.785   0.528  12.792  0.1409  0.3121  0.1243
 9470W        W29750  16.496   4.309  12.607 -0.1805  0.5044  0.1598
 9471W        W29751   5.062   7.945   0.838  0.3299  0.0381  0.1066
 9472W        W29752   8.697  16.931   0.539  0.0108  0.2969 -0.0671
 9473W        W29753  16.105  13.800  12.475 -0.0843 -0.0293  0.2604
 9474W        W29754   4.862   2.895   1.765 -0.1874 -0.3413 -0.1407
 9475W        W29755   5.321   1.820  13.346 -0.0294 -0.0340  0.1980
 9476W        W29756   9.970  15.025  10.278 -0.2416  0.2694  0.1102
 9477W        W29757   3.963   0.737  13.829 -0.2117 -0.0660 -0.2660
 9478W        W29758  17.527   7.893   3.759  0.0627  0.0403  0.0383
 9479W        W29759  18.674  13.349  11.045 -0.1329  0.1372  0.1727
 9480W        W29760   5.633  14.993   0.127 -0.1003 -0.2711 -0.0815
 9481W        W29761   5.266   0.121   0.023  0.2633  0.0416  0.2017
 9482W        W29762  15.144  15.821   2.796  0.2811  0.1260  0.4027
 9483W        W29763  12.739   4.745   3.986 -0.1997  0.0458  0.0952
 9484W        W29764  17.544   2.973  10.728 -0.0630  0.1973  0.0897
 9485W        W29765   9.782   1.361  11.294  0.0682  0.4622  0.0191
 9486W        W29766  18.281   2.933  13.123 -0.5469 -0.1602 -0.0515
 9487W        W29767   8.531   0.246   2.648  0.0982  0.1102  0.1781
 9488W        W29768  12.133  19.657   3.005  0.1468  0.0670 -0.2423
 9489W        W29769   9.880  13.232   4.275 -0.0931  0.0108  0.0740
 9490W        W29770   8.729  12.955   4.353 -0.2910 -0.0036 -0.2563
 9491W        W29771   0.274  14.148  10.195 -0.0423  0.0768 -0.0963
 9492W        W29772   5.484   3.197  11.725  0.0142 -0.0007  0.0534
 9493W        W29773   4.781  14.872   1.802  0.1077 -0.0995  0.1510
 9494W        W29774   1.004  11.473   0.027  0.2038 -0.1347 -0.0274
 9495W        W29775  15.019   9.146  12.276  0.0416 -0.1429  0.0319
 9496W        W29776  12.235   6.591   3.430  0.1841 -0.0974  0.4121
 9497W        W29777  11.585   5.789   3.492 -0.0527  0.3180  0.2409
 9498W        W29778  12.456   6.487  13.700 -0.1162 -0.0901  0.0870
 9499W        W29779   2.956  17.631   3.212 -0.0918 -0.0691 -0.1147
 9500W        W29780   2.950   3.528   2.157 -0.0332  0.1638  0.2305
 9501W        W29781   3.148   9.057   0.122 -0.1595  0.1804  0.0034
 9502W        W29782  11.961  14.200   5.373 -0.0998 -0.0299 -0.0201
 9503W        W29783   2.180   7.059  11.543  0.1105  0.3311  0.1294
 9504W        W29784  18.992   1.405   1.422  0.1362 -0.0027  0.2650
 9505W        W29785  17.483   9.393   1.214 -0.0286  0.0874 -0.4412
 9506W        W29786  18.831   0.240   2.669  0.0396 -0.0441 -0.0409
 9507W        W29787  10.886   6.911   3.656  0.0782 -0.0079 -0.0359
 9508W        W29788   8.463   7.155  10.538  0.1269  0.2846 -0.1197
 9509W        W29789   9.802  13.186  13.761 -0.2791  0.1272  0.0434
 9510W        W29790  11.746   8.188   1.968  0.2097  0.2056 -0.1132
 9511W        W29791   4.363   4.008  12.676 -0.2042  0.0976  0.0518
 9512W        W29792   2.465  13.894  13.943 -0.0732  0.1447  0.1655
 9513W        W29793  17.919  18.407   2.883  0.0974 -0.2888  0.0754
 9514W        W29794   1.675  11.896  11.051 -0.1032 -0.2677 -0.4392
 9515W        W29795   7.215  10.198   0.628  0.1106 -0.0163 -0.2245
 9516W        W29796  16.411   8.289  11.744 -0.2424  0.3062 -0.1736
 9517W        W29797   0.029   1.375  13.109 -0.0207  0.5820 -0.1787
 9518W        W29798   2.423  16.283  12.787  0.1524  0.0909 -0.1391
 9519W        W29799   7.799   6.826   3.023  0.0302  0.1713  0.0392
 9520W        W29800   9.310  13.014   1.060  0.0687 -0.1432  0.4005
 9521W        W29801   7.818  18.226   0.605  0.1839  0.1898  0.0923
 9522W        W29802   7.494   0.795  11.129  0.0597 -0.0742  0.0026
 9523W        W29803  14.911  15.869  13.492 -0.3692 -0.0170 -0.0279
 9524W        W29804   7.917  17.081   4.741 -0.1930 -0.1242 -0.1922
 9525W        W29805  10.929   7.231  11.611 -0.0363  0.1127  0.1856
 9526W        W29806   2.565  15.026  13.726 -0.0104 -0.0576  0.0801
 9527W        W29807  11.108  12.139  10.244 -0.2365 -0.0620 -0.1792
 9528W        W29808  13.504   5.933  10.429 -0.3843 -0.0464  0.1446
 9529W        W29809  10.438   0.530   0.343 -0.0373 -0.0314  0.2562
 9530W        W29810  19.424   7.784   4.076  0.0230  0.0788 -0.1497
 9531W        W29811  18.357   5.033  11.556  0.0439 -0.4834 -0.0584
 9532W        W29812  13.947  15.303   3.242 -0.3112 -0.0538 -0.1620
 9533W        W29813  17.074   1.919  11.695  0.0619  0.0487  0.4154
 9534W        W29814  13.416   6.959   3.735 -0.1592 -0.0292 -0.1302
 9535W        W29815  12.579  12.911  11.228 -0.0438  0.0437 -0.1102
 9536W        W29816   9.714   2.344   2.427 -0.1266 -0.4529 -0.0115
 9537W        W29817  11.303   7.579  11.505  0.0908  0.1632 -0.0350
 9538W        W29818   8.584   6.366  10.921  0.0404  0.2963 -0.2268
 9539W        W29819  17.263   9.882   2.549 -0.1571 -0.3083 -0.0667
 9540W        W29820  19.639  15.926   0.899  0.3375 -0.2345  0.1075
 9541W        W29821  18.764   7.082  12.841 -0.0869  0.3700 -0.1184
 9542W        W29822  16.595  16.667   1.964  0.1056 -0.2720  0.0592
 9543W        W29823  12.876   4.025   2.836  0.0812  0.2138 -0.2546
 9544W        W29824  18.122  15.520  13.364 -0.2518  0.1946  0.4239
 9545W        W29825  11.669  17.203  11.085  0.1990 -0.1680 -0.0229
 9546W        W29826  19.393   0.033   0.926 -0.2068  0.0237 -0.1992
 9547W        W29827   3.350  14.120   4.612 -0.0277  0.2367 -0.2745
 9548W        W29828   9.689   8.314   1.122 -0.2206  0.1314  0.3496
 9549W        W29829   9.090   3.828  12.638  0.1514  0.1465  0.1102
 9550W        W29830  12.264   7.290  10.427  0.2207 -0.2103 -0.0340
 9551W        W29831  13.082   1.021   9.577 -0.0658 -0.1387 -0.0006
 9552W        W29832   3.440   7.097   2.047 -0.0678 -0.0515  0.2321
 9553W        W29833  10.050  14.995  12.939 -0.0768 -0.3760 -0.2335
 9554W        W29834   8.210  14.869   0.841  0.3350 -0.1041 -0.0665
 9555W        W29835  11.805  11.109   3.935 -0.1458 -0.2464  0.1114
 9556W        W29836  12.694  17.565   2.873 -0.0023  0.0824  0.0651
 9557W        W29837   2.409  12.588  13.620  0.2925 -0.1568  0.1209
 9558W        W29838  15.120  17.309   0.782 -0.1095  0.2415  0.1085
 9559W        W29839   2.617  18.243  10.175 -0.3142 -0.2564  0.3996
 9560W        W29840   2.352   8.790   1.618 -0.1262  0.1461 -0.1453
 9561W        W29841  18.284  15.444  10.667  0.0555 -0.0649 -0.1840
 9562W        W29842   9.765  18.367   1.595 -0.0089  0.1307  0.0315
 9563W        W29843  14.041  13.812  10.813 -0.1899  0.2708  0.0947
 9564W        W29844   4.311   0.642   3.100  0.0439  0.4898 -0.1988
 9565W        W29845  14.789   6.408  13.827  0.0841  0.1542 -0.0459
 9566W        W29846   5.479   5.946  12.262  0.0958 -0.3292  0.1649
 9567W        W29847  13.337   5.919   3.756 -0.0131 -0.0105  0.3371
 9568W        W29848   9.223  15.090  12.214 -0.0096  0.0190  0.0427
 9569W        W29849   7.652   2.773  10.781 -0.1195 -0.0354  0.0368
 9570W        W29850  17.181   5.634   2.571 -0.0849  0.2971  0.1167
 9571W        W29851   7.596   2.373   4.004  0.0894 -0.0522  0.3922
 9572W        W29852   0.039  19.639   1.329  0.0792 -0.1611  0.2776
 9573W        W29853   9.714  16.395   2.300 -0.1695  0.2984  0.3654
 9574W        W29854   0.530  12.366   2.038  0.1599  0.0473  0.2826
 9575W        W29855  17.832  16.759   1.603 -0.0048 -0.1966  0.0687
 9576W        W29856   5.377  15.804   9.911 -0.0807  0.1297  0.1365
 9577W        W29857  12.724   1.480   0.784  0.2728 -0.0236  0.0502
 9578W        W29858  10.584  17.700   2.017  0.2357 -0.5186  0.1668
 9579W        W29859   7.771   1.692   3.038  0.1545 -0.2831 -0.0090
 9580W        W29860  14.496   1.985   1.622  0.2421 -0.0642  0.2282
 9581W        W29861   4.257  16.580   1.777  0.0247  0.0993 -0.0106
 9582W        W29862  10.271  10.103  12.442 -0.0459 -0.0843 -0.1143
 9583W        W29863  17.134   7.298   2.180 -0.0964 -0.0347 -0.3528
 9584W        W29864   7.727   5.189   4.602  0.2938 -0.1280  0.3232
 9585W        W29865  16.209   1.409  11.696 -0.2362 -0.2897 -0.0327
 9586W        W29866  18.037  12.316   2.831 -0.0675  0.1130  0.0932
 9587W        W29867  16.915  14.806  11.679  0.1910  0.1246 -0.3200
 9588W        W29868  14.646   2.501   0.315 -0.2643 -0.1552 -0.1637
 9589W        W29869   8.665  17.516  10.622 -0.1427  0.1869  0.3103
 9590W        W29870  12.789  17.743  12.663 -0.0462 -0.2495  0.3557
 9591W        W29871   9.541  16.635   3.232 -0.6104 -0.1269 -0.2778
 9592W        W29872   8.892   4.018  11.147  0.0896 -0.2327  0.0662
 9593W        W29873  10.255   9.585   1.354 -0.1413  0.0788 -0.4813
 9594W        W29874   6.444   2.850  10.574 -0.4222  0.2067  0.3314
 9595W        W29875   7.821   8.098  13.010  0.3487  0.0183  0.1394
 9596W        W29876   5.422  17.511  10.379 -0.2067  0.0139 -0.0839
 9597W        W29877  15.551  10.095  11.177 -0.1605 -0.1509  0.3829
 9598W        W29878  17.878  12.877  13.023  0.1699 -0.0408  0.0657
 9599W        W29879   9.361   4.666   3.591  0.1255  0.2013  0.3433
 9600W        W29880  16.293  13.084   2.620  0.0630  0.2837 -0.0531
 9601W        W29881  15.026  10.047  12.246 -0.0839  0.1680 -0.0218
 9602W        W29882   4.477  17.581   4.471  0.0134  0.1353  0.1815
 9603W        W29883  14.276  18.395  11.422  0.1604  0.0576 -0.0387
 9604W        W29884   4.007  17.885   1.514 -0.0008 -0.2758  0.2120
 9605W        W29885   9.624   9.822   2.005  0.2277  0.1832 -0.0843
 9606W        W29886  18.110  18.598  11.484  0.0051  0.2326  0.1543
 9607W        W29887   2.944   9.091  12.858 -0.1075  0.4863 -0.1915
 9608W        W29888  18.036   5.491   2.946 -0.0230  0.4379 -0.0374
 9609W        W29889  19.097  17.903  10.988 -0.3254  0.2175 -0.2041
 9610W        W29890   7.948  14.336   4.079 -0.0419 -0.0321  0.0804
 9611W        W29891  19.536  19.488   3.380  0.2455 -0.0409 -0.0886
 9612W        W29892   4.649  16.728   3.313  0.2120 -0.2665  0.1525
 9613W        W29893  13.701  11.101   2.147  0.0508 -0.0508 -0.0652
 9614W        W29894   2.265   7.924   1.742 -0.1061  0.0735 -0.0554
 9615W        W29895   8.860  11.419  10.202 -0.4295  0.1239  0.0419
 9616W        W29896   6.220  18.419   1.336  0.2618 -0.1579 -0.1719
 9617W        W29897   9.072  13.282  13.463 -0.1651  0.0874  0.1345
 9618W        W29898  18.251  11.950   9.350  0.0368 -0.1036  0.3590
 9619W        W29899  11.402  18.154   0.412  0.0778 -0.3518  0.1765
 9620W        W29900  19.159  11.379   3.610  0.1547  0.3008 -0.0692
 9621W        W29901  11.078  18.301   0.786  0.0423  0.0045 -0.0841
 9622W        W29902  13.990   1.207   0.684 -0.1781  0.3605 -0.0327
 9623W        W29903   0.952  17.291   2.361 -0.1820 -0.0118  0.0541
 9624W        W29904  16.266   3.288   4.117 -0.0455  0.0775 -0.1866
 9625W        W29905  13.932   7.869  10.407 -0.1058 -0.2462 -0.0714
 9626W        W29906  13.387   8.447  13.653 -0.0286  0.0713 -0.2383
 9627W        W29907  18.406  17.618  13.652 -0.0400  0.0879 -0.0613
 9628W        W29908  19.211   0.253   3.509  0.0936 -0.0801  0.0548
 9629W        W29909  14.516   2.418  12.797  0.1317 -0.1745 -0.1201
 9630W        W29910   2.372   0.803   3.382 -0.1338  0.2087  0.1913
 9631W        W29911  17.775   2.994   0.365 -0.3584  0.3163  0.0192
 9632W        W29912   3.858  10.507   3.852  0.0699  0.0156 -0.1166
 9633W        W29913   4.530  18.493  13.828  0.4361 -0.3709  0.1170
 9634W        W29914  13.247   3.843  12.156  0.0854 -0.2115  0.1831
 9635W        W29915  16.046   3.582   3.002  0.1519  0.1203 -0.1024
 9636W        W29916   8.550  13.522   4.269 -0.2049  0.0867  0.0737
 9637W        W29917   3.004   5.929   1.886 -0.0113  0.2175  0.1286
 9638W        W29918  13.921   6.652   0.485  0.3022 -0.0333 -0.0180
 9639W        W29919   0.189   9.196  12.692 -0.0608 -0.0536 -0.1338
 9640W        W29920  15.358  12.425   9.639 -0.1476  0.0738  0.0485
 9641W        W29921  10.481  15.157  13.199  0.3825  0.0782  0.0624
 9642W        W29922  12.691  10.916   2.636 -0.2566  0.1839  0.0734
 9643W        W29923  16.905  11.164  11.928 -0.0306 -0.2549 -0.1260
 9644W        W29924  11.318   7.466   1.550  0.1556  0.0590 -0.1453
 9645W        W29925   5.770  14.158  11.685  0.1975 -0.0649 -0.0854
 9646W        W29926  10.443   4.017   1.352 -0.0168 -0.1707  0.0301
 9647W        W29927   7.155   2.082  11.384 -0.0642  0.4111  0.2996
 9648W        W29928   9.932   5.728  11.248  0.2654 -0.0728  0.2114
 9649W        W29929  15.370   3.280  13.386  0.2848 -0.0511  0.0460
 9650W        W29930   9.939   3.126  12.902 -0.3776  0.1119 -0.0325
 9651W        W29931   5.609  16.879   2.133 -0.0741 -0.0113  0.2011
 9652W        W29932  17.753  15.179   0.000 -0.0833  0.0629  0.1990
 9653W        W29933   2.121   0.860   1.128  0.1431 -0.2636 -0.0419
 9654W        W29934  10.324  18.084  12.461 -0.0501  0.0388  0.3215
 9655W        W29935  19.777   1.357  12.100 -0.0442 -0.2494 -0.2032
 9656W        W29936  11.087  15.617   3.348  0.0000  0.1395  0.0935
 9657W        W29937   2.508   3.156  13.066 -0.1577 -0.0985 -0.2135
 9658W        W29938  18.867  16.712   9.842 -0.1773  0.1099  0.2660
 9659W        W29939  14.875   9.407  11.746  0.2227  0.0056  0.3625
 9660W        W29940   1.503  16.117  10.683 -0.0936 -0.0173  0.0494
 9661W        W29941   2.570   3.521  13.463 -0.2821 -0.2634 -0.1002
 9662W        W29942   5.410   5.071   3.703  0.0666  0.0328 -0.0313
 9663W        W29943  12.316   5.817  13.198  0.2420  0.1710 -0.0430
 9664W        W29944  13.177  17.723  13.866 -0.2511  0.2703  0.2380
 9665W        W29945   7.705  18.047  13.382  0.1133  0.1639  0.3266
 9666W        W29946   4.113  11.360  10.682 -0.2505  0.1288  0.1281
 9667W        W29947  13.568  14.461   0.488  0.0054 -0.1084  0.0282
 9668W        W29948   5.890   5.360   3.105 -0.1727 -0.0220  0.2639
 9669W        W29949   4.428   4.588  11.604  0.2206  0.3211  0.1722
 9670W        W29950   3.083  19.021  11.006 -0.0179  0.1199 -0.2037
 9671W        W29951   9.434  10.696  11.006  0.2017  0.2322  0.3493
 9672W        W29952   0.348   5.311   1.657 -0.2123 -0.2188  0.1620
 9673W        W29953   9.914   6.764  13.109 -0.5090 -0.1074  0.1030
 9674W        W29954   8.141  14.248   2.457 -0.2042  0.1870  0.2416
 9675W        W29955  13.980  17.035   2.902 -0.1896  0.2779 -0.1613
 9676W        W29956  15.867   3.054  13.479  0.2755  0.1225 -0.1845
 9677W        W29957   6.478  17.002   4.077 -0.0930 -0.2181  0.1838
 9678W        W29958  14.435  11.575   3.333  0.1426 -0.3388  0.1410
 9679W        W29959   4.647   6.720  11.188  0.1284  0.1521  0.0801
 9680W        W29960  10.978   6.440  11.701  0.0526 -0.1185  0.0187
 9681W        W29961  18.243  14.667  13.621  0.2337  0.2241  0.4031
 9682W        W29962   6.944   0.502   2.817  0.0825  0.0126 -0.1581
 9683W        W29963   8.676  11.231   4.090 -0.3764  0.0022  0.1583
 9684W        W29964   2.679   5.198   0.210 -0.2404 -0.1379  0.3753
 9685W        W29965   1.608  12.775  12.531 -0.0011  0.3242 -0.1214
 9686W        W29966  14.421  18.990  11.568  0.0349  0.1112  0.2234
 9687W        W29967  18.965  16.135  11.374 -0.4751 -0.0021 -0.2053
 9688W        W29968  15.315  10.136   9.120 -0.1189 -0.1889  0.0160
 9689W        W29969   8.778  19.751   1.844  0.1787  0.1355 -0.1266
 9690W        W29970  17.847  19.718  10.262  0.1124  0.2186 -0.2322
 9691W        W29971   6.232   8.957   1.509  0.1077  0.1519  0.0495
 9692W        W29972   5.687  11.146   3.424  0.0421 -0.1852 -0.0164
 9693W        W29973   8.818   1.186  13.124  0.2299 -0.0957 -0.0062
 9694W        W29974  16.448   4.541   1.759 -0.0590  0.0300  0.0716
 9695W        W29975   0.161   4.584  12.671  0.0395 -0.0264 -0.4030
 9696W        W29976  14.380   8.043  10.209 -0.0456  0.2130  0.0128
 9697W        W29977  12.776   7.465  10.383  0.1029  0.1990  0.0108
 9698W        W29978  16.541  13.740   0.192 -0.2876  0.4109  0.0197
 9699W        W29979   0.282  13.013  10.648  0.0160  0.2252 -0.2105
 9700W        W29980  11.818   3.767  10.431  0.0821 -0.0375 -0.0102
 9701W        W29981  14.825   1.673   1.440 -0.0728  0.0896 -0.0036
 9702W        W29982   4.100   5.674   2.067 -0.0686 -0.0074 -0.3453
 9703W        W29983   0.338  13.076   0.554  0.0240 -0.0220 -0.1948
 9704W        W29984   0.918   6.869   3.831  0.3083  0.0432 -0.2241
 9705W        W29985   9.658   4.047   0.420 -0.0194 -0.1158 -0.3311
 9706W        W29986   6.627  13.140  12.384 -0.1494  0.1157 -0.1304
 9707W        W29987  14.746   2.425   4.840 -0.0080 -0.0141  0.3782
 9708W        W29988   7.738   6.909   5.096  0.1441 -0.0952 -0.0119
 9709W        W29989   3.539  12.970  10.581 -0.1362 -0.1543 -0.0839
 9710W        W29990  10.012   3.799  13.667  0.1435 -0.0287 -0.2234
 9711W        W29991  18.602   8.765  10.626  0.0942 -0.1380 -0.0088
 9712W        W29992   5.027   6.974   0.324  0.0912 -0.2190 -0.3238
 9713W        W29993   9.135   5.821   2.139  0.1399  0.1378 -0.3071
 9714W        W29994  19.475  18.845  12.126 -0.0760  0.0860 -0.0105
 9715W        W29995  13.321  18.553  10.209  0.1533 -0.0206 -0.2684
 9716W        W29996   0.765   3.282  11.139  0.2561 -0.1901 -0.0854
 9717W        W29997   2.743  15.449  11.614  0.1638 -0.2232 -0.0489
 9718W        W29998  17.167   8.358   0.462  0.0506 -0.0350  0.1979
 9719W        W29999   7.767   0.077   3.108  0.0961  0.0221 -0.0458
 9720W        W30000   2.536   0.015   1.434  0.1372 -0.0721  0.1234
 9721W        W30001   5.222   6.601  10.297 -0.0477  0.0992 -0.0890
 9722W        W30002  16.848  13.400  12.110 -0.0041  0.1748 -0.3608
 9723W        W30003   0.963  16.660   3.075  0.0337 -0.0371  0.0072
 9724W        W30004   5.208  19.398   2.534  0.2736 -0.1287 -0.1797
 9725W        W30005   3.546  14.432   0.305  0.2036  0.2244  0.1485
 9726W        W30006   8.680   5.791   2.880  0.0208  0.2318 -0.0849
 9727W        W30007   5.722   2.290  11.876  0.2086 -0.1223  0.1165
 9728W        W30008   9.612  17.288   2.107  0.2173 -0.3263  0.0517
 9729W        W30009  15.469  16.244   2.617  0.0376  0.3603  0.1596
 9730W        W30010   3.384   4.794   3.766  0.0799  0.1789  0.3900
 9731W        W30011   2.476  12.316   2.633  0.1998  0.2079 -0.0672
 9732W        W30012  14.222   7.574   4.306 -0.0790  0.2602  0.0091
 9733W        W30013  10.877   1.615   1.207  0.1315 -0.0397 -0.0245
 9734W        W30014   2.642   8.805   0.617 -0.0475  0.2724 -0.3240
 9735W        W30015   5.939  10.052  12.499 -0.0154  0.1494  0.4518
 9736W        W30016  11.276  18.312   1.698 -0.3499 -0.2043 -0.0872
 9737W        W30017   1.068  13.226   0.678 -0.0032 -0.2291  0.0960
 9738W        W30018   4.250  14.227   3.516 -0.0771 -0.3554 -0.0681
 9739W        W30019   1.491  10.752  11.381 -0.2109  0.1698 -0.0628
 9740W        W30020   2.122   9.580  12.688 -0.0668  0.1892 -0.0450
 9741W        W30021   9.243   2.163  12.243  0.2515  0.0519 -0.0515
 9742W        W30022  10.242   7.559  12.739  0.0588 -0.2462 -0.0974
 9743W        W30023   5.159   5.515   1.172  0.0447  0.0538 -0.0593
 9744W        W30024  17.589  12.980   3.919 -0.0692  0.1082 -0.0295
 9745W        W30025   4.803  17.361   1.937 -0.0106  0.0560  0.2505
 9746W        W30026   3.276   3.108   3.292  0.1118 -0.0117 -0.0623
 9747W        W30027   3.860  16.685   0.929 -0.0941  0.0995 -0.1429
 9748W        W30028   8.482  12.178   0.194 -0.2524  0.1227 -0.1129
 9749W        W30029  15.846   9.660   0.869  0.1291 -0.2360 -0.2674
 9750W        W30030  16.108  13.435   2.289  0.0641  0.0434 -0.0989
 9751W        W30031  14.631   1.447   8.925  0.1939 -0.3361  0.0947
 9752W        W30032  12.942  19.731  12.200 -0.2045 -0.2097 -0.0676
 9753W        W30033  16.248  14.143   2.879 -0.2237  0.0637 -0.3554
 9754W        W30034  13.021   5.789  12.442 -0.0672 -0.1318  0.0320
 9755W        W30035   4.375  14.886  12.785  0.0600  0.1081  0.1118
 9756W        W30036  13.156   7.288  11.224  0.0585 -0.1672 -0.1044
 9757W        W30037  14.679   2.143   3.771 -0.3318 -0.0416  0.2488
 9758W        W30038  12.828   5.426  10.460  0.0140  0.1656 -0.0229
 9759W        W30039  11.202  15.852  12.274  0.0844 -0.5328  0.0361
 9760W        W30040  14.015  16.010   1.428  0.0023 -0.0380  0.2531
 9761W        W30041   4.685   4.675  12.068 -0.0308  0.1522  0.2282
 9762W        W30042  14.586  11.250   0.598  0.3001  0.0829 -0.0952
 9763W        W30043  14.857  19.112   2.559 -0.1428 -0.3991 -0.1205
 9764W        W30044   9.459   1.949  13.723 -0.1967 -0.0471  0.0345
 9765W        W30045   4.813  10.553  12.919 -0.0798  0.0825 -0.0639
 9766W        W30046  18.041  17.894  11.834 -0.0668  0.0013 -0.0838
 9767W        W30047   7.676  18.592  11.778  0.1018  0.1370 -0.0318
 9768W        W30048   9.360   7.226  12.262  0.1267 -0.3856  0.4006
 9769W        W30049   8.360  17.282  12.227  0.2754 -0.0903  0.1163
 9770W        W30050   2.395  12.304  11.954  0.0879 -0.0649 -0.1776
 9771W        W30051   0.601   7.579  10.907 -0.1378 -0.1981 -0.0818
 9772W        W30052   9.768   7.270  10.928  0.4787  0.0966 -0.1070
 9773W        W30053   9.437   0.308   0.553  0.0101 -0.3182  0.2777
 9774W        W30054  14.123   8.554   0.995  0.2148 -0.1984 -0.1373
 9775W        W30055  10.061  17.291   3.066  0.2476  0.2301 -0.1882
 9776W        W30056   1.311   4.400   1.970  0.1160  0.0387 -0.0218
 9777W        W30057  14.206  15.266  10.544  0.1749 -0.1383  0.0697
 9778W        W30058   1.444  10.439   0.237  0.1751  0.1768  0.0602
 9779W        W30059  19.660  10.310   0.667 -0.1369 -0.1291 -0.1050
 9780W        W30060   1.937   0.725  13.413  0.0925  0.3282  0.1015
 9781W        W30061   1.649   3.676  11.126  0.2480 -0.0409 -0.0460
 9782W        W30062  18.908  13.811   3.589 -0.0531 -0.0409  0.0230
 9783W        W30063   2.365   7.187   3.901  0.2046 -0.0215  0.1781
 9784W        W30064  12.528   5.480   0.968 -0.0703  0.4886 -0.1334
 9785W        W30065  15.658  16.921   0.741 -0.0423  0.1143 -0.1186
 9786W        W30066  15.904   8.511   2.955  0.0097 -0.0231 -0.0194
 9787W        W30067   0.191  19.392   3.153 -0.4013 -0.0736 -0.0562
 9788W        W30068   8.218   9.709  10.819 -0.1324  0.1704 -0.0953
 9789W        W30069   2.051  19.264   3.422 -0.0452 -0.3393 -0.4188
 9790W        W30070   2.659   9.288  12.053 -0.1293  0.2197  0.0758
 9791W        W30071  11.106  12.876   4.846  0.2127 -0.1228 -0.1504
 9792W        W30072  13.234   4.471  10.304 -0.0312 -0.1133  0.3432
 9793W        W30073  14.726   4.973   0.286  0.0070 -0.1688  0.1208
 9794W        W30074   4.350   7.243   1.262 -0.0367 -0.2964 -0.0756
 9795W        W30075   4.982  19.009   3.174  0.0882 -0.0204  0.1315
 9796W        W30076   8.293  10.940   3.237  0.1067 -0.3906 -0.0163
 9797W        W30077   9.831  14.582  12.813  0.0097  0.3381  0.2344
 9798W        W30078  18.424  13.983  12.391 -0.1939  0.2139 -0.1478
 9799W        W30079   3.177   7.356  12.167  0.0688 -0.0284  0.0706
 9800W        W30080   4.037  18.339   0.470  0.1097  0.1147  0.2489
 9801W        W30081   0.327  15.914   3.006 -0.0217  0.1598 -0.2375
 9802W        W30082   8.080   5.290   2.722 -0.0116 -0.1889 -0.4728
 9803W        W30083   2.157   9.829   0.557 -0.2031 -0.0981  0.0887
 9804W        W30084   0.654  10.245  12.293  0.0741 -0.0454  0.2070
 9805W        W30085  13.886   3.640  12.407  0.2468  0.2558  0.2548
 9806W        W30086  19.749  14.814  11.506 -0.0760  0.2352  0.1709
 9807W        W30087   5.432   2.889  13.998  0.2371 -0.0538 -0.3166
 9808W        W30088  13.244   0.032  11.684 -0.0259  0.0898  0.2082
 9809W        W30089   3.261   1.424   2.192  0.1289 -0.0082  0.0159
 9810W        W30090   8.932   2.396   0.229  0.0763  0.3848  0.1567
 9811W        W30091   0.831  12.773   3.637  0.0613  0.0192  0.3331
 9812W        W30092  19.300   2.922   1.317 -0.0667 -0.1201 -0.0033
 9813W        W30093   4.455  13.020  13.841 -0.0614  0.1619  0.2844
 9814W        W30094   3.451   0.246   1.620 -0.3085  0.1766  0.1935
 9815W        W30095  17.047  10.701  13.174 -0.0021 -0.0470 -0.0277
 9816W        W30096   6.519   6.331  11.563  0.1125  0.0480 -0.0086
 9817W        W30097   4.945   2.340  12.674  0.0289 -0.0427 -0.0888
 9818W        W30098   5.386   5.732   0.604 -0.1461  0.0650  0.3010
 9819W        W30099   5.621   0.470  11.749 -0.2159 -0.3772 -0.4452
 9820W        W30100  17.632  16.355  12.159  0.0694  0.1672 -0.0284
 9821W        W30101   0.665  16.549  13.739 -0.2247 -0.1840  0.1452
 9822W        W30102   8.058  16.642   3.532 -0.1109  0.0428  0.3765
 9823W        W30103   3.914   5.325  12.975  0.1512  0.0583 -0.1337
 9824W        W30104   8.519   8.242   0.169 -0.2160 -0.0042 -0.1803
 9825W        W30105  11.746   1.218  12.977  0.2397 -0.0924  0.3868
 9826W        W30106   8.109   5.657  10.506  0.2424  0.0360  0.1947
 9827W        W30107  10.622   4.182   0.203 -0.0571 -0.4055 -0.0162
 9828W        W30108  19.237  14.130  13.806 -0.0445 -0.0571 -0.0609
 9829W        W30109  17.346   2.980  12.814  0.0823 -0.0271  0.1886
 9830W        W30110  14.577   5.091  10.198  0.3335  0.0938 -0.0152
 9831W        W30111  15.197   6.401   0.319  0.2623 -0.2332 -0.1514
 9832W        W30112   2.290   2.412  13.635  0.0899  0.0258 -0.0809
 9833W        W30113  13.220  18.445  13.331 -0.1211 -0.1601  0.0609
 9834W        W30114  14.373   6.044   0.898  0.0278 -0.2703  0.0089
 9835W        W30115   1.314  17.952   3.036 -0.0222 -0.0134  0.0437
 9836W        W30116   7.028  16.818   0.488 -0.0727 -0.0644 -0.2154
 9837W        W30117   1.819  11.241   9.621 -0.2665  0.0091  0.0477
 9838W        W30118   0.067   4.571  12.191 -0.0928 -0.2180  0.0606
 9839W        W30119  16.651   7.518  13.583 -0.0485  0.1473  0.0590
 9840W        W30120   6.505  16.627   0.413 -0.1622  0.0934  0.1749
 9841W        W30121   3.439   1.631   0.952 -0.3670  0.3671 -0.3341
 9842W        W30122   5.945   8.569  12.795 -0.1302 -0.1339  0.0433
 9843W        W30123  18.387   1.699   0.366  0.0112 -0.2071  0.0170
 9844W        W30124   2.640   1.930   1.052 -0.1240  0.3325  0.1047
 9845W        W30125   4.549  12.980  13.303 -0.2067  0.2199 -0.0624
 9846W        W30126  15.829  14.465   2.820  0.0687 -0.2511  0.2461
 9847W        W30127   1.165   5.873   3.936  0.2725  0.1188 -0.0609
 9848W        W30128   7.266   6.054  13.587  0.2036  0.1525  0.3395
 9849W        W30129   1.997  11.725  13.341 -0.0393  0.0958  0.0314
 9850W        W30130   1.665   4.272   0.825  0.1276 -0.1003 -0.0382
 9851W        W30131   1.930   6.049  10.669  0.4513 -0.3278 -0.1375
 9852W        W30132  12.340   2.876  10.904  0.2831 -0.1342  0.1001
 9853W        W30133   9.444   1.640   1.377 -0.0300  0.3262  0.0204
 9854W        W30134   4.999   8.765   0.330 -0.3367  0.0140 -0.3079
 9855W        W30135   6.077   4.377   3.442 -0.1649  0.1293  0.1284
 9856W        W30136   1.323  19.087  12.767  0.2213  0.1788 -0.1254
 9857W        W30137   3.175  11.724   4.034  0.0961  0.0968  0.1592
 9858W        W30138  14.082  11.063   0.490  0.1791 -0.0932  0.2631
 9859W        W30139  15.900   8.838  12.056 -0.0879 -0.1128 -0.2716
 9860W        W30140   0.738  13.017  11.118 -0.1953  0.1598 -0.2736
 9861W        W30141  16.578   8.368  10.621 -0.2514 -0.1248  0.1528
 9862W        W30142   7.704  10.099  12.747  0.0766 -0.1041  0.2338
 9863W        W30143  17.320  10.532  10.847  0.2563 -0.1009 -0.0232
 9864W        W30144  19.198  14.315  12.021 -0.3029 -0.0455  0.1471
 9865W        W30145   4.312   2.680   3.345 -0.1214 -0.0771 -0.2125
 9866W        W30146   8.777   2.228   4.729 -0.1395  0.1331  0.1706
 9867W        W30147   8.595  10.134  10.886 -0.2391 -0.2904 -0.1931
 9868W        W30148   6.443   0.347   2.849 -0.2285 -0.3177 -0.3129
 9869W        W30149  19.251   6.906   1.174 -0.3565  0.0495  0.0501
 9870W        W30150   6.658   0.633  10.650 -0.0265 -0.0161 -0.2707
 9871W        W30151   8.594   0.927  11.047  0.3827 -0.2177  0.1609
 9872W        W30152  18.822  11.184   3.294 -0.1643  0.1720  0.1303
 9873W        W30153  13.686  13.447  13.856 -0.1128 -0.0306 -0.1610
 9874W        W30154   0.317   0.024   2.495 -0.1456  0.1134 -0.3268
 9875W        W30155  14.968   6.408  10.748  0.0087 -0.0994 -0.2492
 9876W        W30156   4.536   5.348  13.485 -0.2736  0.0569  0.0760
 9877W        W30157   9.132  18.041   2.393 -0.0376 -0.0257  0.0586
 9878W        W30158   9.688  15.297   9.455  0.4127 -0.3782  0.1973
 9879W        W30159  16.948  14.096   1.726  0.1315  0.1185 -0.1843
 9880W        W30160  17.856  14.334   2.328 -0.3044  0.0130  0.0263
 9881W        W30161  10.426  13.550   3.495  0.2107 -0.0178  0.1475
 9882W        W30162  11.687   6.180  10.460  0.3355  0.1017  0.1921
 9883W        W30163   0.093   4.627   2.709  0.0209 -0.3286 -0.3621
 9884W        W30164   3.725   1.820   2.121 -0.2758 -0.1325 -0.0260
 9885W        W30165   9.547   3.620  10.852  0.0195 -0.1843 -0.0484
 9886W        W30166   8.985  18.431  10.657 -0.4993 -0.0350  0.1631
 9887W        W30167   2.273   9.954   2.761  0.0202 -0.2110  0.2330
 9888W        W30168   4.125  17.048  13.431  0.1617  0.1155  0.1960
 9889W        W30169   5.845  11.229  11.350 -0.1874  0.0233 -0.0475
 9890W        W30170  14.555   9.987   0.024  0.2678  0.1081  0.0324
 9891W        W30171  15.856   0.368   1.754  0.0736  0.0845  0.1488
 9892W        W30172   6.001  18.584  13.067 -0.1843 -0.3490 -0.0873
 9893W        W30173  19.182   5.412  13.848 -0.1588 -0.0479  0.1152
 9894W        W30174   2.845  13.401   1.992 -0.0567 -0.1676 -0.2246
 9895W        W30175  10.171   6.523  13.580 -0.0152  0.0205  0.3520
 9896W        W30176   3.814   6.006  10.481  0.1706  0.0295 -0.3563
 9897W        W30177   9.666   4.098  12.680  0.1690 -0.0997 -0.0012
 9898W        W30178   5.687   9.575  11.179 -0.0247 -0.0519 -0.0907
 9899W        W30179  16.424   3.535   2.613  0.0885 -0.0052  0.3637
 9900W        W30180   1.095  11.656  13.137  0.0512  0.1108 -0.2574
 9901W        W30181  12.720   7.385  11.444 -0.0320  0.1149 -0.2409
 9902W        W30182   0.875   2.382  11.877  0.2387 -0.1402 -0.2119
 9903W        W30183   5.752   8.343  11.349  0.0206 -0.2846 -0.1592
 9904W        W30184   0.712   6.190   3.698 -0.2320  0.0653  0.1711
 9905W        W30185  14.096  16.738  13.032  0.0517 -0.0396 -0.0039
 9906W        W30186  16.242  17.326  10.207 -0.2400  0.1761 -0.0659
 9907W        W30187  10.023  10.678  12.119 -0.0992 -0.3639  0.1899
 9908W        W30188   4.328  17.785   2.550  0.1812 -0.0571  0.3303
 9909W        W30189  19.625  12.351  13.146  0.0862 -0.4305 -0.1092
 9910W        W30190   2.575   7.633   3.483  0.1274  0.3219 -0.1189
 9911W        W30191  16.075  14.702  13.122 -0.0736 -0.1747 -0.0925
 9912W        W30192   8.538  11.435   3.100  0.1200 -0.2284  0.0117
 9913W        W30193  15.642   0.527   9.686 -0.0510  0.1457  0.3293
 9914W        W30194  15.936  10.421  13.359  0.5138  0.1447  0.0397
 9915W        W30195   5.451   4.030   1.383  0.1525  0.1110 -0.5100
 9916W        W30196  14.310   8.995   1.153 -0.0777  0.0823  0.0166
 9917W        W30197  15.187  19.742   1.964  0.2921 -0.0313  0.1153
 9918W        W30198   7.687   5.921   2.652  0.0317  0.0053 -0.0653
 9919W        W30199  14.657   5.679  13.383  0.3602 -0.1486 -0.2475
 9920W        W30200  10.883   3.401   1.712 -0.3619 -0.0508 -0.0449
 9921W        W30201   5.525  12.815   1.490  0.3019  0.3070  0.1946
 9922W        W30202  17.152  13.409  13.357  0.0664 -0.1635  0.0897
 9923W        W30203   4.534   1.036  12.537  0.1208 -0.0852 -0.2104
 9924W        W30204  19.017  18.209  12.905 -0.1735  0.0201  0.1875
 9925W        W30205  15.772  14.195   3.269  0.1637  0.1068 -0.1264
 9926W        W30206  17.729  12.167   0.035  0.2047 -0.0426 -0.3697
 9927W        W30207  10.047   8.172   2.574  0.0612  0.0440  0.1104
 9928W        W30208   3.237  11.592  10.472  0.1782 -0.0503 -0.0864
 9929W        W30209   9.122  12.147  13.070 -0.2014 -0.0794 -0.1380
 9930W        W30210   9.838   4.399   0.752  0.1786 -0.1545 -0.0665
 9931W        W30211   6.256   2.696   3.492 -0.0763 -0.0969 -0.0651
 9932W        W30212  13.248  18.369   2.153 -0.3581 -0.0157 -0.0507
 9933W        W30213   7.788  12.960   4.075  0.1474  0.0958 -0.2713
 9934W        W30214   7.281  18.277   1.582  0.1913  0.0258  0.4158
 9935W        W30215   7.569  19.301   3.815  0.1404 -0.1346  0.2993
 9936W        W30216   8.160   6.244  13.219  0.0840 -0.3422  0.0630
 9937W        W30217  15.612  18.528   2.868  0.1527 -0.0003  0.4557
 9938W        W30218  11.784  11.859  12.287  0.2331 -0.4246 -0.1594
 9939W        W30219  18.838   6.221  12.003  0.3497  0.0451  0.0945
 9940W        W30220   4.625   1.305   1.846 -0.3110 -0.0479  0.0699
 9941W        W30221  11.324  12.151  13.683 -0.0680 -0.1961  0.0422
 9942W        W30222   4.017   8.497   1.708  0.4699  0.4844  0.5948
 9943W        W30223  13.630  16.649  11.161  0.1791 -0.1199 -0.0933
 9944W        W30224  10.713  16.158   2.592  0.2281  0.1196 -0.2709
 9945W        W30225   0.349  10.407   2.370  0.0670 -0.1409  0.1897
 9946W        W30226   7.873  16.940   3.159  0.2595  0.4082  0.0698
 9947W        W30227   1.863  16.222  12.209 -0.1736  0.0272  0.2200
 9948W        W30228  10.046  11.407   0.175  0.0705  0.1148 -0.3437
 9949W        W30229  16.216   7.870   9.134 -0.4832 -0.0127  0.0959
 9950W        W30230  10.945  17.988   3.410 -0.0241  0.1198 -0.0875
 9951W        W30231   8.400  10.869  12.968  0.2195  0.2965  0.0346
 9952W        W30232   3.590   7.597   1.792  0.0649  0.1714 -0.0375
 9953W        W30233  16.611   4.329  10.643 -0.1976  0.0213  0.2738
 9954W        W30234   6.145   1.087   0.365 -0.0539 -0.1732 -0.1316
 9955W        W30235  15.595  12.711  12.459 -0.2383 -0.1669 -0.3411
 9956W        W30236  10.706   5.306  10.090  0.1404  0.1024 -0.3672
 9957W        W30237   9.101   3.492  12.004  0.1253 -0.0244 -0.1515
 9958W        W30238  10.082   5.688  13.219 -0.0835 -0.2237 -0.2268
 9959W        W30239   0.757  15.498  13.787  0.0334 -0.0463 -0.1198
 9960W        W30240   7.605  11.776  11.955  0.2165 -0.0637 -0.2684
 9961W        W30241   4.600  10.150  13.357 -0.0452  0.2952  0.1005
 9962W        W30242  18.455  19.447   0.002  0.1113 -0.1717  0.0093
 9963W        W30243   4.264  17.867   4.014 -0.2932  0.1821  0.0455
 9964W        W30244   9.966  11.982  12.501 -0.1264  0.0529 -0.2581
 9965W        W30245  16.589   8.147   4.702 -0.0390  0.0265  0.2003
 9966W        W30246   1.744   4.134   1.812 -0.0197  0.1063  0.0647
 9967W        W30247   2.654  18.407  12.072  0.1336 -0.0627 -0.0553
 9968W        W30248  16.845   5.756   0.660  0.2046  0.0219  0.0351
 9969W        W30249  15.782  11.650  10.766  0.1117  0.3598 -0.1458
 9970W        W30250   2.473   9.141   2.315  0.1841 -0.1991 -0.1745
 9971W        W30251   8.095   4.974   4.199 -0.0274  0.1897 -0.1263
 9972W        W30252   7.443   8.647  10.974  0.1247 -0.1341 -0.1852
 9973W        W30253   2.656   9.413  13.338 -0.1027 -0.0027  0.2874
 9974W        W30254   2.496   4.576   1.286 -0.0512 -0.0429  0.0086
 9975W        W30255   2.198  13.640   9.559 -0.3498 -0.1117  0.1819
 9976W        W30256  12.494   1.160   1.985 -0.1187  0.1475  0.0221
 9977W        W30257  15.472  16.946   1.258  0.0647 -0.1864 -0.0976
 9978W        W30258   9.514   9.394  11.041  0.1949  0.0856  0.2891
 9979W        W30259  15.007   1.967   1.795  0.0269 -0.1793 -0.1944
 9980W        W30260   3.632  11.524  11.913 -0.0128 -0.0305 -0.0417
 9981W        W30261   2.415   1.279   9.834 -0.2072 -0.1560 -0.0888
 9982W        W30262  18.345   9.560  11.374  0.2807  0.1672  0.0159
 9983W        W30263   3.662  17.363   2.018  0.0698  0.0751  0.0476
 9984W        W30264  12.549   3.419  12.198 -0.1343 -0.0800 -0.1375
 9985W        W30265   1.605  16.216   4.220 -0.1341 -0.0326 -0.0817
 9986W        W30266   4.100   9.421   4.187 -0.0016 -0.0902 -0.0771
 9987W        W30267  12.575  16.084   2.605 -0.1223  0.1309  0.2231
 9988W        W30268  18.010  19.332  11.980  0.0318 -0.0372 -0.0960
 9989W        W30269   7.946  11.463  12.245  0.1018  0.0273 -0.4915
 9990W        W30270   9.156   7.397  11.782 -0.0339 -0.0559 -0.2142
 9991W        W30271  14.607   9.318   2.608 -0.2021 -0.1942 -0.0878
 9992W        W30272   4.653   0.396   0.825 -0.2319  0.0678  0.1308
 9993W        W30273  14.350  11.617  13.537  0.2054 -0.1772  0.1388
 9994W        W30274   5.749   4.616  14.107 -0.1509 -0.2786  0.1169
 9995W        W30275   8.803  18.858   1.022  0.0328 -0.0185  0.1808
 9996W        W30276   2.815   1.925   2.708  0.1509 -0.0355  0.0207
 9997W        W30277   6.629  16.482  12.663 -0.0977  0.0183 -0.1045
 9998W        W30278  14.375   9.535   3.006 -0.1118 -0.0708 -0.2467
 9999W        W30279   5.681   4.225   0.321  0.0958 -0.0948  0.3162
10000W        W30280   5.446  14.756   0.584  0.2301  0.1761 -0.1976
10001W        W30281   1.716  14.745   1.325 -0.0661  0.2599  0.2477
10002W        W30282   8.967   1.146  12.602  0.2579 -0.1108  0.0392
10003W        W30283   5.711  14.390   1.520  0.1862  0.1120  0.1257
10004W        W30284  15.424   5.437  10.942 -0.0038  0.0250  0.2325
10005W        W30285  15.422  18.922  11.705 -0.1067  0.0174 -0.0819
10006W        W30286  10.362   7.134  11.794  0.1486  0.3239  0.0644
10007W        W30287  10.139  10.039  10.805 -0.1438 -0.1695  0.0323
10008W        W30288  12.695  11.235   2.220  0.1041 -0.0508  0.2052
10009W        W30289   2.629   2.107  11.149 -0.2284  0.0316  0.0837
10010W        W30290   1.581   2.682   0.375  0.2847  0.0148  0.3057
10011W        W30291   6.750   2.124   2.323 -0.0127  0.6292  0.3160
10012W        W30292   0.621  12.857  12.894  0.0461 -0.1481  0.0717
10013W        W30293  16.217   2.235   0.345 -0.2079  0.2276  0.0383
10014W        W30294  10.874  17.299  13.375  0.1367 -0.2710 -0.0288
10015W        W30295  15.384   0.979   0.363 -0.4216 -0.3226 -0.0655
10016W        W30296  14.526  13.052  11.883  0.2361  0.2830 -0.2215
10017W        W30297   4.486  17.675   1.639 -0.3127 -0.0898  0.1887
10018W        W30298  18.625   7.536   0.541 -0.1954 -0.1143 -0.0164
10019W        W30299   3.496   3.547   3.442 -0.0717  0.1246  0.3607
10020W        W30300   8.583  13.897  12.867 -0.2352  0.2764 -0.4418
10021W        W30301  15.963  13.428   0.248  0.1337 -0.0471 -0.2462
10022W        W30302   5.879  18.798  10.475 -0.0250 -0.1934 -0.3061
10023W        W30303  16.713  10.015   2.490  0.1276 -0.0839  0.3707
10024W        W30304  13.861   3.021   0.161  0.1559 -0.0866  0.3074
10025W        W30305   1.084  14.926   3.578 -0.0482 -0.1046 -0.1706
10026W        W30306   0.271   1.597   0.688  0.0148 -0.0073 -0.0190
10027W        W30307   6.441  18.813   1.593 -0.0424 -0.6228  0.1017
10028W        W30308   0.176   9.094   2.729  0.2898 -0.0013  0.2138
10029W        W30309  18.534   4.922  12.007 -0.0854  0.3322 -0.0256
10030W        W30310  10.058  18.715   5.043  0.1018  0.0256 -0.1855
10031W        W30311  14.710  15.851  11.199 -0.0345  0.0902 -0.0087
10032W        W30312  11.287  16.879  12.540 -0.2730 -0.2397  0.2991
10033W        W30313  18.224   6.796  12.970  0.1038  0.3746  0.2278
10034W        W30314  13.002  19.728  12.691 -0.2186  0.0869 -0.2402
10035W        W30315   9.395  10.281   3.627 -0.1113  0.2845 -0.1360
10036W        W30316   0.045  14.499   0.475 -0.0811 -0.1410  0.0165
10037W        W30317   6.147  12.999   1.100 -0.0246 -0.2689  0.0137
10038W        W30318   5.249  17.460   3.991 -0.2029 -0.2157  0.0400
10039W        W30319   0.178  13.506  12.489 -0.0861 -0.1451  0.1233
10040W        W30320  12.224  12.981  10.682  0.0495 -0.3627  0.1860
10041W        W30321   6.501   2.065   1.838  0.6056  0.0236  0.0386
10042W        W30322  10.963  10.900   3.275  0.1455 -0.2395 -0.1119
10043W        W30323  12.414  13.502   0.250 -0.0835 -0.1793 -0.1432
10044W        W30324   7.026  14.641  13.439  0.0493  0.2641  0.2335
10045W        W30325   8.351  10.083   0.445 -0.2808  0.2148  0.2579
10046W        W30326   5.940  11.831   0.575  0.2727  0.3254  0.1028
10047W        W30327  17.919  17.394  10.987 -0.4540  0.3993  0.0039
10048W        W30328  12.488  11.784  13.602  0.2358  0.1013  0.1772
10049W        W30329  18.428   7.736   3.658  0.0197  0.0848  0.0943
10050W        W30330   8.000   5.114   3.308  0.2585 -0.0279 -0.1303
10051W        W30331  14.157   2.823   1.368 -0.1679 -0.1693 -0.1085
10052W        W30332   8.047   0.687   0.017 -0.0068 -0.0817  0.0180
10053W        W30333   6.800  13.876  13.552 -0.0845  0.0862  0.3294
10054W        W30334  17.645   5.608   0.892 -0.1587 -0.0701  0.1838
10055W        W30335   0.161  13.843  13.369  0.0612  0.4068 -0.2580
10056W        W30336   6.732   9.161  10.981 -0.1552 -0.0051 -0.0750
10057W        W30337   9.283   7.093  13.575  0.2581  0.0454 -0.0831
10058W        W30338  19.693  13.518  13.048 -0.0511  0.2463  0.0226
10059W        W30339  18.734  16.364  13.424  0.3350  0.1292 -0.0705
10060W        W30340   5.904  18.721   3.361  0.1717  0.0038 -0.0128
10061W        W30341   3.076  12.765  12.059  0.1930 -0.4726  0.0437
10062W        W30342   2.321  15.629  11.884 -0.0357 -0.0269 -0.3328
10063W        W30343   3.931   0.206  14.028 -0.3373 -0.0399  0.1855
10064W        W30344  14.550   4.805   2.788  0.3703 -0.0472  0.1446
10065W        W30345  16.529  13.377  13.233  0.0343  0.1531  0.0269
10066W        W30346   9.524  17.397  11.170  0.1660 -0.1562 -0.2443
10067W        W30347   8.591   2.260   0.547  0.2619  0.2983  0.0888
10068W        W30348   9.473  16.553  13.653  0.2175 -0.2989 -0.2994
10069W        W30349  17.823  16.443  13.396  0.1579  0.1790 -0.0469
10070W        W30350  15.038   4.009   0.910 -0.0754  0.0915 -0.2355
10071W        W30351   9.843  17.644  12.732 -0.1351 -0.2772 -0.0407
10072W        W30352   2.380   9.100   3.531 -0.1896  0.0206  0.0758
10073W        W30353   9.964   1.514   0.249 -0.1438 -0.2435  0.0708
10074W        W30354  17.792   9.435  12.794 -0.0934 -0.1264  0.0838
10075W        W30355  19.644   0.333  13.035  0.2317 -0.2306 -0.1775
10076W        W30356   6.381  10.993  13.363 -0.3408 -0.1501  0.2456
10077W        W30357  14.856  12.587  11.306 -0.0884  0.0689 -0.1575
10078W        W30358  13.461   9.950   4.086  0.2593  0.0914  0.1214
10079W        W30359  14.973  10.745   4.033 -0.2865 -0.0547  0.1866
10080W        W30360  11.482   7.073  11.363  0.0018 -0.0243  0.3505
10081W        W30361   3.545   5.188   1.744  0.0186 -0.1480 -0.2869
10082W        W30362  16.595  18.294   2.739  0.0339 -0.3619  0.0426
10083W        W30363  19.230   5.205   9.924  0.3420  0.1448  0.1272
10084W        W30364  15.237  11.345   2.915  0.0623 -0.3839  0.0179
10085W        W30365  17.878   1.565  11.757 -0.1180  0.1023 -0.0165
10086W        W30366  17.351  12.097   1.384 -0.0259 -0.0856  0.0259
10087W        W30367   2.086  12.302   1.307  0.1015  0.1218 -0.3750
10088W        W30368  15.938   0.675  11.852  0.3401  0.3810  0.0558
10089W        W30369   1.908   4.998   4.942 -0.0031  0.0087  0.0162
10090W        W30370   3.273  17.762   1.961  0.3094  0.0840 -0.4264
10091W        W30371  16.216  15.044  10.662  0.2715 -0.1005  0.0221
10092W        W30372  11.399   7.182  11.858  0.0010  0.0218  0.0083
10093W        W30373   8.068  11.143   4.222 -0.0487  0.0519  0.2241
10094W        W30374   3.630   8.483  13.345 -0.3125 -0.0246 -0.2299
10095W        W30375  12.639  19.493   0.187 -0.1544 -0.0196 -0.2498
10096W        W30376  15.929  15.281   3.274  0.0735  0.0123  0.1414
10097W        W30377   5.033  17.146  10.461 -0.0664  0.1645  0.0660
10098W        W30378  19.054   7.140   3.118  0.0469 -0.0529  0.2565
10099W        W30379   4.179  12.364  11.315 -0.1236  0.0672 -0.0302
10100W        W30380   3.219   3.160  11.609  0.1667 -0.3504 -0.0869
10101W        W30381  16.419  14.676   1.602 -0.2858 -0.1515  0.0288
10102W        W30382  11.702  16.694  11.082 -0.1537  0.0128  0.1250
10103W        W30383   0.621   3.680   4.069  0.3198  0.0431  0.0327
10104W        W30384  12.482   9.703   3.471  0.0291 -0.3378  0.4899
10105W        W30385  18.746  10.902   2.013  0.0208  0.1234  0.0264
10106W        W30386   3.232  15.554   3.402 -0.0950  0.1036  0.1187
10107W        W30387   3.508  10.020  11.465  0.0040 -0.1048  0.1879
10108W        W30388   3.337  16.961   2.467 -0.0055  0.0671 -0.1233
10109W        W30389  13.138  16.012   3.459 -0.0059 -0.2559 -0.0894
10110W        W30390   3.884   7.459  13.670  0.2708 -0.2343  0.2352
10111W        W30391   2.630   0.906   1.110  0.1029 -0.0283 -0.3232
10112W        W30392  12.983  19.331   2.014  0.3003 -0.0782  0.1315
10113W        W30393  11.704  17.778  11.059  0.0630 -0.0619  0.0855
10114W        W30394   8.163   9.735  13.706  0.0655  0.0241 -0.0983
10115W        W30395   1.904   0.109  13.292 -0.0520 -0.0223 -0.0298
10116W        W30396  15.697  11.348   3.144 -0.1380 -0.1508  0.0260
10117W        W30397  16.226   0.829   2.615  0.1465  0.1253 -0.1418
10118W        W30398   6.876  15.764   3.558 -0.0936  0.1688 -0.4151
10119W        W30399   4.346  11.482   2.506 -0.2537  0.0334  0.1527
10120W        W30400   3.210   5.818   4.055 -0.2171  0.2553 -0.1198
10121W        W30401   9.037   8.815  10.673 -0.0744  0.0818  0.1815
10122W        W30402  18.584   4.511   1.138  0.0509 -0.1579  0.0859
10123W        W30403   7.928   4.657  10.387  0.1151  0.3350 -0.2434
10124W        W30404   5.037  13.135   3.746 -0.2526 -0.2846  0.1007
10125W        W30405   5.477  12.981  11.148  0.1157 -0.0018 -0.1860
10126W        W30406   1.468   5.733   0.653  0.0856  0.2075  0.0389
10127W        W30407  13.259   9.484  12.145 -0.1452 -0.0491 -0.2293
10128W        W30408   2.817  17.123  11.983 -0.0178 -0.0201  0.0725
10129W        W30409   2.927   9.072   9.958  0.0302 -0.2225  0.4274
10130W        W30410  13.091  13.470  10.936  0.0750 -0.0579 -0.1247
10131W        W30411   1.433  16.192   2.882 -0.0163  0.0966 -0.1093
10132W        W30412   0.918  11.680  12.161  0.1583  0.3721 -0.0092
10133W        W30413   1.160   7.293  11.584 -0.1592 -0.3512 -0.0365
10134W        W30414  19.172  11.512  12.954  0.0991 -0.2111 -0.1318
10135W        W30415   9.687  17.647   3.171 -0.1730  0.1513 -0.2044
10136W        W30416   9.428  16.770  12.793 -0.3687  0.1578  0.0687
10137W        W30417  17.412  14.475   1.550 -0.0600 -0.0405 -0.1110
10138W        W30418   0.402  11.777   3.578  0.0868 -0.2409 -0.4143
10139W        W30419  11.291   9.203  11.852  0.0064  0.2740 -0.0250
10140W        W30420   7.834   0.354  10.445 -0.1686 -0.1905  0.1584
10141W        W30421   4.927   8.529  13.374  0.1358 -0.3134  0.2136
10142W        W30422  11.075  11.288  11.473  0.0096 -0.0990  0.2639
10143W        W30423  14.531  16.676  11.549  0.0251 -0.1489  0.1682
10144W        W30424  15.927   0.883   0.373 -0.1587 -0.0882 -0.1123
10145W        W30425   3.568   0.776   1.515  0.3929 -0.3643 -0.3058
10146W        W30426   4.840  18.851   0.971 -0.2490 -0.0680  0.0495
10147W        W30427   1.357   3.150  13.783 -0.1487 -0.1147 -0.0481
10148W        W30428   8.846   9.711   4.323 -0.2980  0.2839  0.0761
10149W        W30429   9.414  18.670  10.692  0.0771  0.2586  0.1405
10150W        W30430   8.229   1.849  13.021 -0.0921 -0.4354 -0.0795
10151W        W30431   8.839   8.747   2.585  0.2176  0.0567 -0.1834
10152W        W30432  15.604  16.758  10.406 -0.3198  0.2055 -0.2153
10153W        W30433  11.569   3.418   3.516 -0.1333  0.2938  0.1702
10154W        W30434   1.504   2.796  11.427  0.0065 -0.0246  0.0795
10155W        W30435   7.359  12.223   1.211 -0.1683 -0.1162  0.0148
10156W        W30436   4.391  19.621  10.283  0.2646  0.1555 -0.1377
10157W        W30437  13.702  11.931   0.155 -0.0658 -0.1754 -0.0594
10158W        W30438   5.799  11.076   0.619 -0.0973 -0.0327  0.0779
10159W        W30439  14.894   9.039   2.243 -0.0547 -0.4157 -0.0567
10160W        W30440   7.677   7.056  11.946  0.1814  0.1152 -0.1436
10161W        W30441  13.841  10.654   1.981  0.1913 -0.1113 -0.0305
10162W        W30442   8.763  12.118   4.255  0.1787 -0.2150  0.0147
10163W        W30443   0.084   9.373   0.212 -0.3588 -0.1759  0.1002
10164W        W30444   0.965  13.767   2.183  0.1468  0.2417 -0.0620
10165W        W30445  13.249  17.098  12.397 -0.1843  0.1523  0.0959
10166W        W30446   7.152  13.746   1.173 -0.3301  0.1174  0.1313
10167W        W30447  18.174   7.949  13.670  0.2228  0.1142 -0.3115
10168W        W30448   6.295  14.937  11.643 -0.0301 -0.1115  0.0611
10169W        W30449  13.094  12.994  12.966  0.0747  0.2955 -0.3065
10170W        W30450  15.430  12.767   1.787  0.1974  0.2454 -0.0500
10171W        W30451  16.413  11.535   1.129  0.0352  0.0016 -0.2068
10172W        W30452   0.961   0.727  11.919  0.3442  0.1790  0.4188
10173W        W30453  17.019   6.263   1.295 -0.1389 -0.2505 -0.2394
10174W        W30454  12.843  11.797   9.660  0.1439  0.2230 -0.2487
10175W        W30455  16.525   7.868   1.877 -0.0239  0.2358  0.2538
10176W        W30456  10.660  11.307  13.182  0.0876  0.1927 -0.1951
10177W        W30457   9.355  14.829   2.457  0.1547 -0.1050  0.0194
10178W        W30458   1.790  15.077  13.094 -0.1099  0.0178  0.1247
10179W        W30459  16.128   8.143   2.092 -0.1053  0.0693 -0.0448
10180W        W30460  17.778   5.644   3.303  0.1044  0.0438  0.3021
10181W        W30461  11.132   8.028   0.933  0.1311 -0.2957 -0.0106
10182W        W30462   2.096   3.501  12.811  0.0032  0.1771  0.1198
10183W        W30463  17.443   5.115   0.030  0.1137 -0.1887 -0.0141
10184W        W30464   6.816   9.242   4.390 -0.1771  0.0514 -0.1424
10185W        W30465   8.611   6.498   2.441 -0.2701  0.3581  0.1112
10186W        W30466   6.071   7.419   3.270  0.1424  0.1756  0.0684
10187W        W30467  14.012   4.802  12.436 -0.1542 -0.1198 -0.1288
10188W        W30468   8.788  14.608   1.461 -0.1947 -0.3036  0.1554
10189W        W30469  10.532   1.150  12.361  0.1171  0.2154 -0.1356
10190W        W30470   6.181  15.584   1.514  0.1133 -0.2530  0.0034
10191W        W30471  13.280   6.883  13.726 -0.1113 -0.1963 -0.1331
10192W        W30472  13.012  12.751   1.654  0.2446 -0.1202  0.0362
10193W        W30473  14.931  17.844  10.604  0.2224  0.1003 -0.1960
10194W        W30474   2.957  11.997  11.582 -0.1145 -0.0006  0.1738
10195W        W30475  10.898  10.072   3.676  0.0738 -0.0391 -0.0713
10196W        W30476   4.326  11.622   1.637 -0.1454  0.0121  0.1954
10197W        W30477   0.312  13.359   3.386 -0.0838  0.1947 -0.0512
10198W        W30478  11.969  11.933   3.974 -0.0084 -0.1915 -0.2791
10199W        W30479  14.502   0.519   1.550 -0.2458 -0.0094  0.0570
10200W        W30480   1.673  11.879  11.817 -0.3244  0.0824 -0.1992
10201W        W30481   8.990   7.878  11.551 -0.3380  0.3446  0.1507
10202W        W30482  11.547  19.453  12.241  0.3353 -0.1360 -0.1232
10203W        W30483  16.743   5.136  12.776  0.0755 -0.1347  0.1346
10204W        W30484  13.343  13.157  14.025  0.1076  0.2669  0.3400
10205W        W30485  13.613   1.663  12.560 -0.1281 -0.1936  0.3512
10206W        W30486  14.188   3.507  11.890 -0.0572  0.2711 -0.0889
10207W        W30487  16.440   3.624   1.097  0.2219 -0.2411  0.1232
10208W        W30488   9.419  10.669  12.471 -0.0207  0.1483 -0.0151
10209W        W30489   4.706   3.954   2.123 -0.0807  0.3493  0.3478
10210W        W30490  17.804   2.595  12.968  0.0015 -0.1604  0.0114
10211W        W30491   4.436   2.889   0.272  0.0343 -0.0187  0.1478
10212W        W30492   6.226   1.822  13.844  0.1447 -0.0584  0.0953
10213W        W30493  11.233  13.196   1.775 -0.1115 -0.1045 -0.1826
10214W        W30494  13.564  14.596  11.343 -0.2262  0.0879  0.0586
10215W        W30495   9.793  19.573  12.921  0.1840 -0.0248  0.0993
10216W        W30496   6.845  16.152   3.269  0.0478 -0.0460  0.0705
10217W        W30497  18.848  10.406   1.713 -0.2909 -0.1002  0.1990
10218W        W30498  18.835   6.609   1.259  0.3004 -0.1765  0.0978
10219W        W30499   2.906  16.007  10.515 -0.1085 -0.1352 -0.1342
10220W        W30500  10.854  14.498  12.451  0.0903  0.1072  0.2506
10221W        W30501   6.756  18.783  13.748 -0.1318  0.0439 -0.2673
10222W        W30502   3.519   4.810   2.130  0.1357 -0.0715  0.1570
10223W        W30503   0.580   5.117  12.815 -0.1334  0.0849  0.0721
10224W        W30504   4.069   9.698  11.320 -0.0308 -0.1913 -0.0302
10225W        W30505   0.907  17.612  10.962  0.2386 -0.1016 -0.0164
10226W        W30506  10.102  17.267   3.598  0.5061  0.1103 -0.0192
10227W        W30507  17.576  14.970  13.251 -0.2133  0.0677  0.1392
10228W        W30508  16.987  10.219   0.351  0.1538  0.1250 -0.0180
10229W        W30509  17.656  14.634   9.252 -0.0289  0.0777  0.1111
10230W        W30510  18.055  11.563  12.147 -0.2947  0.2652 -0.0441
10231W        W30511   8.472  17.049   2.348  0.3928 -0.0192 -0.1111
10232W        W30512   2.901   0.919   1.564 -0.0340 -0.1563  0.1256
10233W        W30513   6.057  11.054   2.945 -0.2934  0.1109  0.0793
10234W        W30514  13.374   1.431   4.234 -0.3265 -0.1330 -0.0524
10235W        W30515   0.971  16.427   1.264 -0.0206  0.2971  0.0692
10236W        W30516   1.721   5.277   1.746 -0.1473 -0.0236  0.0858
10237W        W30517  17.294   5.859   0.601 -0.1565 -0.1108 -0.2955
10238W        W30518   5.123   2.835  11.587 -0.1437 -0.0150  0.0631
10239W        W30519   9.251   5.551   3.569  0.2777  0.1702  0.0297
10240W        W30520   9.692  12.879  12.654  0.1110  0.2271  0.0143
10241W        W30521   5.055  12.421  13.977 -0.1334  0.0499 -0.0136
10242W        W30522  15.692  15.729   2.497 -0.0232 -0.1166 -0.2169
10243W        W30523  15.669  12.867  11.643 -0.2966 -0.0451  0.3795
10244W        W30524   1.435   3.725   3.811 -0.1097  0.1672  0.0891
10245W        W30525   4.558  12.501   3.320 -0.0509  0.3595  0.0084
10246W        W30526   1.039  13.052   3.224  0.3825  0.3430 -0.0153
10247W        W30527   1.903  16.860   2.845  0.2436 -0.0462  0.0680
10248W        W30528   5.797   7.659   0.316 -0.1915 -0.1140 -0.1996
10249W        W30529   1.091  18.757   2.619 -0.4440  0.1846  0.1153
10250W        W30530  10.727  10.141  14.041  0.2536  0.1977  0.2520
10251W        W30531  17.235  15.079   3.331  0.2703 -0.0021 -0.1025
10252W        W30532  10.007  16.173   3.117  0.0653  0.0372  0.3359
10253W        W30533   2.003  13.308   4.039 -0.1830  0.0011 -0.1001
10254W        W30534  13.272   9.057  14.026  0.1438 -0.0399 -0.2108
10255W        W30535  10.406   9.242   1.063  0.2168 -0.0226  0.1532
10256W        W30536   5.311  17.408   8.883  0.1545 -0.1288  0.3013
10257W        W30537   4.059  12.191   0.886 -0.0575 -0.2040 -0.0695
10258W        W30538   5.229  19.139  13.102 -0.0375 -0.0037  0.1641
10259W        W30539   5.557   7.465   3.060 -0.2387 -0.4146  0.0726
10260W        W30540   1.551   8.614   0.372  0.0141 -0.1737  0.1821
10261W        W30541   3.143   3.964   2.166 -0.3590  0.2562  0.2048
10262W        W30542   3.895  14.055   0.727 -0.2431 -0.0352 -0.1539
10263W        W30543   3.880  12.527   3.757 -0.1885  0.0735 -0.0087
10264W        W30544  12.408   6.594   2.551 -0.2307 -0.1496  0.2220
10265W        W30545  10.341  11.005   1.932 -0.0548 -0.1457 -0.0228
10266W        W30546  11.889  14.120  12.466 -0.0782 -0.2543 -0.2166
10267W        W30547  11.246  12.283   1.536  0.0148 -0.2061  0.1578
10268W        W30548  13.282   5.580  10.698  0.3472 -0.2898  0.1414
10269W        W30549  10.740  18.863   0.171 -0.1688 -0.0005  0.4033
10270W        W30550   8.893  11.981   0.651  0.1553  0.0178  0.0843
10271W        W30551   6.560  15.353   3.663 -0.0957  0.1516  0.2513
10272W        W30552   9.886   8.869   3.468  0.0463 -0.0875  0.2774
10273W        W30553  11.590  11.477  12.955 -0.5249 -0.2371  0.1297
10274W        W30554   5.702  15.672   3.565 -0.1263 -0.0074  0.2353
10275W        W30555   5.575  13.825   2.619 -0.0378 -0.2855  0.1528
10276W        W30556   9.969  17.105  10.354  0.0768 -0.0077  0.1557
10277W        W30557  11.764   9.440  11.863 -0.2817  0.2125  0.0363
10278W        W30558  14.563  10.188  12.272 -0.0976 -0.2241 -0.2675
10279W        W30559  15.042   2.446   2.073  0.1957  0.1062  0.0036
10280W        W30560  17.135  18.661   0.621 -0.0008 -0.3242 -0.5440
10281W        W30561  14.306  13.551   1.445 -0.0790 -0.0359 -0.0807
10282W        W30562   6.191   3.539  10.801 -0.1497 -0.0056 -0.0924
10283W        W30563  12.929  13.593  10.490 -0.2135 -0.1323  0.0797
10284W        W30564   8.094   1.625   2.335  0.2168  0.2523 -0.0870
10285W        W30565   5.659   4.663   3.814 -0.0714 -0.0081  0.0820
10286W        W30566  17.722   6.539   1.939  0.0886 -0.5091 -0.0048
10287W        W30567  14.238   2.029   2.664  0.2592 -0.1271 -0.1423
10288W        W30568  12.145  12.091  13.089 -0.2258 -0.0092 -0.2835
10289W        W30569   6.316   7.675   0.324  0.1120 -0.0032  0.1065
10290W        W30570   2.511  16.633   2.026  0.2056 -0.0659  0.3351
10291W        W30571   3.377  12.020   4.352  0.1061  0.2280  0.4989
10292W        W30572  14.710  18.637   2.481 -0.0988  0.2551  0.0287
10293W        W30573   4.754  10.866   3.641  0.0272 -0.0166  0.3416
10294W        W30574   1.409  10.101   1.170 -0.1098 -0.1289  0.1253
10295W        W30575  15.773  17.864  13.738  0.0540 -0.2201  0.1200
10296W        W30576  18.912  14.901   0.311  0.0506  0.0783 -0.0844
10297W        W30577  10.063  13.209   1.570 -0.1006  0.0581 -0.1788
10298W        W30578  15.123   6.963   9.808 -0.0284 -0.0556  0.4338
10299W        W30579   3.208   9.807  10.647  0.0514 -0.2270  0.0039
10300W        W30580  16.329   9.688   2.752  0.0895 -0.1238 -0.0708
10301W        W30581  12.196  14.003  13.657  0.2193  0.0294  0.2034
10302W        W30582  11.028   2.292  12.332  0.0936  0.0634 -0.1315
10303W        W30583   6.215   2.528   2.921 -0.0584  0.3083  0.2143
10304W        W30584   6.617  13.035  11.294 -0.0242  0.0549 -0.2761
10305W        W30585  12.136   7.055   0.331 -0.0173  0.4358 -0.5208
10306W        W30586  18.419  13.094   4.151 -0.2520 -0.3044 -0.2156
10307W        W30587  13.269   8.231  12.820  0.0325  0.1741  0.0769
10308W        W30588   2.041  14.922  11.437  0.0105  0.0276  0.0738
10309W        W30589   6.161   0.581   0.197 -0.3123 -0.0956 -0.0180
10310W        W30590   5.020  10.962   0.258 -0.1109  0.1201  0.4827
10311W        W30591   5.008   8.036   3.157  0.3229 -0.3329 -0.1528
10312W        W30592  19.447  13.166   1.838  0.1154  0.1138 -0.3225
10313W        W30593  13.630   8.301  10.427 -0.2097  0.0227 -0.2688
10314W        W30594   8.659  12.425   0.729 -0.1112  0.0107  0.1586
10315W        W30595   1.205   4.270   3.740  0.0440 -0.1054  0.0064
10316W        W30596   7.748   7.874   0.969  0.0665 -0.1443  0.1471
10317W        W30597   6.561   8.506   4.003  0.1478  0.0838 -0.1797
10318W        W30598  13.919  17.028  13.715  0.0724 -0.0053  0.2612
10319W        W30599   4.928  16.121   2.299 -0.1567  0.1179 -0.1701
10320W        W30600   0.270  11.671   1.640 -0.2606  0.0044  0.1063
10321W        W30601  10.602   9.365   2.496  0.4343  0.1212 -0.2276
10322W        W30602  13.117   5.914   1.679  0.0664 -0.0660  0.0880
10323W        W30603  13.618   2.136   0.760  0.1140 -0.1387 -0.0235
10324W        W30604  15.806   6.578  11.948  0.0550  0.0603 -0.0552
10325W        W30605  15.764   1.644  13.128  0.4755  0.0710 -0.1119
10326W        W30606   3.111   0.749   1.094  0.0815  0.2778 -0.2429
10327W        W30607   1.642  17.322   0.457  0.2315  0.2483 -0.1092
10328W        W30608  17.853  18.104   9.972 -0.3255  0.3577 -0.0777
10329W        W30609  12.956   8.685  10.588  0.0859 -0.2306  0.0062
10330W        W30610  18.247  14.265  13.925  0.1033 -0.0058 -0.0359
10331W        W30611   3.272  18.634  11.226  0.0218 -0.2416 -0.1018
10332W        W30612  11.755   6.967  13.593  0.6092 -0.0631  0.2522
10333W        W30613   0.421   7.593  13.071  0.0252 -0.2969 -0.2875
10334W        W30614  16.252  17.458   0.794 -0.1044 -0.0695  0.0541
10335W        W30615  16.440   3.403  12.886  0.2921 -0.2280 -0.3049
10336W        W30616   4.567   3.390   3.525 -0.1092 -0.0773  0.1892
10337W        W30617  18.561   1.992  12.119 -0.2942 -0.2904 -0.0859
10338W        W30618  12.589   6.532   0.883 -0.1703  0.0880  0.1925
10339W        W30619   7.674   4.958   2.770 -0.0282 -0.1442 -0.3689
10340W        W30620  18.920  14.791   3.878 -0.0019  0.1264 -0.0281
10341W        W30621   2.731   5.409  11.537 -0.0196  0.0767  0.0527
10342W        W30622  19.096  13.323  13.527 -0.2259  0.1170  0.2885
10343W        W30623  16.843   6.562  10.466  0.1962  0.1631 -0.1570
10344W        W30624  18.174   0.961  11.378  0.1940  0.3191 -0.1769
10345W        W30625  10.773   1.396  13.907 -0.1692 -0.3397 -0.0547
10346W        W30626  12.644  12.959  13.443 -0.2360 -0.0735 -0.0264
10347W        W30627   8.753   7.529  12.578 -0.1688  0.0497 -0.1057
10348W        W30628   3.431  10.935   3.016  0.0045  0.1021 -0.0453
10349W        W30629  18.097  16.009  13.172 -0.1680 -0.2598  0.2928
10350W        W30630  11.058  13.497  13.290  0.2434  0.2479 -0.3045
10351W        W30631  14.863  12.286  11.781 -0.4582  0.0883  0.2757
10352W        W30632   2.662   0.501  10.390 -0.1959 -0.1417 -0.0711
10353W        W30633  18.041   1.713   2.238 -0.1888  0.1568  0.0434
10354W        W30634   2.012   9.589   3.259  0.0219 -0.4041  0.0762
10355W        W30635  12.932   5.109   4.632  0.2073 -0.0842 -0.0114
10356W        W30636   5.366   6.018   1.155  0.2924  0.1651  0.1109
10357W        W30637   3.837  11.069  10.992  0.0112 -0.1754  0.2284
10358W        W30638   7.659  14.970  12.976  0.1468 -0.0928  0.1456
10359W        W30639  11.100   2.644  10.692 -0.2246 -0.0520 -0.3972
10360W        W30640   4.072  19.283  12.095 -0.0111  0.0142  0.1982
10361W        W30641  17.973  18.439  10.861 -0.0772  0.1417  0.0052
10362W        W30642  19.219   0.760   1.601 -0.0727 -0.3724 -0.0439
10363W        W30643  19.598  19.112   3.048  0.0097  0.1155  0.0027
10364W        W30644  17.098  13.973  10.787 -0.1486  0.0890 -0.1595
10365W        W30645   3.485   9.898   2.167  0.2131 -0.2034 -0.0298
10366W        W30646  14.742  15.360  11.526  0.1900  0.0003  0.3428
10367W        W30647   5.373  10.866   0.727  0.5014 -0.1534 -0.2342
10368W        W30648  17.550  11.390  13.878 -0.1763 -0.4121  0.4037
10369W        W30649  13.456   4.976   4.475  0.1865  0.3907  0.1996
10370W        W30650  13.782  12.405  11.132 -0.1070 -0.0911  0.2217
10371W        W30651   4.204   4.184   2.027  0.4307  0.2996  0.1697
10372W        W30652  19.192  13.264  14.054 -0.1889  0.0421 -0.1351
10373W        W30653  13.475  12.248   2.999  0.2694 -0.3452 -0.0526
10374W        W30654   1.479   1.899  11.360  0.0182 -0.0429 -0.3248
10375W        W30655   3.090   4.518   3.439  0.1086 -0.3835  0.0298
10376W        W30656   5.522  18.730   1.310  0.1013  0.0029 -0.0228
10377W        W30657   2.364   9.050  11.614  0.0436 -0.0489 -0.1719
10378W        W30658   7.836  12.686  11.858  0.0470 -0.1470  0.3048
10379W        W30659   4.952  18.438  11.078  0.1274  0.1519 -0.0047
10380W        W30660   4.421   3.281  13.462  0.2616  0.1240 -0.3909
10381W        W30661   0.075   8.805   3.918  0.3337  0.1681 -0.0206
10382W        W30662   1.499   7.694   3.853 -0.2567 -0.2999 -0.2340
10383W        W30663  19.380   4.902   3.585 -0.0226  0.2697 -0.0384
10384W        W30664   9.963  10.982   0.478 -0.2350 -0.1098 -0.3071
10385W        W30665   1.918  19.148   2.927 -0.1051  0.2964 -0.0399
10386W        W30666   7.876  12.398  10.405 -0.0711  0.0071 -0.0971
10387W        W30667   3.603   7.531  11.936  0.0155  0.1294  0.0861
10388W        W30668  12.862   6.801  12.207  0.0374 -0.0512  0.0141
10389W        W30669  16.659   8.081  12.138 -0.2834  0.5783  0.1506
10390W        W30670   6.895   4.182  13.262 -0.1693 -0.2049  0.1578
10391W        W30671   1.467   2.408   1.039  0.1687 -0.1462  0.0352
10392W        W30672   6.153   1.210   2.559 -0.2732  0.0171  0.0465
10393W        W30673  10.468  10.705  11.855 -0.1839  0.1723 -0.3879
10394W        W30674   8.665   2.097   1.005  0.1147 -0.0478 -0.2153
10395W        W30675  11.614  14.168  13.845  0.1298 -0.2783 -0.2111
10396W        W30676  17.511  17.919  11.718 -0.0091  0.2667  0.0388
10397W        W30677  19.599  13.920   1.909  0.0821  0.1881 -0.2436
10398W        W30678  11.470   4.024   1.390  0.0909  0.0395  0.2309
10399W        W30679   4.321  15.394  10.654 -0.2516 -0.0223  0.2195
10400W        W30680   6.979   8.820  13.548 -0.1371 -0.3101 -0.0888
10401W        W30681   0.142   3.477   0.370 -0.1450  0.2979 -0.3755
10402W        W30682  18.717   9.422   2.214  0.1706 -0.0080 -0.0557
10403W        W30683   4.375   4.316   9.205  0.0746 -0.1955  0.1063
10404W        W30684   0.766  10.564  12.713 -0.1662  0.2319  0.0511
10405W        W30685  12.699  10.146  11.741  0.0501 -0.1702 -0.1486
10406W        W30686  13.668   7.089   0.314  0.1223 -0.3104 -0.0685
10407W        W30687   3.697   3.339   2.269 -0.0735  0.1820  0.0847
10408W        W30688  18.918   6.222  12.516  0.2200 -0.2237 -0.1456
10409W        W30689  12.557   3.149   1.357  0.0399  0.1376 -0.0687
10410W        W30690   9.312   8.408  13.319  0.1772  0.0953 -0.1000
10411W        W30691  11.698  14.883  10.860  0.3146 -0.0328  0.0303
10412W        W30692   1.701  18.474   3.284  0.0845  0.1478 -0.1337
10413W        W30693   3.631   1.245  10.238 -0.1508 -0.0609  0.5038
10414W        W30694   4.650  19.255   3.544  0.2561 -0.0918 -0.5178
10415W        W30695   3.295  14.994  13.831 -0.1709  0.1308  0.0442
10416W        W30696   6.393   2.589  10.148 -0.3741 -0.0903  0.0052
10417W        W30697  16.311  11.282   1.942  0.0432 -0.1844  0.1727
10418W        W30698   9.902   2.744   8.794 -0.3446 -0.0722  0.1576
10419W        W30699  10.187   6.371  10.494 -0.4983 -0.2001  0.0526
10420W        W30700  18.974   7.175   4.182  0.0881 -0.2840 -0.1836
10421W        W30701  10.805  14.861  14.093  0.1175  0.2451  0.1481
10422W        W30702   1.070   1.492   1.177 -0.1976  0.3479  0.0033
10423W        W30703   6.029   4.928  10.713  0.1851 -0.2049  0.1345
10424W        W30704  18.950  16.614   1.878 -0.4047  0.1926  0.2897
10425W        W30705   6.919  10.230  11.573  0.1225  0.2254 -0.0719
10426W        W30706  16.227   3.814   2.175  0.2268 -0.0179 -0.3154
10427W        W30707  18.216   3.884  13.189 -0.1828 -0.3371  0.2566
10428W        W30708   1.038  12.376  11.547 -0.1598 -0.1155 -0.1610
10429W        W30709   2.890   5.871   2.836  0.2278 -0.1782 -0.1090
10430W        W30710   1.380   1.632   2.175 -0.0088  0.0624  0.1164
10431W        W30711   3.197  10.058   1.805 -0.0846  0.2047  0.1718
10432W        W30712   4.188   7.297   3.868  0.4340 -0.0067  0.1682
10433W        W30713  16.588  14.915   1.199 -0.2418 -0.0665  0.0371
10434W        W30714  12.090   9.082  11.686  0.0264  0.0277  0.0090
10435W        W30715  14.577   5.954   1.742 -0.5381  0.1886  0.1941
10436W        W30716  19.576   2.881  10.957  0.1014 -0.0333  0.0152
10437W        W30717   3.861   5.516   1.645 -0.2941 -0.1504 -0.1581
10438W        W30718   5.273   6.500  12.798  0.1623 -0.0745  0.1989
10439W        W30719   8.798   5.840  10.840 -0.0260 -0.1969 -0.0884
10440W        W30720   4.145   2.249  12.051 -0.2464  0.3717  0.2074
10441W        W30721  14.726   3.069   2.578 -0.1281  0.1390  0.1502
10442W        W30722  11.861  18.548   1.707  0.1436 -0.3123 -0.0446
10443W        W30723  15.224  16.922   0.417 -0.0209  0.1967  0.1070
10444W        W30724   9.654  12.949   1.646 -0.0112  0.2371 -0.0894
10445W        W30725  14.204  10.160  10.406  0.0339 -0.1894 -0.2533
10446W        W30726   8.476  18.455  12.823  0.2411  0.1893 -0.2955
10447W        W30727  16.015  16.412   1.483 -0.2776  0.0108  0.0730
10448W        W30728  15.756   9.542  13.796  0.3742 -0.0450 -0.0664
10449W        W30729   3.126  16.585  12.537 -0.1166  0.0038 -0.0323
10450W        W30730   8.887  16.882   1.496  0.1673  0.1266 -0.0809
10451W        W30731  12.773   7.072   4.925  0.2332  0.5068 -0.0617
10452W        W30732   4.037   1.685  14.036  0.1548 -0.0394  0.1362
10453W        W30733  10.100   4.822  11.591  0.2054 -0.1492  0.1800
10454W        W30734   9.057   5.142   1.476 -0.3414 -0.1593  0.0027
10455W        W30735  10.834   1.300   3.100  0.3914 -0.2176  0.0133
10456W        W30736   3.885  16.784  11.873 -0.2083 -0.0034 -0.0725
10457W        W30737  14.272  14.959   0.243 -0.1349 -0.2390 -0.3678
10458W        W30738  18.404   3.169   3.392 -0.0349 -0.2406 -0.1131
10459W        W30739   4.032   7.032   0.566 -0.5731 -0.1350 -0.0745
10460W        W30740   1.940   9.353   2.376  0.0158  0.2879  0.0820
10461W        W30741  19.513   2.675  13.055  0.1800 -0.2175 -0.0677
10462W        W30742  16.075  13.592  11.365 -0.1852 -0.2836  0.3081
10463W        W30743   8.330   2.551   1.013  0.0622  0.0989  0.0690
10464W        W30744  18.211  12.448   0.035  0.3460 -0.2355 -0.4302
10465W        W30745   3.138  11.125   0.479  0.0216  0.0409  0.2510
10466W        W30746   3.571  15.658  10.953 -0.2231  0.1341 -0.1311
10467W        W30747   3.865  11.721   0.713 -0.2189 -0.0815  0.0113
10468W        W30748  11.889  13.270  11.601  0.0917  0.1446 -0.3092
10469W        W30749  16.113   6.652   1.962  0.0972 -0.2305  0.1589
10470W        W30750   8.216   2.637  10.193  0.0644  0.2740 -0.0412
10471W        W30751   2.616  10.483   0.182 -0.0928 -0.1529 -0.1727
10472W        W30752  12.760  19.662   0.686  0.1040 -0.0943  0.2273
10473W        W30753   7.682   7.126  13.325  0.2443  0.2367 -0.0887
10474W        W30754  11.252   7.868   2.485  0.1555 -0.2388 -0.1936
10475W        W30755   3.720  15.356  12.310  0.0647  0.1212 -0.1285
10476W        W30756   9.015  11.401   3.143  0.0253  0.1071  0.1899
10477W        W30757   5.100  17.370   9.969  0.0458  0.0444 -0.3488
10478W        W30758  15.241  16.723   1.900 -0.0005  0.3437 -0.1100
10479W        W30759   8.570   5.443   2.517 -0.0092 -0.0024 -0.1377
10480W        W30760   7.056  15.927   2.542  0.1120  0.1863 -0.3094
10481W        W30761  19.083  17.744   2.044 -0.3338 -0.0651 -0.2940
10482W        W30762   9.322  14.052  10.294  0.3090  0.1504 -0.2210
10483W        W30763   1.733  15.522  13.705  0.4734 -0.0761 -0.0787
10484W        W30764  17.959   7.251  12.458 -0.0989 -0.0145  0.0929
10485W        W30765  12.155  11.194   3.016 -0.0013 -0.0914  0.3647
10486W        W30766  10.824   6.905  13.428  0.1284  0.0218  0.0718
10487W        W30767  11.950  10.564  12.338 -0.2944 -0.3283 -0.2328
10488W        W30768   8.135   7.570  13.633  0.0363 -0.0454 -0.0646
10489W        W30769  15.463  13.400  13.973  0.0352  0.2852 -0.1371
10490W        W30770   1.221   1.952   0.915 -0.0030 -0.0029  0.0537
10491W        W30771   3.712   9.498   2.814  0.0093 -0.2316 -0.1702
10492W        W30772   8.396  19.410  13.169  0.0588  0.1340 -0.5021
10493W        W30773   1.679  14.594   2.907 -0.0742 -0.0510  0.0798
10494W        W30774   0.394   1.754   4.208  0.1282  0.1186  0.1418
10495W        W30775  16.427   9.778  12.227  0.2261 -0.1447 -0.5429
10496W        W30776  19.126   1.112   2.973 -0.0866  0.0254  0.3641
10497W        W30777  19.146   5.653  13.114  0.1764  0.0068 -0.0373
10498W        W30778  16.465   0.803  12.861  0.2835 -0.1323  0.4348
10499W        W30779   4.702  18.176   1.551 -0.1251 -0.0967  0.1971
10500W        W30780   6.964   9.380  11.918 -0.1097  0.0243  0.1707
10501W        W30781  12.731   2.180   4.423  0.0673 -0.0450  0.0007
10502W        W30782   0.968   5.054  12.458 -0.1922  0.1226 -0.1061
10503W        W30783  10.842  11.656   3.126  0.0786 -0.2876 -0.2680
10504W        W30784  11.773  16.126   2.082 -0.0684 -0.3954 -0.2121
10505W        W30785   8.171  13.736   2.181 -0.1808 -0.1248 -0.2361
10506W        W30786  15.015   2.508   2.631 -0.1742 -0.0740 -0.0767
10507W        W30787  17.514   6.840   0.864  0.0150  0.3309  0.1362
10508W        W30788   0.959   7.054  13.665  0.0151 -0.0365 -0.1278
10509W        W30789  17.625   5.922   2.637  0.2520 -0.1067  0.1171
10510W        W30790   3.967   6.459  10.324 -0.0151 -0.1674 -0.1654
10511W        W30791   9.741   9.620   4.418 -0.3379  0.0329  0.1133
10512W        W30792  13.479  15.008   4.188  0.1478  0.3352  0.0858
10513W        W30793   2.214   7.592   2.928  0.3312  0.2173 -0.1924
10514W        W30794  14.414   5.868  10.198 -0.4175  0.2889 -0.0868
10515W        W30795  15.781   9.333  10.741 -0.0629  0.2232  0.0466
10516W        W30796  12.320  18.109  10.779 -0.0538 -0.1376 -0.0489
10517W        W30797   0.516   3.646  13.672  0.0434  0.2197  0.4453
10518W        W30798  10.746   5.829   2.118 -0.1542  0.0827  0.0350
10519W        W30799   6.739   5.112   3.037  0.1432  0.1390  0.1515
10520W        W30800   2.274   1.638   3.790 -0.1453 -0.0593  0.1201
10521W        W30801   9.262   1.394  10.526  0.0136  0.0479 -0.1979
10522W        W30802  11.393   7.119  10.434 -0.0241  0.0783  0.2780
10523W        W30803  15.536   4.621  11.394 -0.0778  0.1219 -0.0112
10524W        W30804   7.186  16.798   0.977 -0.0510 -0.1426 -0.0098
10525W        W30805   2.959   5.155   3.537 -0.3291  0.0214  0.0079
10526W        W30806   3.710   8.384  11.699 -0.0845  0.4216  0.0416
10527W        W30807  17.782   3.963  11.250  0.0248  0.0815 -0.1998
10528W        W30808   2.804   5.552   2.173 -0.1141  0.0553 -0.0591
10529W        W30809  11.064  12.896  11.700 -0.0048  0.0982  0.0755
10530W        W30810   9.786   1.880   0.566 -0.5099 -0.1287  0.0140
10531W        W30811  14.435  18.938   0.223 -0.0193  0.0273 -0.1140
10532W        W30812   8.190  13.774  12.561 -0.0803 -0.0454  0.2156
10533W        W30813   0.993  18.189  10.734  0.0613 -0.2336 -0.0884
10534W        W30814  12.749   3.985   1.992  0.3796 -0.0253  0.6295
10535W        W30815  13.810   9.165   3.629  0.0979 -0.1863 -0.1401
10536W        W30816   1.387  11.462  11.066  0.0148  0.0034 -0.0860
10537W        W30817  14.437  18.163  11.806 -0.2182  0.1358 -0.3354
10538W        W30818   7.274  11.352  11.244  0.3316 -0.4363  0.0986
10539W        W30819  19.462  17.741   1.731  0.0065 -0.0570 -0.0174
10540W        W30820   0.555   0.308  10.582  0.1153 -0.0341  0.0322
10541W        W30821   2.948  10.148   0.362 -0.1759 -0.2616  0.0095
10542W        W30822  10.018   3.555  12.016  0.0019  0.0119  0.0502
10543W        W30823   3.089   2.091  11.784  0.4610  0.3890  0.1967
10544W        W30824  16.922  14.485   2.463  0.1987  0.0453  0.2798
10545W        W30825  16.723  12.435   0.690  0.0420 -0.0925  0.0480
10546W        W30826  13.033   6.120  12.028 -0.0915 -0.1748  0.2291
10547W        W30827   9.662   7.090   1.920 -0.1299  0.1293  0.0683
10548W        W30828   9.451  15.290  11.742 -0.2282 -0.1064 -0.0735
10549W        W30829  16.473   2.107  10.251 -0.0019 -0.0784 -0.0864
10550W        W30830   2.630   6.160   3.181  0.2862 -0.0012 -0.1453
10551W        W30831   8.585  17.479  13.278 -0.0543 -0.2136  0.0449
10552W        W30832  16.741  15.690   2.199  0.1044  0.2212 -0.1921
10553W        W30833  18.598  11.065   2.520  0.3019 -0.0565 -0.0209
10554W        W30834   6.876   3.681  13.974  0.1925 -0.0311  0.0446
10555W        W30835  11.386  18.228   3.164  0.3211  0.0365  0.1305
10556W        W30836   3.810   9.401  13.591 -0.2109 -0.0965  0.1388
10557W        W30837   8.613  12.584   2.413 -0.0662 -0.1252 -0.1391
10558W        W30838  17.628   5.194  13.692 -0.1504  0.2719 -0.1085
10559W        W30839   1.783   2.585  12.934  0.0228 -0.0059  0.1662
10560W        W30840   2.357  12.439  11.058 -0.1143 -0.3165 -0.0072
10561W        W30841  15.245   5.565   0.697  0.1697 -0.1912 -0.3789
10562W        W30842   1.257  12.274  10.300 -0.0720  0.2485 -0.2282
10563W        W30843  19.236   3.997  13.374 -0.0063 -0.2770 -0.2036
10564W        W30844   6.191   3.979  11.459 -0.0444  0.1000  0.2815
10565W        W30845  12.150   7.280  13.481  0.0564  0.2816  0.2517
10566W        W30846  12.206  17.847   0.480 -0.2650 -0.3611  0.0203
10567W        W30847   4.305  13.607   3.973  0.0117 -0.0853 -0.0602
10568W        W30848  15.014   2.192   2.962  0.1875  0.1815 -0.3143
10569W        W30849  17.798  18.267  11.550 -0.2161  0.1035 -0.0079
10570W        W30850   7.307   7.045  13.640  0.0581 -0.0115  0.1117
10571W        W30851  10.328   9.645  11.080 -0.1510  0.3053  0.0421
10572W        W30852  16.052   3.227   2.640  0.3966  0.3853  0.1076
10573W        W30853   2.636  16.730   4.001 -0.1326  0.1301 -0.0908
10574W        W30854   7.559   4.662   1.067  0.0580 -0.1610  0.0109
10575W        W30855   7.560  10.663   2.272 -0.0326  0.0271  0.3253
10576W        W30856  14.021   4.517   0.953  0.0900 -0.3386  0.1320
10577W        W30857   8.148   2.181   2.351 -0.0957 -0.0608 -0.3534
10578W        W30858   2.473  12.858   0.123  0.1092 -0.0152  0.2338
10579W        W30859   0.042   6.495   1.259  0.1612 -0.0679 -0.2169
10580W        W30860   7.750   8.780   0.523  0.0492  0.1192  0.0039
10581W        W30861  18.396   1.289  10.397  0.0431 -0.0534  0.3895
10582W        W30862  11.001  11.714  11.068 -0.1529  0.2830  0.0806
10583W        W30863   0.810  12.762   1.848 -0.0521  0.0214 -0.2408
10584W        W30864   3.809  13.616   1.756  0.0459 -0.0743 -0.0427
10585W        W30865  11.872   7.667   4.208  0.3428 -0.3942  0.1939
10586W        W30866   4.580   4.166  11.250  0.2748  0.0357 -0.1875
10587W        W30867  17.646   7.217   0.169  0.1657  0.1514 -0.1187
10588W        W30868   9.075  13.505  12.320  0.3029  0.2201 -0.2641
10589W        W30869  14.555  13.210  12.846 -0.1682 -0.0091  0.0701
10590W        W30870  19.747  18.769  12.580 -0.0106  0.0575  0.0428
10591W        W30871  15.220  17.623   2.633  0.1089 -0.2498  0.0079
10592W        W30872   8.761   6.563   4.003  0.1750  0.1845  0.2627
10593W        W30873  16.434   5.767  13.247 -0.1185 -0.1170  0.1787
10594W        W30874   9.957   6.293   1.926 -0.4700  0.0387 -0.0624
10595W        W30875  15.052   7.177   1.835 -0.1261  0.2100  0.3341
10596W        W30876  11.128   3.126   3.380  0.0549 -0.0451 -0.0966
10597W        W30877  13.719   2.349   3.887  0.1051 -0.0474  0.0905
10598W        W30878  18.721   8.369   2.354 -0.2325 -0.1054 -0.0030
10599W        W30879   7.789  17.282  10.613 -0.0070  0.3243  0.3130
10600W        W30880   6.044  18.395   2.473 -0.2774 -0.1044  0.2696
10601W        W30881   2.800  14.328   3.813 -0.0677 -0.1367  0.0081
10602W        W30882   6.316   2.105   0.172 -0.0534 -0.6711  0.0177
10603W        W30883  12.270   4.967  13.808  0.0771 -0.1775 -0.0103
10604W        W30884   4.895   5.986   0.561 -0.0533  0.1706  0.3076
10605W        W30885  15.301   6.036  13.689 -0.1491  0.5199 -0.1796
10606W        W30886  17.329  12.530   1.050  0.0979  0.0280  0.1338
10607W        W30887   7.071   2.339   4.173 -0.0503 -0.2962 -0.0285
10608W        W30888   8.535  13.281   0.246 -0.3279  0.2010 -0.0647
10609W        W30889  11.661   2.515   1.690 -0.1813  0.0670  0.1550
10610W        W30890  17.826  19.346  12.916  0.3312  0.1927  0.0345
10611W        W30891   5.930   8.340  12.267  0.2019  0.2433 -0.0525
10612W        W30892   2.369  13.148  11.586 -0.0473 -0.1345  0.1945
10613W        W30893  13.991   4.798  10.960  0.0461  0.1999 -0.1344
10614W        W30894  18.677  10.858  12.444  0.2862 -0.2138 -0.2723
10615W        W30895  13.748   7.540   2.030 -0.1637  0.4357 -0.1685
10616W        W30896  18.545   8.904   0.131  0.0611 -0.1417 -0.1810
10617W        W30897  11.584   3.725   0.809 -0.0709 -0.1067  0.0820
10618W        W30898   6.448   3.640   2.440 -0.0118 -0.1883  0.0017
10619W        W30899   1.979  13.534   5.233 -0.3512 -0.1394 -0.1096
10620W        W30900  14.901   3.156   0.883  0.0194 -0.1796  0.2191
10621W        W30901   3.604  11.630   1.927 -0.0176  0.0624  0.3421
10622W        W30902  15.504   2.562  13.964 -0.0906 -0.0696  0.0997
10623W        W30903   0.637  13.769   3.957  0.2326  0.2446  0.2814
10624W        W30904   1.563  18.292  12.701 -0.2544  0.3260 -0.0677
10625W        W30905   6.730  12.158  13.255 -0.0798  0.0369 -0.0893
10626W        W30906  10.650  13.155  11.848  0.0772 -0.0017  0.1305
10627W        W30907  13.201  14.654   3.131 -0.2139  0.2274  0.3556
10628W        W30908  14.488  17.158   3.025  0.0220  0.1520 -0.2718
10629W        W30909   0.643   8.838   1.936 -0.5542 -0.2529 -0.0568
10630W        W30910   7.621   7.833  11.901  0.4536  0.2097 -0.1227
10631W        W30911   0.534   7.570   3.549 -0.0251  0.1078 -0.5007
10632W        W30912  14.785  10.250   3.194 -0.1288  0.1814 -0.0768
10633W        W30913  12.354   0.543  12.040 -0.3737 -0.2384 -0.1289
10634W        W30914   2.405   8.944   2.867 -0.0574  0.1887 -0.1495
10635W        W30915   8.709  16.216   1.356  0.2345  0.0111  0.0079
10636W        W30916  18.424   8.877  11.720  0.1308  0.0087  0.2080
10637W        W30917   6.395  15.848   1.918  0.2154  0.0390 -0.4493
10638W        W30918   7.694   3.965   1.740  0.1218  0.2281 -0.2017
10639W        W30919  19.650   9.909   1.011 -0.3146 -0.1215 -0.0336
10640W        W30920  11.945  15.771   0.623  0.2752 -0.0342  0.0055
10641W        W30921   3.157   8.943   0.640  0.0003  0.3269 -0.0890
10642W        W30922  15.322   0.763  13.373  0.1169 -0.3557 -0.0047
10643W        W30923  13.575   5.504   1.732  0.1501 -0.0932  0.2268
10644W        W30924  14.952   4.518   2.448  0.2159  0.1267 -0.1758
10645W        W30925   4.235   4.964  12.405 -0.1582 -0.0158  0.1423
10646W        W30926   3.002  11.107   2.711 -0.1280 -0.1500  0.1463
10647W        W30927   8.881   6.127  11.701  0.0450 -0.2552  0.1449
10648W        W30928   2.330  10.379   4.416  0.0970 -0.0249 -0.0551
10649W        W30929  16.492   3.925   1.640  0.3277  0.1899  0.0581
10650W        W30930   8.625  12.359  11.067  0.2149 -0.3112 -0.1330
10651W        W30931   2.645   9.327   0.897  0.0766 -0.0546 -0.1451
10652W        W30932   9.520  18.797   1.834 -0.0929 -0.1028 -0.2420
10653W        W30933   4.314   0.573   1.172 -0.0837 -0.1932 -0.1182
10654W        W30934   5.883  14.084   3.171  0.2292 -0.0075 -0.0854
10655W        W30935  15.466   2.235  10.856 -0.2928 -0.0472 -0.1039
10656W        W30936   9.523   4.546   0.385  0.2230  0.0031  0.1225
10657W        W30937  13.679  10.799  12.274 -0.1215  0.0543 -0.0961
10658W        W30938   3.089   2.537   0.224  0.4164  0.0807  0.1205
10659W        W30939   9.795  11.605   0.799 -0.1930 -0.0631  0.1025
10660W        W30940  10.874   3.434   2.517 -0.0082  0.0499  0.0734
10661W        W30941  18.285  17.009   3.889  0.1594  0.0757  0.1847
10662W        W30942  15.058  11.120   2.316 -0.0132 -0.0248 -0.0418
10663W        W30943  14.378   3.425   9.304 -0.3125  0.2546  0.2434
10664W        W30944   1.868  13.831  11.910  0.0345 -0.0208  0.1645
10665W        W30945   6.783  16.281   2.762  0.1534 -0.2394 -0.3364
10666W        W30946   2.950   1.853   3.165 -0.0337 -0.1744  0.2083
10667W        W30947  17.739  16.690  11.091  0.0183  0.3567 -0.1240
10668W        W30948  17.926  12.263  11.019  0.0364 -0.0314  0.2255
10669W        W30949   8.041   4.626  10.842 -0.0777  0.1077 -0.1062
10670W        W30950  14.690   3.625  12.010 -0.1185  0.2410  0.1517
10671W        W30951   0.207   3.045   0.960  0.0308  0.1078 -0.0827
10672W        W30952   6.072  10.629  10.574 -0.0927  0.1299  0.1773
10673W        W30953  11.320  11.087  12.023  0.1860  0.1199  0.3684
10674W        W30954   0.084  11.162  11.781 -0.1347 -0.0325 -0.1722
10675W        W30955   4.300  18.253   2.755 -0.0358  0.2258 -0.1079
10676W        W30956  10.002   6.877  13.972  0.1190 -0.1869  0.0853
10677W        W30957  14.274   1.379  12.613 -0.1669  0.1064  0.0737
10678W        W30958   9.825  19.489   3.442 -0.3836  0.1613  0.1763
10679W        W30959  17.635  15.923   1.362 -0.2146  0.0590 -0.0880
10680W        W30960   1.182   5.864   1.035 -0.0511 -0.1431  0.0943
10681W        W30961  17.292  16.039   0.005  0.0691 -0.0525 -0.1442
10682W        W30962  10.861  11.286  12.223  0.1467 -0.2007 -0.0046
10683W        W30963   6.748   3.225  11.618 -0.0593 -0.1685 -0.0525
10684W        W30964   4.052   2.607  12.652 -0.1967 -0.1214 -0.1419
10685W        W30965  16.611   4.009   3.574  0.1054 -0.4571  0.2452
10686W        W30966   6.758   8.493  11.642  0.3275 -0.0790 -0.0050
10687W        W30967  15.532  17.345   0.490  0.0412 -0.0633 -0.0004
10688W        W30968   6.103   7.681   3.704 -0.1881  0.0881 -0.0555
10689W        W30969  17.015  15.762   2.735  0.0884 -0.0426 -0.1920
10690W        W30970   0.421  18.655   3.649  0.0363 -0.3699 -0.3820
10691W        W30971  19.283   3.575  11.148 -0.4758 -0.1132 -0.2747
10692W        W30972  18.037  17.964   2.461  0.0478 -0.1480 -0.1623
10693W        W30973  11.760  14.357   0.551 -0.3051  0.0292  0.0055
10694W        W30974  12.474   2.819  10.367 -0.2167 -0.1690  0.2910
10695W        W30975  17.476   2.846  11.957 -0.2599 -0.1945  0.1505
10696W        W30976  13.645   4.236  10.430 -0.0379  0.0824  0.0124
10697W        W30977  17.267  18.926   9.047  0.1916 -0.1099 -0.0439
10698W        W30978   0.574  10.238   3.368  0.3183  0.3148  0.0817
10699W        W30979  10.340  14.579   4.244 -0.0307  0.1919  0.0244
10700W        W30980  15.545   7.987  13.307  0.3094  0.1665 -0.1516
10701W        W30981  18.740   4.775   9.480 -0.1595 -0.2319  0.1405
10702W        W30982  16.440  12.976  11.917  0.1984 -0.1835 -0.0952
10703W        W30983  10.635  10.616  14.076 -0.0567  0.0773  0.3181
10704W        W30984   8.859   7.022   4.139 -0.3280 -0.2730 -0.1731
10705W        W30985  13.550  18.245  14.095  0.1335 -0.0567 -0.1156
10706W        W30986   7.652   9.581   0.264  0.1187 -0.1429  0.3913
10707W        W30987  13.115  12.520   2.132  0.2551 -0.2817  0.2361
10708W        W30988   0.875   3.718   0.750 -0.1072 -0.1276  0.0921
10709W        W30989  12.107   0.526   0.755  0.2733  0.1392  0.2881
10710W        W30990  13.429   1.508  13.144 -0.1774  0.1511 -0.0084
10711W        W30991  11.991  12.759  11.874  0.0199 -0.1266 -0.0576
10712W        W30992  14.292   5.696   2.526 -0.2112  0.0805  0.0640
10713W        W30993  14.560   7.270   9.962  0.4143  0.1669  0.1192
10714W        W30994  13.572   7.881   0.581  0.2102 -0.0251 -0.0962
10715W        W30995   3.418   8.739   4.053 -0.1051  0.1477  0.0286
10716W        W30996   5.259  13.341  10.488 -0.1126  0.3302 -0.2268
10717W        W30997   3.418  10.743  13.581 -0.4419 -0.3198 -0.1707
10718W        W30998  14.039  13.646  13.582  0.2097  0.0569 -0.2315
10719W        W30999  12.863   3.200  11.491  0.0746 -0.4437 -0.2672
10720W        W31000   8.060   5.200   1.192 -0.2746  0.2700 -0.0970
10721W        W31001   5.852   6.726  12.595  0.0489 -0.3290  0.3043
10722W        W31002  15.542   2.619  12.999  0.0054 -0.4183  0.1077
10723W        W31003  18.399   4.868   2.144 -0.1520 -0.2045  0.2694
10724W        W31004  12.675   7.020   2.514  0.0668 -0.1075  0.0833
10725W        W31005   0.387  12.168  11.538  0.0411 -0.0679  0.1856
10726W        W31006  10.740   9.542   3.235 -0.3064 -0.2164  0.1306
10727W        W31007  11.962  19.457   4.110  0.0705 -0.0011 -0.0117
10728W        W31008  16.523   5.167   1.571 -0.1536 -0.0266  0.0073
10729W        W31009  10.481  17.730  10.565 -0.1160 -0.2352  0.1167
10730W        W31010   5.384  12.785  13.031 -0.1708 -0.0089 -0.1052
10731W        W31011  13.100  10.948   2.365 -0.1209 -0.4139  0.0954
10732W        W31012  14.006   8.919  13.681 -0.0447 -0.0245  0.2858
10733W        W31013  16.585   8.071   0.718  0.0781  0.3527 -0.0452
10734W        W31014  18.442  18.634   0.902 -0.0355  0.0047 -0.3746
10735W        W31015   2.130   9.407  13.246 -0.4324  0.1300  0.0208
10736W        W31016  10.702   8.124   1.721  0.1929  0.4762  0.0400
10737W        W31017   0.551  10.733  10.842  0.1874 -0.1294 -0.3585
10738W        W31018  19.688  14.408   2.090 -0.2656  0.0907  0.2951
10739W        W31019  11.007  14.082  12.631 -0.2165  0.0465  0.1516
10740W        W31020   8.205   4.903  13.985 -0.2019 -0.0765 -0.1432
10741W        W31021   6.504   2.241   3.315 -0.1145  0.1931 -0.0841
10742W        W31022   5.868  17.684  13.333 -0.1386  0.0491 -0.0216
10743W        W31023  14.663   4.587  11.493 -0.0540  0.2750 -0.2442
10744W        W31024   7.820   3.901   4.345  0.2803 -0.1880  0.1349
10745W        W31025   5.662  10.345  10.689  0.0441  0.0991  0.1036
10746W        W31026   6.486   8.820  11.347  0.3125 -0.1005  0.0181
10747W        W31027   5.349   9.889   1.742 -0.1262  0.0885  0.0673
10748W        W31028  18.514   9.420   1.223 -0.1875  0.1057  0.2505
10749W        W31029  11.891   4.610   2.739  0.0707 -0.2310 -0.0024
10750W        W31030   8.838   4.898  11.403  0.2802 -0.1413 -0.2939
10751W        W31031  16.621   1.688  12.312  0.0683  0.3735  0.0426
10752W        W31032  16.370  12.897  10.661  0.0038  0.2406 -0.2120
10753W        W31033   9.519  11.639  11.285 -0.1161 -0.3467 -0.0335
10754W        W31034   9.799   4.916   3.437 -0.4136  0.0960  0.1280
10755W        W31035   8.582  16.559   4.234  0.0977 -0.0193 -0.0122
10756W        W31036   1.159   0.029   0.926 -0.3778  0.0698  0.0675
10757W        W31037   8.432  11.405  12.202 -0.2813  0.1560 -0.0799
10758W        W31038   9.864   5.502   0.527 -0.1447 -0.1193  0.0228
10759W        W31039   8.456   9.357   1.615 -0.2917 -0.2275 -0.2054
10760W        W31040   9.127  14.878   3.636 -0.1533  0.0689  0.2081
10761W        W31041   0.379  10.304  10.555 -0.1667 -0.2601  0.0414
10762W        W31042   1.535  16.454   1.940 -0.2199  0.0015  0.0286
10763W        W31043  18.977   5.860  13.549 -0.3256 -0.0431 -0.1411
10764W        W31044   9.868   8.434  13.444  0.0628  0.1772  0.2151
10765W        W31045  18.941  16.553   1.292 -0.1414 -0.1346 -0.0337
10766W        W31046  13.179   3.573   0.540  0.1121 -0.1346 -0.4708
10767W        W31047  17.243  17.718  12.144  0.4475 -0.0814  0.4004
10768W        W31048   4.359   7.737  13.782 -0.0031 -0.2052 -0.0447
10769W        W31049  13.684  15.024  11.715 -0.0653 -0.0070  0.0140
10770W        W31050  15.102  10.326   0.207  0.1456  0.0680  0.0772
10771W        W31051  18.630   7.812   1.660 -0.1927  0.0261  0.0227
10772W        W31052   6.397   5.661   2.354 -0.2112 -0.0317 -0.3470
10773W        W31053  11.451  13.887  12.358 -0.0418  0.1360 -0.0028
10774W        W31054  13.133  11.399   3.291  0.0340 -0.1445  0.0394
10775W        W31055  18.982   0.696  12.109 -0.1872 -0.2424  0.0484
10776W        W31056   7.187   5.074   2.640 -0.0387 -0.1515 -0.1334
10777W        W31057   6.243   8.363  11.052  0.1547 -0.0030 -0.0232
10778W        W31058  12.235   4.376  11.857 -0.1234  0.0395  0.1106
10779W        W31059  12.827  15.356   0.856  0.3431  0.1732 -0.4853
10780W        W31060  13.340  10.813  11.885  0.0141  0.1046 -0.1242
10781W        W31061  18.182  10.901  13.664 -0.0553 -0.2594  0.0375
10782W        W31062  19.755   4.675   3.290 -0.1716 -0.1098  0.3186
10783W        W31063   7.239   0.705   1.908  0.1707  0.0812  0.0149
10784W        W31064  17.275  11.089   2.760 -0.0633 -0.0822 -0.0043
10785W        W31065   8.359  17.021  11.412  0.0923  0.2521  0.0512
10786W        W31066   0.518   6.468   2.830  0.1463  0.0030  0.0223
10787W        W31067  13.174   0.715   0.708  0.0366 -0.0692 -0.0151
10788W        W31068   8.992   5.137   2.298  0.0877 -0.1493  0.1823
10789W        W31069   3.500  16.200  10.885  0.0213  0.0075 -0.1118
10790W        W31070   3.757  16.626   3.624 -0.0521 -0.1207  0.0156
10791W        W31071   4.285   4.593   0.047 -0.3086 -0.1186 -0.0441
10792W        W31072  17.290  15.329   2.591 -0.0540 -0.1343 -0.2822
10793W        W31073   8.521   5.601   2.020  0.0030 -0.1343 -0.1442
10794W        W31074  16.487   2.832  12.761  0.0200  0.0297  0.1254
10795W        W31075   5.237   7.200   3.389 -0.0682 -0.0426  0.1087
10796W        W31076   2.012  18.704   0.012  0.3446  0.1282 -0.1845
10797W        W31077  14.206   8.401   9.577  0.0316 -0.1360  0.3035
10798W        W31078  15.472   5.526   1.631  0.0701  0.1301 -0.1338
10799W        W31079  11.610  15.539   3.335 -0.0004  0.2959 -0.0672
10800W        W31080  14.888   9.367  10.497 -0.4782 -0.2589 -0.0477
10801W        W31081  14.816   6.641  13.042  0.3628  0.2022 -0.0041
10802W        W31082  11.016  13.129  12.671 -0.2353 -0.0898 -0.1605
10803W        W31083  19.488   9.095  14.067  0.2412 -0.2026 -0.0690
10804W        W31084   3.655   7.927   1.190  0.1926  0.2152  0.4902
10805W        W31085  13.558   6.248  11.907  0.1346  0.1135  0.1982
10806W        W31086  10.943   8.456  13.462 -0.3109  0.0997  0.1688
10807W        W31087  17.665  11.045   1.629 -0.0797 -0.0076  0.0250
10808W        W31088   9.847   2.480  11.622  0.2621 -0.2075  0.2121
10809W        W31089   2.076   9.860  11.056 -0.0038  0.1090 -0.0647
10810W        W31090   0.669   3.633   1.709 -0.2906  0.2232  0.0145
10811W        W31091  18.047  19.410  11.086  0.1848 -0.2373  0.0992
10812W        W31092  17.533   9.403   2.843 -0.2036  0.1477  0.1965
10813W        W31093  10.504   8.385   2.504 -0.3816 -0.0340 -0.2921
10814W        W31094  18.350  13.505   1.579  0.0701 -0.2656 -0.3322
10815W        W31095   8.780   9.529   2.937  0.5212 -0.2260 -0.0454
10816W        W31096   6.815   7.826  12.544 -0.2137 -0.1461  0.1219
10817W        W31097   5.456  18.551  13.138 -0.0111 -0.0667  0.1688
10818W        W31098  19.120   5.555  12.155  0.4368 -0.1274 -0.0253
10819W        W31099  15.968   4.189   0.802  0.2649 -0.1488 -0.2068
10820W        W31100   5.831   9.460   1.329  0.0181  0.1939 -0.0685
10821W        W31101  12.015  15.492   9.917 -0.0590 -0.1784  0.0610
10822W        W31102  10.321  16.662  12.535 -0.0332 -0.1641 -0.0377
10823W        W31103   0.311  12.863   0.023 -0.0961 -0.2070 -0.1125
10824W        W31104   5.926  15.617  13.401 -0.1356 -0.0948 -0.0732
10825W        W31105  16.924   6.769   2.582 -0.0158 -0.3850  0.1016
10826W        W31106  17.040   1.410   3.003 -0.1016 -0.2484 -0.0029
10827W        W31107   4.280   7.510  11.780  0.0291  0.3082 -0.0245
10828W        W31108  18.079   6.493  12.573  0.1315  0.2055 -0.0503
10829W        W31109  11.654  18.811  13.726 -0.1576 -0.2886 -0.0100
10830W        W31110   6.050  14.392   1.907  0.0481  0.0094  0.2317
10831W        W31111  17.606   2.147   2.198  0.4876  0.0820  0.0802
10832W        W31112   8.108   8.495   1.904 -0.2301 -0.1964 -0.0622
10833W        W31113   3.324  18.921   3.720 -0.0336 -0.2191  0.0725
10834W        W31114   3.407  18.005   0.162  0.2317  0.1349  0.1708
10835W        W31115   6.998  14.636  12.851 -0.0191  0.1691 -0.2272
10836W        W31116   5.124   3.599  12.460 -0.1473  0.0463  0.1758
10837W        W31117   4.022   4.981   1.758  0.0529  0.2367 -0.2156
10838W        W31118   8.704   9.174  11.545  0.1365  0.3142  0.1279
10839W        W31119   2.039  16.668  13.705 -0.0195  0.0782 -0.0834
10840W        W31120   4.886  14.285   2.052 -0.2038 -0.1231 -0.1386
10841W        W31121   6.282  16.818  12.730 -0.0241 -0.0913 -0.0206
10842W        W31122   0.417  18.401  14.017  0.2536  0.0080  0.0675
10843W        W31123   3.265  12.173  13.548  0.2693 -0.0861  0.1918
10844W        W31124   8.448   4.080  12.768 -0.0655  0.1187 -0.0914
10845W        W31125  14.336   3.699   4.912 -0.0058  0.0578  0.0840
10846W        W31126  10.234  13.685  10.641 -0.0512 -0.0789  0.3908
10847W        W31127  11.702  18.369   2.778 -0.2895  0.1565  0.1707
10848W        W31128  13.542  10.666  10.218 -0.1027 -0.2466  0.1194
10849W        W31129  16.333  14.250  13.923  0.1147  0.3004  0.4436
10850W        W31130  19.625   7.865  13.302  0.0877  0.1394 -0.2050
10851W        W31131   5.592   9.777  10.708 -0.0166  0.1058  0.2140
10852W        W31132  16.596  18.717   1.414  0.1024  0.2125  0.0232
10853W        W31133   1.587   7.271   1.847 -0.3504 -0.0847 -0.1820
10854W        W31134  19.036   6.267  11.515  0.1219 -0.3880 -0.1387
10855W        W31135  14.748  11.360  10.731  0.1437 -0.1596  0.2352
10856W        W31136  13.056  11.320   2.695  0.0448 -0.0554 -0.1506
10857W        W31137   6.885   3.734   4.058  0.0480 -0.0817 -0.0622
10858W        W31138  12.011  10.685  12.779 -0.2269  0.0707 -0.2872
10859W        W31139  14.381   9.008   2.954  0.0846  0.1607  0.2143
10860W        W31140  19.007  16.159   1.801  0.0477 -0.0437  0.3963
10861W        W31141  10.077   1.773  12.124  0.2509 -0.0078 -0.0142
10862W        W31142   4.832   5.798  13.560 -0.1845 -0.0209  0.2853
10863W        W31143  17.033  19.495   1.486  0.1317 -0.1816  0.0562
10864W        W31144  14.595  11.040  12.459  0.0236  0.1703 -0.0311
10865W        W31145   7.164   9.125   9.545  0.0071 -0.0117 -0.1414
10866W        W31146  19.742   4.936  11.786 -0.2470  0.1571  0.1249
10867W        W31147   1.503  16.596   0.910  0.1986  0.2772 -0.4250
10868W        W31148   7.516  12.580  12.334 -0.3276  0.4723  0.4133
10869W        W31149  19.295  16.910  12.818  0.2339  0.0336 -0.2706
10870W        W31150   2.690  16.430  11.367  0.1775  0.1442 -0.0333
10871W        W31151   9.483  14.624   1.225  0.1042 -0.1707 -0.0698
10872W        W31152   1.863   9.160   3.567 -0.2119  0.1492  0.0919
10873W        W31153   2.698   4.135   1.132  0.1714  0.1496  0.0394
10874W        W31154   6.690  11.244   4.117  0.1983  0.0358  0.4822
10875W        W31155  14.610  17.336  12.214  0.3622  0.1914 -0.0236
10876W        W31156   9.337   5.393   2.052 -0.0336  0.0336 -0.3154
10877W        W31157  17.374   2.097   1.704  0.2343 -0.2544  0.0918
10878W        W31158  19.758   3.065   1.733  0.0645 -0.0753  0.2507
10879W        W31159  10.631  19.561  10.645 -0.0815 -0.1755 -0.0956
10880W        W31160   9.834   2.892   1.595  0.2687  0.3116  0.0652
10881W        W31161   6.103   2.646   0.638 -0.1425 -0.0109  0.0671
10882W        W31162   5.358   2.864  11.058  0.0874 -0.0720 -0.3623
10883W        W31163  11.198   0.120   1.210  0.1500 -0.2076 -0.0004
10884W        W31164  14.825   1.460   3.302  0.3574  0.2492  0.2599
10885W        W31165  18.957   5.350  11.305 -0.3243  0.2317  0.1228
10886W        W31166  13.094  12.214   1.688  0.2086  0.0566 -0.0249
10887W        W31167  19.716   3.196  11.378  0.0829 -0.1374  0.2005
10888W        W31168  16.192   8.871   3.534 -0.0067 -0.6835 -0.1283
10889W        W31169   2.466  14.363  10.633  0.1628 -0.1440 -0.0244
10890W        W31170  15.018   7.937   1.368  0.0602  0.2511 -0.2949
10891W        W31171  10.679  16.377  10.609  0.1638  0.1482 -0.0320
10892W        W31172   0.861   5.455  13.067 -0.0697 -0.0292 -0.1291
10893W        W31173   1.546  16.716   1.395  0.0824  0.0472  0.0348
10894W        W31174   4.946  16.508   0.307  0.3461 -0.1199 -0.0900
10895W        W31175   4.831  16.936  13.835 -0.0405 -0.3939 -0.0084
10896W        W31176  19.309   0.280   2.876  0.1250 -0.3802  0.1045
10897W        W31177  18.271  10.631  12.300 -0.0281 -0.2067 -0.2609
10898W        W31178  16.104   4.916   1.389 -0.0133 -0.0782  0.0069
10899W        W31179   5.231  19.633   1.316  0.1012  0.2457 -0.1264
10900W        W31180   5.813  12.104   2.552  0.1351 -0.1899  0.1580
10901W        W31181   2.162  11.263  10.433 -0.3583  0.0021 -0.0556
10902W        W31182  12.609  14.247  11.658  0.2526  0.0369  0.4057
10903W        W31183   3.754  10.949  12.628 -0.2601 -0.3600 -0.2308
10904W        W31184  15.351   0.899  12.400 -0.1866  0.1938  0.2810
10905W        W31185   2.401   3.757  10.864  0.0191  0.3865  0.1099
10906W        W31186   8.328   1.055   1.171  0.0365 -0.1343  0.2206
10907W        W31187  10.363  14.248   1.161  0.0648 -0.1986  0.1192
10908W        W31188   0.480   6.819  11.333  0.2461 -0.5154 -0.4297
10909W        W31189  17.311   7.559   3.454 -0.3688 -0.1141 -0.3785
10910W        W31190   6.493   5.639   1.082  0.1165  0.0381  0.0477
10911W        W31191  12.231  19.247   2.727 -0.0521 -0.0478  0.0094
10912W        W31192  11.249  19.324  13.164 -0.3601  0.2469 -0.1529
10913W        W31193  14.604  16.697  10.998 -0.0660 -0.2938 -0.3635
10914W        W31194   3.471   4.042  11.699  0.0880  0.4763  0.3669
10915W        W31195   7.796   4.921   1.443  0.6083 -0.2675 -0.0860
10916W        W31196   3.469  15.331   4.328  0.1319  0.3617 -0.1793
10917W        W31197  12.313  14.441   0.902  0.2455  0.0384  0.4876
10918W        W31198   7.311   1.584  10.630  0.0239  0.0733  0.2034
10919W        W31199   5.995   8.819  11.334 -0.3328  0.0668 -0.1418
10920W        W31200  14.807  18.577   0.057  0.2728  0.1322  0.0742
10921W        W31201   8.520  14.553  11.407 -0.1163 -0.0742 -0.0844
10922W        W31202  10.334   6.890   0.654 -0.1605  0.1307  0.2833
10923W        W31203   5.627  18.932  13.976 -0.1961  0.0374 -0.3729
10924W        W31204   1.345  15.483  11.462 -0.1686  0.1571  0.0119
10925W        W31205   2.318  13.765  11.083 -0.0919  0.0408  0.1815
10926W        W31206   9.446   3.835  11.324 -0.2772 -0.0787  0.1736
10927W        W31207   9.809  15.412  12.820 -0.0206  0.1257  0.1328
10928W        W31208  17.577   4.129  10.844 -0.0228  0.0714  0.1841
10929W        W31209   8.877  11.816   3.417 -0.1265 -0.3964 -0.0544
10930W        W31210   2.831   8.906  12.396  0.2698  0.0876  0.1336
10931W        W31211   7.520  10.091  11.595  0.2756  0.0620 -0.0753
10932W        W31212  18.328  16.317  13.698 -0.0244 -0.2571 -0.0175
10933W        W31213  11.661  10.656  10.992 -0.0137 -0.0587 -0.0437
10934W        W31214   5.227  11.942   0.563 -0.0062 -0.0148  0.2261
10935W        W31215  14.878   3.939   2.792 -0.1897 -0.0750 -0.2283
10936W        W31216  11.791  17.168   4.945 -0.0496  0.1071 -0.1372
10937W        W31217   9.893   4.138  14.083 -0.1760  0.0298  0.0539
10938W        W31218  12.304  14.617   2.215  0.1726 -0.1522  0.0560
10939W        W31219   1.882  10.828  11.763 -0.3971 -0.0417 -0.3369
10940W        W31220   4.097   8.203  14.046  0.2423  0.1060  0.1130
10941W        W31221  16.349   3.459  10.860 -0.0429  0.1156  0.2396
10942W        W31222   7.779   0.888  11.523 -0.2272 -0.0252  0.2896
10943W        W31223   5.662  14.254   0.582 -0.1737 -0.0203  0.0255
10944W        W31224   5.234  11.171   4.158 -0.2023 -0.3508  0.0380
10945W        W31225  17.654  13.198  12.584  0.1794  0.0950 -0.0169
10946W        W31226  19.078  11.650   0.677 -0.2827 -0.4002 -0.2151
10947W        W31227  12.376  14.115   1.272 -0.0667 -0.0908 -0.2724
10948W        W31228   2.788   7.194   2.755  0.0989  0.3862 -0.0424
10949W        W31229   4.733  17.582   2.787 -0.2681 -0.2002 -0.0779
10950W        W31230  11.642   3.622  11.539 -0.0567 -0.0627 -0.1223
10951W        W31231  11.856   5.197   0.822 -0.0786  0.0738 -0.2726
10952W        W31232   1.461   0.869  13.390  0.0380 -0.1358 -0.0812
10953W        W31233   1.140   2.776   0.109  0.1037  0.0983 -0.1262
10954W        W31234  16.847  12.957   2.422 -0.1179 -0.0694 -0.3536
10955W        W31235  15.536   0.463  10.502  0.2811  0.2055 -0.0950
10956W        W31236  17.869  12.396   3.751  0.0864  0.1559 -0.0698
10957W        W31237  10.978  13.959   3.898 -0.2901 -0.3212 -0.1154
10958W        W31238   6.112   1.323  11.797 -0.1799 -0.3891  0.2813
10959W        W31239  16.481   2.607   0.451 -0.2407 -0.1067 -0.0147
10960W        W31240  11.601  17.050  11.961 -0.2285  0.1433  0.2158
10961W        W31241   2.828  12.738   1.480 -0.1190  0.0001  0.0420
10962W        W31242  17.828  12.739   0.207 -0.2285  0.1673  0.0574
10963W        W31243   5.381  11.942   1.618  0.1280  0.2887  0.1155
10964W        W31244   2.453  19.411  11.122  0.2223 -0.2604  0.0208
10965W        W31245   0.550  11.674  13.888 -0.2858  0.1192 -0.1828
10966W        W31246   3.591  12.622   1.824 -0.0189  0.0345  0.0061
10967W        W31247   8.984   7.958  13.946 -0.1202 -0.0204  0.1341
10968W        W31248  13.067   1.167  10.692  0.1856  0.1314  0.1255
10969W        W31249  14.417   8.157  11.436  0.0136  0.2167 -0.4222
10970W        W31250  18.456   8.319  13.457 -0.3346  0.1221 -0.1121
10971W        W31251  15.767  11.227   9.621  0.0620  0.1603  0.4043
10972W        W31252  16.080  19.265  10.850 -0.1719  0.0265 -0.3928
10973W        W31253   9.826   2.907   0.793  0.4310 -0.1421  0.0400
10974W        W31254  17.387  16.132  13.071  0.1392  0.1240 -0.2455
10975W        W31255  19.444   6.478   9.682 -0.0672 -0.0785  0.0243
10976W        W31256   2.799   0.280   1.877  0.0534  0.0156 -0.1889
10977W        W31257  13.321  18.802  11.963  0.2001  0.0658  0.0255
10978W        W31258  16.140  15.769   0.012  0.0848 -0.0639  0.1348
10979W        W31259   3.404  18.411   1.994  0.3273  0.2240 -0.1165
10980W        W31260  10.395  16.905  13.456  0.0978  0.2168 -0.0166
10981W        W31261   2.599  13.624   2.991  0.1637 -0.2312 -0.1605
10982W        W31262   8.036  18.501   0.018  0.1913  0.0289  0.0632
10983W        W31263  13.697   9.232  11.396  0.1849  0.3309  0.1960
10984W        W31264   7.427  16.369  12.290  0.2940  0.3049 -0.0957
10985W        W31265   9.632   3.676   9.646 -0.2872  0.3182  0.3011
10986W        W31266  15.397   8.777  12.276 -0.1534 -0.0020 -0.0015
10987W        W31267  19.567  17.009  11.007 -0.1122  0.2620  0.2421
10988W        W31268   8.403   5.788   0.455  0.1798  0.0331  0.3970
10989W        W31269  19.360   0.109  10.963 -0.1281  0.2530 -0.1297
10990W        W31270   3.546   4.082  10.722  0.1235 -0.2230 -0.1296
10991W        W31271  11.833   2.334   0.113  0.1214 -0.1195 -0.0854
10992W        W31272  12.660  19.393  13.003 -0.2194  0.1184 -0.0537
10993W        W31273   6.753   1.282  10.961 -0.4965  0.0519  0.3079
10994W        W31274  12.724   9.881  13.978  0.0916 -0.0381  0.0242
10995W        W31275  16.287   3.157  13.707 -0.1647 -0.3033  0.1631
10996W        W31276  10.124  17.181  12.340  0.2769 -0.0213  0.0069
10997W        W31277   7.408  14.615  11.134 -0.0390  0.1237  0.0868
10998W        W31278  18.065  13.901  10.336 -0.1368 -0.0904 -0.0228
10999W        W31279  13.037   8.145   2.327  0.1685 -0.0581  0.1239
11000W        W31280   0.482  15.082  13.854 -0.0747 -0.1157 -0.0585
11001W        W31281   1.903  12.308  10.849  0.0508  0.0954  0.4592
11002W        W31282   7.406   1.780   3.404 -0.3320 -0.0186  0.0233
11003W        W31283   7.104   3.898   2.973 -0.2991 -0.0126  0.0136
11004W        W31284  15.750   1.010  13.273  0.1119  0.1907  0.3418
11005W        W31285  14.714   8.396   3.572  0.1473  0.1244 -0.2673
11006W        W31286  18.376  18.011  12.185 -0.1326  0.0664  0.2090
11007W        W31287   3.577   8.242  13.836  0.2644  0.0777 -0.1399
11008W        W31288  15.400   0.296   1.477  0.0386 -0.0291  0.1039
11009W        W31289  16.563  13.792  11.165  0.1381  0.1104 -0.0926
11010W        W31290   7.366  19.583   1.665 -0.0653 -0.0047  0.0358
11011W        W31291   1.159  14.645  11.779  0.2188  0.3873  0.1563
11012W        W31292   5.430   0.463  13.749 -0.0893  0.2089 -0.1709
11013W        W31293  11.905  18.380  12.986 -0.2711  0.1852 -0.0592
11014W        W31294   6.398  16.241   3.458  0.0516 -0.0981 -0.2403
11015W        W31295   1.618  11.764   2.304 -0.0812  0.3223 -0.0854
11016W        W31296  18.996  12.819  11.534 -0.1170  0.0927 -0.2082
11017W        W31297  11.678   5.911  12.532  0.3402  0.0874 -0.1345
11018W        W31298   1.223   1.075   0.971 -0.1858  0.0860 -0.0136
11019W        W31299   4.989   1.127   2.162 -0.3392  0.1025 -0.2642
11020W        W31300   3.658  17.538   1.403  0.0459  0.0085 -0.1018
11021W        W31301  16.697   8.134  11.153 -0.3248  0.0827 -0.1061
11022W        W31302   6.213  16.765   0.879  0.0321 -0.1526 -0.2657
11023W        W31303  15.017  10.355   1.165 -0.2539  0.3536  0.3639
11024W        W31304   0.995   8.669  11.291  0.0617 -0.1199  0.0054
11025W        W31305   7.229   5.812   2.202  0.0695  0.2151  0.3931
11026W        W31306   6.982  11.669   2.831  0.1151 -0.0107  0.0951
11027W        W31307   5.168   5.981   0.124 -0.0766  0.1002  0.1442
11028W        W31308  15.279   7.171   0.913 -0.2315 -0.3312  0.0126
11029W        W31309   8.900   8.217   1.637 -0.2450 -0.2173  0.0405
11030W        W31310   2.827   0.998   0.291 -0.0925 -0.1485  0.1744
11031W        W31311  13.757   3.934  13.057 -0.2717  0.1786 -0.2186
11032W        W31312   2.579   5.211  12.593 -0.4835  0.1264  0.1816
11033W        W31313   2.270  12.940   0.646 -0.0258 -0.1023 -0.2449
11034W        W31314  18.128   0.355  12.443 -0.0813  0.3504  0.3953
11035W        W31315   2.365  18.717   2.272  0.0146  0.3860 -0.2907
11036W        W31316  10.959   6.735   1.066  0.1357 -0.4697 -0.1839
11037W        W31317  14.610   7.142  10.446  0.0937 -0.0645 -0.1905
11038W        W31318   7.630  13.115  10.136  0.1253  0.1899 -0.4461
11039W        W31319   1.990  16.867   0.159  0.1753 -0.0022 -0.0793
11040W        W31320  19.122  11.859   1.968 -0.1410  0.1369  0.0514
11041W        W31321  10.770   2.761   3.323  0.0501 -0.1107  0.0211
11042W        W31322   4.937  17.034   2.662  0.2533 -0.4140 -0.1340
11043W        W31323   1.769   6.327   1.596 -0.0265 -0.0742  0.1352
11044W        W31324   3.066  15.040   0.953  0.0268 -0.3510 -0.0141
11045W        W31325   3.363   8.328   1.049 -0.3089 -0.2269  0.2284
11046W        W31326   1.824  18.075   5.329 -0.2601  0.1196  0.1506
11047W        W31327   0.008   2.355  12.019  0.1459  0.2095  0.0569
11048W        W31328   2.557  11.912   0.327  0.1222 -0.1314 -0.0293
11049W        W31329  13.883  13.802  12.473  0.1237 -0.0763  0.0328
11050W        W31330   7.019  19.564   8.987 -0.1436 -0.2483 -0.1483
11051W        W31331  10.461  15.976   3.985  0.0757 -0.0847  0.1172
11052W        W31332   2.316  14.685   3.770 -0.0912  0.3305 -0.1090
11053W        W31333  18.651   9.203  10.967 -0.2866 -0.0992  0.0634
11054W        W31334  11.765  10.358   3.283  0.2269 -0.3951 -0.0541
11055W        W31335  16.129  18.904   1.224 -0.0016 -0.1052  0.2111
11056W        W31336   4.953  15.289   1.333  0.2768 -0.2805  0.2614
11057W        W31337  15.814  10.588  12.647 -0.3394  0.1593  0.4674
11058W        W31338  19.278   4.073  13.878 -0.2856 -0.2983 -0.0180
11059W        W31339   4.159   5.989   3.477 -0.2261  0.3734 -0.1319
11060W        W31340   9.239  11.446  14.082  0.0543 -0.2008  0.0361
11061W        W31341   3.347   5.330   9.846 -0.0396 -0.2210  0.2919
11062W        W31342  14.481   4.822   1.145  0.1127 -0.2117  0.4125
11063W        W31343   6.595  17.208  12.977  0.1001  0.0652 -0.1588
11064W        W31344  19.059  12.419   1.803 -0.1279  0.0002 -0.0598
11065W        W31345   2.891  12.440  11.739 -0.0264  0.1981  0.0986
11066W        W31346   1.154  13.082  12.427  0.1791  0.1245  0.1320
11067W        W31347  15.585   5.432  11.689  0.0210 -0.3253 -0.0532
11068W        W31348   7.344  18.716   1.779  0.4200 -0.1607  0.0254
11069W        W31349  17.605  16.178   2.357  0.0391  0.2162 -0.2808
11070W        W31350   7.770  10.697  13.570 -0.0786 -0.0116 -0.0493
11071W        W31351   5.034   0.557  13.362  0.2632  0.0877  0.0707
11072W        W31352   0.867   7.513   0.781 -0.0324  0.2802 -0.0819
11073W        W31353  10.268   2.751   0.930 -0.3256 -0.0460  0.0733
11074W        W31354   6.867   1.328   4.112 -0.0884 -0.0820  0.0074
11075W        W31355  18.848   7.115   1.461  0.2445 -0.0895  0.0129
11076W        W31356  15.012  13.846   3.565  0.1162  0.3130 -0.2004
11077W        W31357   9.590  17.301   1.622 -0.1048 -0.1605 -0.0840
11078W        W31358  18.571  18.801  14.080 -0.5571  0.1565  0.1895
11079W        W31359   7.436  16.518   1.480 -0.2082  0.1338  0.0284
11080W        W31360   4.512   1.554  11.558  0.0662 -0.2064  0.0943
11081W        W31361  11.223  14.192   0.321 -0.0168 -0.4404  0.0613
11082W        W31362  13.884  19.670  12.400 -0.0556  0.1778  0.3119
11083W        W31363   9.434   3.898  13.763  0.0553 -0.1324 -0.3906
11084W        W31364   0.615   0.563  12.331  0.1432 -0.0678 -0.2533
11085W        W31365   4.725  15.300   9.824  0.2601  0.1103  0.0731
11086W        W31366   8.533  17.206   1.576  0.1691 -0.1825 -0.1599
11087W        W31367  14.063  18.427   0.794  0.1147 -0.2459 -0.2533
11088W        W31368   8.834  16.952  10.669  0.0368 -0.2706 -0.0153
11089W        W31369   1.287   0.580   9.688 -0.1366  0.0899 -0.2719
11090W        W31370   4.262   3.633  12.257  0.3528  0.0229 -0.2469
11091W        W31371   5.356  12.400   2.327 -0.0004  0.4242 -0.0149
11092W        W31372  12.818   4.210  11.069  0.1398  0.3409  0.0551
11093W        W31373   5.096  11.771   3.669 -0.0229  0.2237  0.1343
11094W        W31374  12.073   7.853  11.834  0.1122  0.0623 -0.2855
11095W        W31375  10.567  19.736   0.175  0.0504 -0.4402  0.0126
11096W        W31376  12.838   7.391  10.878  0.0270 -0.1878  0.4163
11097W        W31377   7.274   2.464  10.362  0.2558  0.1676 -0.0871
11098W        W31378  10.521   6.012   9.602  0.2779  0.2557  0.2858
11099W        W31379   0.783  19.697  11.480 -0.1422  0.0407 -0.2987
11100W        W31380  19.151  13.096  10.996  0.2115  0.0541  0.1373
11101W        W31381  16.148  16.400  10.866  0.0697  0.1956 -0.0972
11102W        W31382  14.268   6.250   4.779  0.1720 -0.0344  0.0461
11103W        W31383  18.928   4.897   3.944  0.1930  0.2475 -0.2444
11104W        W31384   0.630   3.230   0.621 -0.1767  0.2179 -0.1232
11105W        W31385  17.130   0.151  10.910 -0.4556  0.0149 -0.1258
11106W        W31386   6.903   3.660   2.142 -0.0336 -0.1972  0.2071
11107W        W31387   5.531   8.127  10.877 -0.0842  0.0087 -0.0869
11108W        W31388  11.542   6.888  10.919  0.2750 -0.2234 -0.2852
11109W        W31389   5.519   6.748   4.154 -0.0721  0.0111 -0.1867
11110W        W31390  18.043  14.902   3.002 -0.1048  0.1860 -0.0076
11111W        W31391  11.338  15.494  11.321  0.1110  0.4089  0.3645
11112W        W31392   1.584  19.471   2.616 -0.0513 -0.2760  0.1305
11113W        W31393  13.966   8.159   9.997  0.0424  0.0248  0.1185
11114W        W31394   7.783  12.106  12.274 -0.2876 -0.2071 -0.0748
11115W        W31395   8.868  18.167  13.323  0.2862 -0.0753  0.0845
11116W        W31396  11.789  11.615  13.804 -0.0561 -0.2192 -0.2460
11117W        W31397   3.073   3.031   1.966 -0.0078  0.3023 -0.1034
11118W        W31398   2.946  11.069   1.362 -0.0569  0.1343 -0.0186
11119W        W31399  11.740  18.258  10.915  0.1966 -0.2899 -0.1546
11120W        W31400   7.726   2.118   3.595  0.1437 -0.2403 -0.3480
11121W        W31401  18.957  16.567  12.951  0.0783 -0.1492  0.1852
11122W        W31402   6.846  15.170  10.740  0.0481  0.0743 -0.2492
11123W        W31403   1.109  19.435  11.181  0.2945 -0.0418  0.2147
11124W        W31404   7.883  14.234   2.969 -0.0582 -0.2446  0.1978
11125W        W31405   4.467   8.523  13.606 -0.0507 -0.2506 -0.0659
11126W        W31406  10.366  12.991   3.298  0.0880  0.3565  0.1268
11127W        W31407  11.132  14.691   2.720 -0.1199  0.0967  0.0002
11128W        W31408   5.521  19.170   5.191 -0.0096 -0.0208 -0.1042
11129W        W31409   1.459  15.871  13.381 -0.4040 -0.3112  0.3593
11130W        W31410  13.871   7.252  12.171  0.3237 -0.2004 -0.2552
11131W        W31411   4.392   7.280   3.000  0.2715  0.0341  0.2879
11132W        W31412   1.075  13.139   0.064 -0.0429 -0.4042  0.1722
11133W        W31413  17.462   8.595   3.141  0.3997  0.3393  0.0345
11134W        W31414  14.238   9.596  14.016 -0.0656 -0.1187 -0.0874
11135W        W31415   0.793  13.838  11.711  0.0253 -0.3602  0.2747
11136W        W31416  15.652  18.580  12.544  0.1721 -0.2598  0.1187
11137W        W31417   5.964   9.329   3.780 -0.0355 -0.1407 -0.1586
11138W        W31418  17.527   2.682  13.649 -0.3081  0.0746 -0.1802
11139W        W31419  15.182   4.492   0.936 -0.1856  0.2027 -0.0514
11140W        W31420  18.026  15.658  11.199  0.0696  0.2929  0.1282
11141W        W31421  17.227  13.281  13.846 -0.1946  0.1227  0.1536
11142W        W31422   6.800  11.274  14.015 -0.0687  0.1323 -0.2707
11143W        W31423  16.315   1.894  13.724 -0.0588 -0.0509 -0.0812
11144W        W31424   7.018   9.240   2.879 -0.0899 -0.0526 -0.1221
11145W        W31425   2.856   9.927  14.045 -0.0690  0.0844 -0.0348
11146W        W31426   4.324   4.122   0.668  0.1025  0.2536 -0.0706
11147W        W31427   7.074  11.088  12.670 -0.5252 -0.0084  0.0515
11148W        W31428   3.011   4.130   3.066  0.1183 -0.1168  0.0272
11149W        W31429  17.911  10.208  13.508  0.1872 -0.2477 -0.0521
11150W        W31430   4.127   5.608  13.411 -0.1621 -0.1330 -0.0095
11151W        W31431  17.452  16.728   1.248 -0.1069  0.2487  0.1985
11152W        W31432  12.509   9.054  10.625 -0.2175 -0.0085 -0.0565
11153W        W31433   7.508  19.597   0.665 -0.4422  0.2759 -0.1807
11154W        W31434   3.239   3.177  12.530  0.0434  0.0353  0.1059
11155W        W31435   4.219   3.689   2.328  0.1071 -0.1788 -0.1283
11156W        W31436  10.542   7.194   3.914 -0.3294 -0.1165  0.1814
11157W        W31437   5.720   8.799  13.317 -0.2934 -0.0200 -0.3173
11158W        W31438  16.383  16.595   4.176 -0.0746  0.0161 -0.3204
11159W        W31439  16.923   1.331   1.907 -0.0718  0.0776  0.0989
11160W        W31440  13.707   6.629  13.510  0.2003  0.0667  0.1524
11161W        W31441   6.472   0.204  10.970  0.2340  0.2719 -0.1210
11162W        W31442   0.499   1.100  12.168 -0.1233 -0.2001  0.2345
11163W        W31443  13.005  18.797  12.629  0.0337  0.0243  0.1242
11164W        W31444  19.270  19.169   2.647  0.0151 -0.0287  0.1669
11165W        W31445   0.827  16.421   3.509  0.0654  0.2400  0.0838
11166W        W31446   9.281  17.332   3.071  0.3863 -0.0399  0.0165
11167W        W31447  19.311  12.090   0.527 -0.3799 -0.3698  0.1777
11168W        W31448  15.822  14.017  11.238  0.3517 -0.1570  0.2477
11169W        W31449  19.738  18.111   9.555 -0.0354  0.0846 -0.0642
11170W        W31450   3.207  12.689  13.361  0.2255 -0.0512 -0.1475
11171W        W31451   0.108   3.624  12.801  0.1431  0.2321 -0.1005
11172W        W31452   1.141   5.313   3.281 -0.0311  0.0153  0.2383
11173W        W31453  14.093  13.800  14.051 -0.1551 -0.1577 -0.1283
11174W        W31454   4.133  17.332  10.743 -0.2175  0.0585  0.2554
11175W        W31455  13.722   0.211  11.989 -0.1110 -0.0405  0.2152
11176W        W31456  10.507   6.327   0.747  0.0665 -0.0408 -0.0189
11177W        W31457  16.222  11.132   1.424 -0.4503 -0.3495 -0.3246
11178W        W31458   8.338  17.644   2.198 -0.0462  0.0592 -0.1557
11179W        W31459   0.581   2.148   1.720  0.0470 -0.1818 -0.0878
11180W        W31460  11.798   9.069   4.433  0.2458  0.1652  0.0030
11181W        W31461  13.163  19.033  11.539  0.1275 -0.1957  0.2048
11182W        W31462   5.051  11.126  10.835  0.2508  0.0926 -0.1507
11183W        W31463  17.276   6.374   2.883  0.0710  0.1287  0.1512
11184W        W31464   9.637  13.228   3.723  0.0947 -0.2869 -0.0790
11185W        W31465  16.247  18.422  10.982 -0.1822  0.0718 -0.0434
11186W        W31466   3.953  11.631   2.794 -0.1794  0.1987  0.1387
11187W        W31467   2.270   3.299  14.088 -0.0109 -0.0698  0.2646
11188W        W31468  19.312   8.716   4.057  0.0548 -0.1768 -0.0850
11189W        W31469  16.547  18.194   1.415 -0.0926  0.3666  0.2450
11190W        W31470   1.799   3.685  11.697 -0.0454  0.0535  0.1608
11191W        W31471   7.946   7.774  10.322 -0.0309  0.1977  0.0821
11192W        W31472   8.921   1.675  12.995 -0.0919  0.0006  0.1168
11193W        W31473   4.104   0.782  12.499  0.1427  0.0224  0.0616
11194W        W31474  11.029   5.710   0.795 -0.0078  0.0202 -0.2135
11195W        W31475   0.649  10.105   1.974 -0.2703  0.0310 -0.1254
11196W        W31476   3.740   3.248  14.100 -0.1598 -0.2095 -0.0764
11197W        W31477  14.024   1.437   2.700 -0.1516 -0.1867  0.2539
11198W        W31478   5.783   0.606  10.626 -0.1023 -0.1508  0.1765
11199W        W31479  11.032   8.457   2.161 -0.1045  0.3870  0.1696
11200W        W31480   4.618  12.060   1.224 -0.2418 -0.2787 -0.2123
11201W        W31481   5.689   2.850  10.653  0.1737 -0.3233 -0.1844
11202W        W31482   3.314  17.267  11.409 -0.0164  0.0231  0.2476
11203W        W31483  11.703   7.442   3.748 -0.0951  0.0696 -0.3838
11204W        W31484   3.453  14.325  10.816  0.2819  0.1629 -0.1326
11205W        W31485  17.011  12.104   2.850  0.2064 -0.0128 -0.1421
11206W        W31486   0.606  14.550   4.730 -0.3880 -0.3292 -0.1133
11207W        W31487  12.850   9.089  10.994  0.5206  0.0216 -0.2087
11208W        W31488  19.187  10.630   0.345 -0.1706  0.0274 -0.0943
11209W        W31489   8.907   1.686   1.360  0.1767  0.1048 -0.0090
11210W        W31490  18.654   3.243   2.950 -0.1213  0.0722  0.0470
11211W        W31491  17.738   8.967   2.890 -0.3196  0.2663 -0.0691
11212W        W31492  14.185   6.582  13.658 -0.2000  0.0762  0.0753
11213W        W31493  10.275   5.906   0.503  0.3044 -0.1240  0.1849
11214W        W31494  11.554   8.898  14.000 -0.1027 -0.1142  0.0022
11215W        W31495  10.987  14.839   1.111  0.0571  0.0804  0.0092
11216W        W31496   7.719   1.421   3.489 -0.0990 -0.2754 -0.0605
11217W        W31497   4.292  16.399   0.437  0.1553  0.2375 -0.0458
11218W        W31498   5.247  15.440   3.436  0.2512 -0.0389 -0.0654
11219W        W31499  18.558   6.674   2.265 -0.0563  0.2612 -0.0779
11220W        W31500  14.028  13.274  12.704  0.0991  0.2219  0.1734
11221W        W31501  15.581   9.811   9.439  0.0356 -0.2025  0.0845
11222W        W31502  18.637   2.593   1.388  0.1968 -0.0940  0.2144
11223W        W31503  18.506   2.405   2.865 -0.3226 -0.0432 -0.0088
11224W        W31504   2.054  12.940   1.089  0.0970 -0.0492 -0.0176
11225W        W31505   3.080   8.464  13.418 -0.0996  0.1481  0.2630
11226W        W31506   3.131   4.329  10.539 -0.1982  0.1939 -0.1667
11227W        W31507   8.307   8.885  12.489 -0.0382  0.1905  0.0920
11228W        W31508  17.620   0.466   0.910  0.1044  0.2857 -0.0489
11229W        W31509   3.251   4.526  11.017  0.1580  0.1325  0.5613
11230W        W31510   5.058  12.673   0.485  0.1808 -0.1846  0.4151
11231W        W31511  12.854   5.401   3.089 -0.2515  0.2725 -0.3665
11232W        W31512  18.557  14.654   0.654 -0.0307 -0.2353 -0.2513
11233W        W31513  15.613  14.624  12.823 -0.1399  0.0684  0.0597
11234W        W31514   7.104  18.850   0.034 -0.1245 -0.0039  0.2485
11235W        W31515  11.322  10.327   1.314 -0.0693  0.0455  0.1078
11236W        W31516  10.123   0.250   0.028  0.2810  0.0370 -0.0892
11237W        W31517  10.655   1.385  10.510  0.4721  0.3068  0.3112
11238W        W31518   5.811  14.619   0.914 -0.0158 -0.0557  0.1668
11239W        W31519   7.418   4.991  12.851  0.0965  0.3831  0.0816
11240W        W31520  17.972   2.318  13.544 -0.0213  0.1284  0.1096
11241W        W31521   2.277  13.453  12.292  0.0494 -0.2510  0.4646
11242W        W31522  12.980   5.202   0.566  0.1805 -0.2902 -0.1436
11243W        W31523   0.275  18.030  13.187 -0.1687 -0.0655 -0.1494
11244W        W31524  10.695   0.363  13.477  0.2931 -0.0406 -0.1761
11245W        W31525  17.076  14.914  11.070 -0.1619 -0.2537 -0.0400
11246W        W31526  18.297   4.559  12.431 -0.4135 -0.2305 -0.3192
11247W        W31527  19.336  19.714  12.677  0.2639 -0.4129  0.3103
11248W        W31528  12.032  10.870  13.662  0.1772 -0.2943  0.0306
11249W        W31529   3.521   7.003  12.835 -0.2093 -0.0464  0.1743
11250W        W31530  16.019   9.088  11.273  0.2538  0.2597 -0.0656
11251W        W31531  10.542  17.560  13.664 -0.0176 -0.6257 -0.0632
11252W        W31532  14.452  18.933   2.810  0.0163 -0.1935 -0.1954
11253W        W31533   4.072  16.843   0.546 -0.1958 -0.0755 -0.2486
11254W        W31534  10.262   0.940   2.068  0.0127  0.2637  0.1833
11255W        W31535   0.422   9.691   5.124 -0.0173 -0.1884 -0.0143
11256W        W31536  11.127   2.412  12.804  0.0303  0.1113 -0.0475
11257W        W31537  18.291   0.393  11.383  0.1726 -0.1140  0.0976
11258W        W31538   3.374   9.539  13.316  0.0758  0.0390 -0.0238
11259W        W31539   4.297   4.100   3.780 -0.0931 -0.2318  0.0314
11260W        W31540  13.235  11.778   0.101 -0.0676  0.2234 -0.0351
11261W        W31541  16.094  12.099  10.800  0.1283  0.0043 -0.0530
11262W        W31542   4.873  16.461  12.978  0.2054  0.2035 -0.0554
11263W        W31543   4.499  12.073  11.638 -0.3703 -0.1003 -0.0890
11264W        W31544   3.493  11.829  13.930  0.1761  0.1704  0.1928
11265W        W31545  18.997  13.717  10.898 -0.0361  0.0636 -0.0131
11266W        W31546  18.026  10.517  10.067 -0.3331 -0.1639  0.0696
11267W        W31547  11.478  14.073  12.887  0.1655  0.0716 -0.3340
11268W        W31548  13.984  16.950   3.431  0.2164 -0.2318 -0.1173
11269W        W31549  13.068  13.960  13.038  0.0456  0.0313  0.1813
11270W        W31550   0.566  19.502  11.908 -0.0972  0.0524 -0.1850
11271W        W31551  14.011   8.239  12.970  0.1312  0.0735 -0.0967
11272W        W31552  18.729   5.152   0.525 -0.1231  0.0364  0.1779
11273W        W31553  11.389   1.330  10.673  0.1123  0.2009 -0.1675
11274W        W31554   4.451  10.493  10.745  0.0024 -0.0596 -0.1753
11275W        W31555  11.090   2.103   1.123  0.0347  0.3045 -0.1100
11276W        W31556  17.213   4.743  10.945 -0.1135  0.1948 -0.0057
11277W        W31557   7.099  13.565   2.917  0.0299 -0.1931 -0.0456
11278W        W31558   2.649   3.888  11.731  0.2177  0.1218  0.1332
11279W        W31559  12.740   0.019   1.511 -0.3820 -0.1623  0.0187
11280W        W31560   3.491  12.897  12.431  0.2176  0.0500  0.2132
11281W        W31561  16.187   1.409   0.418  0.4365  0.1552  0.1139
11282W        W31562  13.550  12.852   2.906  0.0377  0.2260  0.0853
11283W        W31563   6.824  16.244   3.771  0.1891 -0.0646  0.3244
11284W        W31564  11.278  13.635   2.739 -0.3724 -0.1086 -0.0208
11285W        W31565  12.422   8.872   0.863  0.2053 -0.1302  0.0884
11286W        W31566   3.731   0.911  11.829 -0.2581 -0.0052 -0.1857
11287W        W31567   2.269  11.189  13.539  0.2326 -0.0464 -0.0362
11288W        W31568   9.730  12.719  13.170 -0.0941  0.3016  0.0508
11289W        W31569  17.120  13.047   2.851  0.3460  0.0744  0.1056
11290W        W31570   0.840  16.727   9.953  0.0278  0.1552  0.0210
11291W        W31571   0.275   3.149  11.014  0.1795 -0.1367 -0.0227
11292W        W31572   3.336   0.931   9.915 -0.0050 -0.1084 -0.3480
11293W        W31573  15.714  12.823   2.970  0.1392 -0.0747  0.1809
11294W        W31574  15.444   1.739   1.996 -0.1262 -0.2383 -0.2196
11295W        W31575  17.900   5.944  11.406  0.1079  0.0037  0.0568
11296W        W31576   7.871  13.035  12.279 -0.3424 -0.0730 -0.0630
11297W        W31577   8.948  15.703  12.823 -0.2127  0.0797 -0.2639
11298W        W31578  16.219  13.267  13.636  0.0079 -0.2227 -0.0484
11299W        W31579   7.004  12.787  13.200  0.1656 -0.0085 -0.0234
11300W        W31580   4.818   6.484   3.729 -0.1618  0.0255 -0.0923
11301W        W31581  13.976   8.771   9.740  0.2113  0.0581 -0.0837
11302W        W31582  10.580   1.430   0.267 -0.0516 -0.0284 -0.0154
11303W        W31583  15.791   5.858  12.897 -0.1461 -0.2025 -0.0606
11304W        W31584   4.536  13.454  13.077  0.1883 -0.0380 -0.1415
11305W        W31585   9.200  17.612   2.097  0.0197  0.2946 -0.2304
11306W        W31586  16.377  10.938   2.615  0.1898 -0.0479  0.1388
11307W        W31587  16.399  10.948  11.956 -0.0363 -0.0083  0.0237
11308W        W31588   5.566   1.518  13.023  0.1087 -0.2024  0.0461
11309W        W31589   1.642  15.571   0.112  0.0296 -0.0496 -0.1849
11310W        W31590   2.659   9.495   1.893  0.2630 -0.0242 -0.5163
11311W        W31591   4.334  18.331   3.294 -0.1314 -0.1327  0.1102
11312W        W31592  15.366   1.500  11.481  0.1211 -0.0745 -0.2314
11313W        W31593   6.575  10.118   1.791 -0.2410 -0.2044 -0.0934
11314W        W31594  18.389   9.812  12.222 -0.0325  0.0950  0.0585
11315W        W31595  14.073   7.643  10.851 -0.0919  0.1804  0.1103
11316W        W31596  14.541   0.233  13.118 -0.3627  0.0559 -0.2536
11317W        W31597  13.301  18.177   4.112  0.1142  0.0846  0.5496
11318W        W31598  12.123   3.623   0.803 -0.1418  0.2505 -0.2621
11319W        W31599   4.963  16.726  10.809  0.0037 -0.1661  0.0485
11320W        W31600   0.694  11.101   3.881 -0.0217  0.0931  0.1638
11321W        W31601   9.672   5.441   0.973  0.0589  0.0723 -0.2380
11322W        W31602   1.723  13.641   0.262  0.3822  0.3740 -0.1480
11323W        W31603   9.259   0.959  13.080  0.2268  0.1102  0.0317
11324W        W31604   6.855  15.898  10.305  0.1695  0.2004  0.1522
11325W        W31605  14.097   7.613   4.818  0.2366  0.1140  0.0525
11326W        W31606  17.232  13.089  11.694  0.0657 -0.1615  0.0549
11327W        W31607   5.427  11.779  12.181 -0.1416 -0.1496 -0.1843
11328W        W31608   0.231  13.524   0.212 -0.0625 -0.0226  0.1963
11329W        W31609   3.558  11.484   3.648  0.1499 -0.1674 -0.0005
11330W        W31610  15.597  12.402   2.139  0.1660  0.2055  0.1020
11331W        W31611  15.591   6.514   0.786  0.1358  0.0450  0.0463
11332W        W31612   7.202  11.536   0.794 -0.1581  0.3004 -0.1047
11333W        W31613   0.758   7.656   4.439 -0.0223  0.0240 -0.1902
11334W        W31614   8.321   6.668  10.603  0.4476 -0.1771 -0.0489
11335W        W31615  14.360  15.873   0.205 -0.2033  0.0248  0.2062
11336W        W31616  18.450  10.175   4.037 -0.3413  0.3270 -0.0217
11337W        W31617  19.563  14.282  10.237 -0.0949 -0.0762 -0.0478
11338W        W31618   5.182  14.635  13.573  0.1600  0.0676 -0.1684
11339W        W31619  17.236  18.678  12.507 -0.0364  0.1213 -0.3104
11340W        W31620  18.295  16.131  11.951 -0.0142  0.2491 -0.2516
11341W        W31621   2.010  17.973   2.134 -0.0883 -0.1827 -0.1190
11342W        W31622  16.199   6.054   1.133 -0.1111  0.1276  0.2510
11343W        W31623  14.552  10.586  10.378 -0.3010 -0.0862 -0.0306
11344W        W31624   4.841  14.713   0.681 -0.2945 -0.0028  0.0015
11345W        W31625  12.097   2.771   0.700  0.0466 -0.0013 -0.2805
11346W        W31626   0.303   7.929  12.741  0.2768  0.0028 -0.0899
11347W        W31627  12.461   3.969  13.586 -0.3239  0.0122  0.2239
11348W        W31628   1.127   6.420   3.641  0.1794  0.0108 -0.3115
11349W        W31629  10.895  17.786  13.236  0.0581 -0.0732  0.0885
11350W        W31630   9.096   3.151   0.346 -0.1361  0.3249 -0.1590
11351W        W31631  12.358  16.664   1.331  0.3841 -0.0417 -0.0643
11352W        W31632  10.796   3.175  13.876  0.1154  0.2037  0.1646
11353W        W31633   3.396  19.261   4.760  0.1138  0.0658 -0.0517
11354W        W31634  14.512   7.219  11.499 -0.2045 -0.0166  0.3631
11355W        W31635  17.228  15.578   3.139  0.2919  0.1296  0.0479
11356W        W31636  15.400   1.792   0.446  0.1303  0.0583  0.0284
11357W        W31637   0.146   1.136  13.697 -0.2718 -0.2402 -0.2009
11358W        W31638   7.130   1.340   1.383  0.0695 -0.2435  0.0439
11359W        W31639   0.541   6.638   3.546 -0.1366  0.0244 -0.0553
11360W        W31640   7.817   5.766   4.028  0.1565 -0.2064  0.3192
11361W        W31641  14.656   1.201   1.647 -0.1897 -0.0888 -0.0551
11362W        W31642  14.350   9.351   0.814 -0.1595 -0.1797  0.2023
11363W        W31643  15.301   4.416  10.521 -0.1810  0.0185 -0.0976
11364W        W31644   0.097   5.638   3.996  0.0316  0.2768  0.1096
11365W        W31645  16.454   2.089  12.861  0.0948  0.2026 -0.1289
11366W        W31646   5.134   0.933  13.730 -0.0740 -0.3002  0.0763
11367W        W31647  14.393  14.593   1.476 -0.0918 -0.1532  0.1525
11368W        W31648   6.018   0.890   0.863  0.0167  0.0519  0.3446
11369W        W31649  12.609   4.609   0.559  0.1278  0.0663 -0.0131
11370W        W31650   6.883   6.146   1.290 -0.3135  0.1922 -0.2336
11371W        W31651  11.041  14.840  13.649 -0.0348  0.0108 -0.1281
11372W        W31652  18.598  15.384  12.496  0.0812 -0.0015  0.0846
11373W        W31653   0.002  16.143   1.319  0.0020  0.2792 -0.0864
11374W        W31654   0.970  13.220  13.089 -0.0855 -0.2877  0.1401
11375W        W31655   1.021   9.833  10.135  0.3029 -0.0178 -0.0503
11376W        W31656   0.428  10.561  11.796  0.3736  0.3529 -0.0408
11377W        W31657   7.270   6.544  13.637  0.1097  0.1304 -0.1348
11378W        W31658   0.895  17.848   1.527  0.0926 -0.1826  0.0482
11379W        W31659   4.612  19.595   0.527 -0.0597 -0.0026  0.0182
11380W        W31660   7.442   7.410  12.261  0.1615 -0.0724  0.2180
11381W        W31661   7.230   9.779  13.441 -0.1616 -0.2809  0.1106
11382W        W31662  12.927   2.924  11.911 -0.0422 -0.2525 -0.1684
11383W        W31663   9.070  14.148   1.820  0.1394  0.0257 -0.1443
11384W        W31664   5.121  13.933   1.818 -0.0451  0.2647 -0.2057
11385W        W31665  18.695  12.765   3.422  0.1324  0.0291 -0.2280
11386W        W31666  12.604   9.449  13.086  0.1608  0.1142  0.3713
11387W        W31667   0.306  10.159  13.401 -0.4148 -0.0214  0.2922
11388W        W31668   3.513  13.188   3.122 -0.2835 -0.3104  0.1053
11389W        W31669   5.296  16.427  11.058  0.0063  0.0630 -0.0603
11390W        W31670  14.367   9.748   2.521 -0.0982 -0.0305  0.1534
11391W        W31671  13.193   9.700   4.364  0.2646  0.1642 -0.0176
11392W        W31672  12.900   3.051   1.771 -0.0699  0.4889 -0.0660
11393W        W31673  16.953   1.428  11.971  0.1514  0.1199 -0.1005
11394W        W31674  16.887   4.609   4.109  0.1980 -0.0612 -0.0324
11395W        W31675  17.037   7.840   2.002  0.0676  0.0888 -0.2543
11396W        W31676   9.000  10.988   0.815 -0.0339 -0.0783 -0.1174
11397W        W31677   4.170   6.611   0.849 -0.1154 -0.0451 -0.0301
11398W        W31678  12.725  15.973   3.088  0.0856  0.0984 -0.3077
11399W        W31679   4.724  16.824  12.631  0.2190  0.1676 -0.0112
11400W        W31680   7.033   3.366   3.664 -0.1078  0.1834 -0.0948
11401W        W31681  13.790   5.590  10.615 -0.0855 -0.1237 -0.3056
11402W        W31682  18.613  10.309  12.115 -0.2932 -0.0778  0.0392
11403W        W31683   7.917  16.638   1.575  0.2195  0.1827 -0.1053
11404W        W31684  17.675   2.453  10.443  0.0745 -0.1434 -0.3293
11405W        W31685   0.607  16.547   1.689  0.1777  0.0128  0.1734
11406W        W31686  18.820  14.771   1.891  0.4755 -0.3291 -0.3709
11407W        W31687   6.226  18.934   3.675  0.2612  0.1785  0.0162
11408W        W31688   3.130  10.607   2.727  0.0743 -0.0337  0.0638
11409W        W31689  16.074   9.284   1.431 -0.2384 -0.2553  0.1678
11410W        W31690   7.484  18.691   0.757  0.0993 -0.0201  0.0678
11411W        W31691  10.095  11.728  10.672  0.0922 -0.1679 -0.3562
11412W        W31692  13.671   7.777   3.096  0.3698 -0.0465 -0.4462
11413W        W31693  11.408   9.595  12.184 -0.0435 -0.1480 -0.2894
11414W        W31694  12.128   1.937   0.325  0.0440  0.3241 -0.1440
11415W        W31695  14.328  12.347  14.026 -0.0645  0.1931  0.1346
11416W        W31696   0.377  19.016  12.843  0.1265  0.0110  0.0412
11417W        W31697   8.457   2.917   1.995 -0.1084  0.0529  0.1668
11418W        W31698  16.434   2.383   9.291  0.2430 -0.1900 -0.1956
11419W        W31699  15.657   3.495  11.823  0.0624 -0.0368 -0.0992
11420W        W31700   6.790  12.024   3.482 -0.0203 -0.2259 -0.1211
11421W        W31701  17.558  15.337  10.436  0.0320  0.0026 -0.4406
11422W        W31702  19.123  16.359   2.280 -0.0587  0.2474  0.1739
11423W        W31703  11.439   4.228  12.584 -0.5243  0.0883  0.1950
11424W        W31704  16.719   9.785   0.515 -0.5719 -0.2081 -0.0287
11425W        W31705   7.193  17.528   0.067 -0.0775  0.0129  0.1127
11426W        W31706   7.005  10.906  10.480 -0.0646  0.0030  0.0691
11427W        W31707   1.829  11.792  12.334  0.0061  0.0017 -0.2774
11428W        W31708   2.563  18.873   0.543 -0.2229  0.2103 -0.1876
11429W        W31709   9.239   0.948  11.740  0.0168  0.4369 -0.3657
11430W        W31710   4.192   1.394   1.523  0.0041 -0.2983  0.1661
11431W        W31711  15.708  10.354   2.963  0.1752 -0.0352 -0.2984
11432W        W31712  19.683   1.114   1.618 -0.0312 -0.0186 -0.0347
11433W        W31713   2.693  17.111  12.985  0.0731  0.1896 -0.1194
11434W        W31714  15.955   2.904  11.337  0.3322 -0.0666  0.1607
11435W        W31715   6.036  19.068   0.128 -0.0858  0.1932 -0.0330
11436W        W31716   6.414  19.744   4.159 -0.0745  0.0559 -0.0947
11437W        W31717  15.818  16.979  12.219 -0.0057 -0.0264  0.0144
11438W        W31718   4.951  16.941   2.178  0.1535  0.2319  0.3241
11439W        W31719   1.946  18.352   1.073  0.1919  0.1261 -0.2657
11440W        W31720   2.816  15.650  12.497  0.2461  0.0281  0.0083
11441W        W31721  17.286   7.862   1.398  0.1094  0.1855 -0.0585
11442W        W31722   0.612  16.147  11.338  0.1196 -0.0746  0.2741
11443W        W31723  17.984  11.920   1.011  0.0801  0.1646 -0.0911
11444W        W31724  13.042  16.724   2.704 -0.1136 -0.2709 -0.1373
11445W        W31725  15.268   2.903   2.785  0.0589  0.0644  0.1557
11446W        W31726   1.776  11.983   1.009  0.2908 -0.1058  0.0198
11447W        W31727   4.440  19.524   2.677  0.3304 -0.2131 -0.0941
11448W        W31728   4.022  12.181  12.308 -0.0507 -0.1424  0.0544
11449W        W31729   0.532  12.588  11.295  0.3684 -0.0486  0.1759
11450W        W31730   2.602   2.616  12.279  0.0770 -0.1272 -0.0465
11451W        W31731  16.297  17.623  13.056 -0.0932  0.1640  0.0612
11452W        W31732  16.502   7.773   2.368  0.0805  0.0393  0.0430
11453W        W31733  16.723  18.558  10.868  0.0972 -0.0122 -0.1227
11454W        W31734   6.840   6.361   3.085 -0.4677 -0.1536 -0.1041
11455W        W31735   2.989  12.775   3.228  0.0061 -0.2487 -0.1678
11456W        W31736  10.292   0.614  11.835 -0.0166  0.0933  0.0263
11457W        W31737  13.093  13.063   0.572  0.0607 -0.0017  0.2460
11458W        W31738  13.816   0.371  10.835 -0.2113  0.1221 -0.2355
11459W        W31739  19.066   4.739   2.280 -0.1486 -0.2103 -0.0141
11460W        W31740   5.209   4.801  11.922  0.0469  0.1153 -0.1852
11461W        W31741  19.725  18.693  13.437 -0.1919 -0.0328 -0.0777
11462W        W31742   6.963  14.217  13.261 -0.2024 -0.0809  0.1013
11463W        W31743  17.461  14.386   0.976  0.1125  0.0229 -0.0034
11464W        W31744   6.431  13.359   0.730 -0.2627 -0.2590  0.3998
11465W        W31745   4.984  12.903   1.578 -0.0802 -0.2789  0.1201
11466W        W31746  14.042  17.547  13.682  0.2363 -0.0610  0.2639
11467W        W31747   6.989  15.060   2.346  0.1812 -0.1934  0.0829
11468W        W31748  18.611  10.482   2.191 -0.0795 -0.0904  0.0408
11469W        W31749   4.235   3.635  10.386 -0.1571  0.1540  0.2837
11470W        W31750   2.887   9.958   9.897  0.0397 -0.3159 -0.1877
11471W        W31751  17.404   9.801  12.756 -0.0170  0.0985  0.0216
11472W        W31752  19.254  12.724  13.199 -0.2628 -0.2928 -0.4662
11473W        W31753  12.525  13.581   3.042  0.0420  0.0168 -0.0357
11474W        W31754   4.435  10.615   2.350  0.0694 -0.1054 -0.5625
11475W        W31755  11.514   4.335   0.830 -0.1660  0.0823 -0.2442
11476W        W31756  17.881   2.320   2.659  0.0203 -0.2867 -0.0428
11477W        W31757   3.959  10.388  11.216 -0.2691 -0.1262  0.1657
11478W        W31758   0.102  18.151  11.825  0.1320  0.3834 -0.3589
11479W        W31759  16.095  11.787  13.840  0.0420  0.1507  0.0593
11480W        W31760   6.435  14.641   1.763 -0.2640 -0.2616 -0.0688
11481W        W31761  12.047   8.486  10.838 -0.1382  0.1111  0.0381
11482W        W31762   6.841   8.161  10.416 -0.0395  0.1575 -0.0316
11483W        W31763  16.975   0.234  13.157 -0.1239  0.0789  0.0140
11484W        W31764   1.862   8.675  10.683  0.0542 -0.2537 -0.1311
11485W        W31765   5.387  13.839   3.099  0.0454  0.4128  0.0981
11486W        W31766  12.562   2.873   0.603  0.0666 -0.0144 -0.0566
11487W        W31767  10.696  12.120   2.988 -0.2542  0.0522 -0.0389
11488W        W31768   2.588  19.197  13.609 -0.0148  0.1476 -0.4298
11489W        W31769  15.264  18.407   0.235  0.2542  0.2013 -0.0778
11490W        W31770   0.421   1.145  12.758 -0.4473  0.0978  0.0462
11491W        W31771   3.638  18.908   2.124  0.1021 -0.0013 -0.0604
11492W        W31772   4.815   4.738  13.994 -0.3207  0.1000  0.2405
11493W        W31773  12.758   0.728   9.763  0.1310 -0.0938 -0.0426
11494W        W31774  19.049  17.632   0.652  0.1953  0.0472  0.1119
11495W        W31775   4.529  13.586   1.022 -0.4092 -0.0076  0.1254
11496W        W31776   6.698  17.621  11.217  0.1306  0.0267  0.1702
11497W        W31777  13.172  11.641   3.796  0.2147 -0.1114  0.0487
11498W        W31778  12.813  13.114   3.063 -0.0393 -0.2911 -0.0961
11499W        W31779   9.021   3.581   9.777 -0.0423  0.2004  0.3288
11500W        W31780   8.983   2.441   0.790  0.0700  0.2752 -0.0604
11501W        W31781  11.765   6.464  11.674 -0.0558 -0.2223 -0.3796
11502W        W31782   5.327   6.972   1.174  0.0255 -0.0537  0.0062
11503W        W31783   1.157  14.354  13.701 -0.2606 -0.1841 -0.2029
11504W        W31784   4.318  13.633  11.692  0.0790  0.2668  0.1813
11505W        W31785   4.930   5.429  13.190 -0.0249 -0.0278 -0.2899
11506W        W31786  17.963   5.763   2.051 -0.2343  0.2405 -0.2974
11507W        W31787  12.675   6.180  10.056 -0.0247  0.1192 -0.0312
11508W        W31788  15.116   2.918  11.605 -0.3301 -0.0261  0.0882
11509W        W31789   8.713  13.350   2.140 -0.0339  0.0343 -0.2905
11510W        W31790  10.050  15.643  11.299  0.1743 -0.0365 -0.0278
11511W        W31791   7.594  18.936   3.522 -0.0025  0.1565 -0.1875
11512W        W31792   3.693  18.362  10.487 -0.2639  0.2464 -0.1199
11513W        W31793  13.806   2.622   2.114  0.5333  0.0398 -0.1196
11514W        W31794   6.106  13.640   0.048  0.1719 -0.3308 -0.1516
11515W        W31795   2.356  17.067   3.117  0.0336 -0.0180 -0.0617
11516W        W31796   1.060  19.432   2.560  0.0397  0.0294 -0.2112
11517W        W31797  16.165  12.862  11.488 -0.2673 -0.0818 -0.0163
11518W        W31798   7.423  13.550  11.581  0.1178 -0.1786 -0.0906
11519W        W31799   6.991  12.656   9.571 -0.1918  0.1921  0.1363
11520W        W31800  17.122   5.682  13.964  0.0653 -0.0614 -0.1546
11521W        W31801   2.136   7.433  11.905 -0.0829 -0.1841 -0.1138
11522W        W31802   5.311  12.198   3.919  0.0904 -0.0180  0.1698
11523W        W31803  18.893  10.267  12.579  0.0941 -0.0047  0.0478
11524W        W31804   0.438   5.330   3.841  0.1526  0.2162 -0.3287
11525W        W31805  11.016   0.752   3.276 -0.0031  0.2117  0.2544
11526W        W31806   3.975   0.097  10.930 -0.1365  0.1354 -0.3433
11527W        W31807  15.359  17.784   0.688  0.0191  0.0796 -0.4496
11528W        W31808  14.624   2.215   0.777 -0.1125  0.1393 -0.2783
11529W        W31809   4.768  13.660  12.685  0.0809 -0.1190 -0.2137
11530W        W31810   4.022  15.194   2.797 -0.2696 -0.1529  0.1858
11531W        W31811   5.374   7.606  10.890  0.1286  0.2610 -0.4442
11532W        W31812  11.866   5.216  12.082 -0.0279  0.0881 -0.4027
11533W        W31813  15.719  17.663   2.762 -0.2189 -0.0696  0.1130
11534W        W31814  14.277   0.252   0.391 -0.2092  0.0230 -0.1471
11535W        W31815   9.300   9.287   4.130  0.2502 -0.3104  0.0266
11536W        W31816   0.104  14.100   2.587 -0.0536  0.2048  0.0862
11537W        W31817   7.109   2.663  12.824 -0.1241 -0.2434 -0.1636
11538W        W31818  15.823   5.685  10.650 -0.0570  0.1572 -0.1830
11539W        W31819   3.717   4.929  11.295 -0.0433  0.0816 -0.1216
11540W        W31820  11.546   0.922  10.370  0.3888  0.1461  0.2064
11541W        W31821  15.022   7.090  13.953  0.2459 -0.0280  0.0718
11542W        W31822  15.564   6.228   2.639 -0.0018 -0.4128  0.0541
11543W        W31823   5.825   6.571  10.563  0.2014  0.0641  0.1949
11544W        W31824   8.178  16.735   0.575 -0.1655 -0.3311  0.0104
11545W        W31825  12.552   2.341  12.805  0.0789  0.0392 -0.0200
11546W        W31826   3.241  13.390  13.979 -0.0507  0.0934 -0.3328
11547W        W31827  15.711  11.387  13.155  0.3490 -0.1895  0.0054
11548W        W31828   9.543  18.674   3.245  0.2051 -0.1153 -0.1319
11549W        W31829  16.186  12.268  14.045 -0.0689  0.0506 -0.0201
11550W        W31830  12.561  13.843   3.494 -0.3342  0.3161 -0.1246
11551W        W31831  18.348   3.650   5.009 -0.0541 -0.1414 -0.0969
11552W        W31832   4.379  13.896   0.637  0.1618  0.1605 -0.2247
11553W        W31833  17.281   4.427   1.691  0.0398 -0.4521 -0.0908
11554W        W31834   3.037   2.654   2.350 -0.0766  0.0989 -0.0229
11555W        W31835  18.827   5.429   1.820  0.2206 -0.3431  0.0695
11556W        W31836  17.299   9.963  10.852 -0.0434 -0.0154 -0.1440
11557W        W31837  12.116   2.106   2.245  0.4309  0.0555  0.0640
11558W        W31838   0.182  13.663  13.827 -0.4043  0.0265 -0.2351
11559W        W31839   2.010   9.121  12.767 -0.3231  0.1449 -0.0790
11560W        W31840  16.397  13.570  11.916 -0.1808 -0.0856 -0.1371
11561W        W31841   4.033   4.708   2.178 -0.3671 -0.1575 -0.0856
11562W        W31842  15.970   8.824   1.630 -0.0261  0.0309 -0.0642
11563W        W31843  16.321   4.423  12.003  0.2653  0.0060  0.0968
11564W        W31844   2.393   8.650  12.699  0.0794  0.1938 -0.1050
11565W        W31845  15.940  13.111  10.535  0.1282  0.2496  0.2854
11566W        W31846   1.830  12.907   2.609  0.2631 -0.0925 -0.0620
11567W        W31847  10.494  11.161  12.714 -0.1114  0.0534  0.1254
11568W        W31848   4.101   3.677   3.708  0.0971  0.0229 -0.1487
11569W        W31849  12.065  12.350   1.905 -0.1265 -0.1397  0.0528
11570W        W31850   7.642  12.129  11.408 -0.0658  0.3501  0.2149
11571W        W31851   2.530  15.574   3.145  0.0680  0.1318  0.1344
11572W        W31852   5.995  16.077   3.717  0.0184  0.1552  0.1128
11573W        W31853  18.844   7.170  10.576  0.0778  0.1526  0.1948
11574W        W31854   9.230   0.397  10.686  0.0641  0.2698 -0.0563
11575W        W31855  17.049  14.768  10.143 -0.0185 -0.0710  0.2768
11576W        W31856  16.910  15.502  13.788 -0.4034  0.1032 -0.3659
11577W        W31857  15.407  15.300   3.434 -0.1665  0.2099  0.1391
11578W        W31858  12.462   4.534  10.458 -0.0750 -0.0108 -0.1951
11579W        W31859   3.744  16.322  12.311 -0.3899  0.1031  0.2830
11580W        W31860  13.196  16.993   1.715 -0.2127  0.1769 -0.0861
11581W        W31861  16.604  13.752  12.436  0.1623  0.0765  0.2676
11582W        W31862  12.114   8.909   1.314 -0.0701 -0.2046  0.0246
11583W        W31863   6.498   1.354   9.139  0.1083  0.0604 -0.0132
11584W        W31864  15.078  12.504  13.615  0.1007  0.2221  0.0362
11585W        W31865   2.759  17.749   2.175  0.1570  0.0744 -0.0567
11586W        W31866   4.179   9.048   0.050  0.2572 -0.0997  0.4303
11587W        W31867   6.716  11.019   3.580 -0.1256  0.4511 -0.1814
11588W        W31868   9.783  13.652  13.915  0.0572  0.1191 -0.0019
11589W        W31869  10.793  16.506  11.653  0.0423 -0.0168  0.1603
11590W        W31870   4.558  11.220  10.731 -0.1390 -0.1034 -0.0438
11591W        W31871  12.679  11.079  12.528 -0.0436  0.0006  0.1132
11592W        W31872  18.990   3.720  10.489 -0.2944  0.1411 -0.1568
11593W        W31873  12.232  11.497   1.865  0.1173 -0.1063  0.1763
11594W        W31874  17.127   4.345   2.866 -0.0278 -0.1101 -0.1629
11595W        W31875  12.654  12.424  12.389 -0.0665  0.1185 -0.0272
11596W        W31876   4.851   8.210   1.645  0.2504 -0.0083  0.0823
11597W        W31877   6.697  12.640   2.987 -0.0681  0.2047 -0.0617
11598W        W31878  13.079   2.850  11.187 -0.1627  0.1153 -0.2106
11599W        W31879   2.713  13.332   3.391 -0.1976 -0.1576 -0.0349
11600W        W31880   5.920   7.568  11.427  0.2575 -0.0779  0.1464
11601W        W31881   2.453  16.061  14.074 -0.0214 -0.2586 -0.1685
11602W        W31882   0.223  10.186   0.336 -0.0291 -0.1852  0.3166
11603W        W31883   9.238   9.749   1.071 -0.0131 -0.0980  0.3329
11604W        W31884  14.479  16.770   1.844 -0.0934  0.1375  0.0671
11605W        W31885   8.567   1.709  13.789  0.1025 -0.3911 -0.2738
11606W        W31886   4.761   2.621   1.404  0.2165  0.1310 -0.2214
11607W        W31887   0.749  18.185   0.283 -0.2028  0.2535  0.1791
11608W        W31888   8.901  15.063   2.611 -0.1348 -0.1543 -0.1251
11609W        W31889  10.988   6.636  13.949 -0.3982  0.0621 -0.1670
11610W        W31890   7.259  13.258  14.011 -0.1354 -0.2349  0.1587
11611W        W31891   1.448  14.425   0.024  0.1711  0.1051  0.0703
11612W        W31892   4.685   7.874  12.780 -0.1721 -0.0272 -0.0008
11613W        W31893   3.431  12.245   2.674 -0.0251  0.1929 -0.1401
11614W        W31894   6.017   9.822   1.026 -0.1843  0.2976  0.2811
11615W        W31895   0.174   8.295   3.763  0.0852  0.2960  0.2491
11616W        W31896   9.064  18.602   0.056 -0.3396  0.2669  0.3962
11617W        W31897   3.245  11.193   4.036 -0.0798 -0.2549  0.2136
11618W        W31898   8.341  13.655   3.886 -0.1790 -0.1487  0.0983
11619W        W31899   0.934   5.806   3.467 -0.1428 -0.1156  0.1080
11620W        W31900   9.733  12.521  10.962  0.0731  0.2212 -0.3325
11621W        W31901  18.790  10.045  13.591 -0.2953 -0.0118 -0.1263
11622W        W31902  16.296  11.309   0.138 -0.0568  0.4482 -0.0430
11623W        W31903  13.178   6.769   1.977  0.0161  0.0975  0.1359
11624W        W31904  14.113  16.380   0.223 -0.3101  0.1222  0.0233
11625W        W31905  19.173  18.224   2.845  0.0625  0.1217 -0.1042
11626W        W31906  19.409  15.673   0.535  0.0472 -0.3367  0.1025
11627W        W31907  15.705   0.403   0.380  0.2635 -0.0131 -0.0962
11628W        W31908   4.318  13.350   1.905 -0.1858  0.1754  0.0464
11629W        W31909  10.513  13.057   1.189 -0.1524  0.2199 -0.1106
11630W        W31910  18.087   0.628  10.929 -0.0967  0.2236  0.2167
11631W        W31911  16.707   9.366   9.869  0.0859  0.2371  0.2300
11632W        W31912  15.403   7.074  10.528 -0.0115 -0.1088 -0.1118
11633W        W31913  14.058   7.044   1.737 -0.2136  0.1274  0.1657
11634W        W31914  16.185   2.801  12.324  0.1572 -0.1333 -0.0678
11635W        W31915   7.522   1.724  11.508  0.1628  0.0136  0.0482
11636W        W31916  12.510   0.872   0.137 -0.0929 -0.0661 -0.2242
11637W        W31917   9.828   2.570   1.179  0.0014  0.0192 -0.1874
11638W        W31918  19.267   2.462   0.140 -0.2094 -0.2917  0.0117
11639W        W31919  15.305   5.073  10.604  0.0786 -0.1102  0.0959
11640W        W31920  16.842  16.293  12.517 -0.0363 -0.0777 -0.0554
11641W        W31921  11.256  15.018   4.330  0.0243  0.2149 -0.0623
11642W        W31922  12.304   4.099   1.646  0.3660 -0.3500  0.0239
11643W        W31923  10.695   5.361  12.795  0.0181  0.0240 -0.0418
11644W        W31924   1.001  16.529  11.922  0.3428  0.0192 -0.1600
11645W        W31925  10.671   3.872  11.013  0.0380 -0.0080  0.2133
11646W        W31926   4.080   6.218   1.169  0.1880 -0.1963  0.2352
11647W        W31927   6.542  18.916   0.070 -0.3807 -0.0333 -0.4747
11648W        W31928   1.104  18.027  11.182 -0.0302  0.2074 -0.2236
11649W        W31929   5.954  19.353   3.448 -0.2696  0.1046  0.1645
11650W        W31930  18.558  12.714  12.870 -0.4801 -0.2349  0.2883
11651W        W31931   7.017   1.045  11.330 -0.0593  0.1153  0.2655
11652W        W31932   0.332  16.963  10.811  0.0553  0.0796 -0.0785
11653W        W31933  14.839  14.915  11.269 -0.0284  0.0045 -0.0041
11654W        W31934   2.750  16.967  12.477  0.0453 -0.1319 -0.3110
11655W        W31935  11.913   1.257   3.134 -0.2032  0.1423 -0.1227
11656W        W31936   5.293  11.310  12.575 -0.0628  0.2556  0.1144
11657W        W31937   4.327  12.842  11.232 -0.2776 -0.2201  0.0667
11658W        W31938  17.398   9.020  13.434  0.2629  0.0724  0.0095
11659W        W31939  12.549   3.646   1.683  0.2330  0.1603  0.0764
11660W        W31940   6.922  16.462  12.239 -0.1562  0.1071  0.0530
11661W        W31941   6.774  10.983   2.676  0.2393  0.2683 -0.1917
11662W        W31942   9.375  12.884   0.555 -0.3180 -0.0462 -0.1230
11663W        W31943  16.683   4.621   2.765  0.0753  0.0484 -0.0526
11664W        W31944  16.192   3.488  13.315  0.0415 -0.1526 -0.1041
11665W        W31945   8.345   2.398  13.175  0.0210  0.3833  0.4046
11666W        W31946  12.332  13.997   4.014  0.3006  0.1519  0.0977
11667W        W31947   7.068   1.827  10.322  0.4469  0.1389 -0.0188
11668W        W31948  11.324   3.131  10.014 -0.1687 -0.2766  0.0210
11669W        W31949  12.466  12.382  12.830 -0.2530 -0.0372  0.4941
11670W        W31950  19.325  17.383  11.787  0.0634  0.1610  0.2210
11671W        W31951  12.286  14.477  13.890  0.0556  0.4153 -0.0651
11672W        W31952  13.554  15.707  12.009 -0.0665  0.4309 -0.1542
11673W        W31953  14.864   6.853   1.403 -0.0324 -0.0738 -0.1330
11674W        W31954   5.218   7.467   1.033 -0.0948 -0.2105 -0.2728
11675W        W31955   6.550  16.831   2.151 -0.1615 -0.1336 -0.1362
11676W        W31956   1.942   6.509   2.141 -0.0017 -0.0964  0.0888
11677W        W31957   0.373   9.733   0.395 -0.0084 -0.0262  0.1734
11678W        W31958   1.519   6.191   0.947  0.0871 -0.3955 -0.2488
11679W        W31959   0.493   7.543   2.140 -0.0382  0.0908 -0.3229
11680W        W31960  16.549  18.461   0.587  0.2608 -0.0895  0.0990
11681W        W31961   9.801   5.836  12.666 -0.0510  0.4254  0.0350
11682W        W31962   8.037   4.934  11.605  0.1990 -0.1504  0.0006
11683W        W31963  11.146   8.731  11.709  0.0638 -0.1130  0.2016
11684W        W31964   1.711  19.146   1.547 -0.2243  0.0063 -0.1888
11685W        W31965  16.235  18.250   3.323  0.0022  0.2950 -0.2584
11686W        W31966  10.277   1.364  11.034  0.0689 -0.1068 -0.1295
11687W        W31967   8.486  18.952  12.876 -0.2334  0.0748 -0.0891
11688W        W31968  12.146   6.135  12.043  0.3271  0.2730 -0.2513
11689W        W31969   0.238   6.613  10.731 -0.0838 -0.4188  0.3403
11690W        W31970  18.657   2.633  11.161 -0.0882 -0.1369 -0.0423
11691W        W31971   4.282  18.925  13.751 -0.0124  0.2411 -0.0520
11692W        W31972   2.863  11.120   1.844 -0.0719 -0.1117  0.2404
11693W        W31973  11.063   1.632  11.520  0.0401 -0.1902  0.0320
11694W        W31974   2.330   0.238  11.444 -0.1176 -0.1492  0.0452
11695W        W31975  12.002  14.270  11.560  0.2963 -0.3429  0.1795
11696W        W31976  12.838   9.462  11.772  0.0550 -0.2685 -0.0201
11697W        W31977  17.264  15.216  11.485  0.3396  0.1954 -0.2615
11698W        W31978  15.544   2.951   0.179 -0.0865  0.2802  0.1554
11699W        W31979   5.596   1.162   8.732 -0.0902 -0.0184 -0.2115
11700W        W31980   9.237   5.772  12.638  0.1533  0.1929  0.0796
11701W        W31981   6.010   7.819  13.036  0.0611 -0.2965 -0.0778
11702W        W31982   0.417   5.468   2.182 -0.2348  0.1409 -0.1547
11703W        W31983   6.628  14.227  11.010 -0.1011 -0.0605 -0.2186
11704W        W31984   0.991  15.276  11.838  0.0481  0.1483 -0.0737
11705W        W31985   7.627  15.372   0.399 -0.0093 -0.1985 -0.5447
11706W        W31986   1.971   6.938  12.702 -0.0144 -0.2569  0.1215
11707W        W31987  11.569   2.384   3.422  0.0459 -0.2947 -0.1252
11708W        W31988  17.385   2.527   0.643  0.1801  0.2224 -0.0022
11709W        W31989   2.890  17.050   1.278  0.0710  0.1301  0.1668
11710W        W31990   0.591  10.470  13.644 -0.0374  0.2402  0.2294
11711W        W31991  13.934  15.526  13.705  0.0600 -0.2468  0.1348
11712W        W31992  14.173   6.765   1.250  0.0558 -0.1170  0.2699
11713W        W31993   0.418   8.724   0.829  0.4226 -0.1281 -0.1376
11714W        W31994   9.738  13.773   3.964 -0.2847 -0.2836 -0.1448
11715W        W31995   0.317  17.985  12.292 -0.2202  0.1004  0.1336
11716W        W31996  13.345   0.189   9.253  0.0241  0.1160 -0.0818
11717W        W31997  11.008  13.962   1.070 -0.0917  0.1513 -0.1437
11718W        W31998   9.502  11.117   2.147  0.1314 -0.0840  0.0632
11719W        W31999   9.818  15.888  12.356  0.4065  0.1990  0.1798
11720W        W32000  10.164   3.220   1.782  0.0812  0.1024 -0.1747
11721W        W32001  19.546  19.560  10.667 -0.1513  0.2054 -0.3976
11722W        W32002  12.100   4.811   1.965  0.1270  0.0006 -0.2324
11723W        W32003   8.539   1.375   1.522 -0.1005  0.2799  0.1291
11724W        W32004   6.186   9.883   1.995  0.0513  0.3024  0.0553
11725W        W32005   4.993   3.240  11.910 -0.0319 -0.1603 -0.2059
11726W        W32006   8.104   0.242   1.799 -0.1584 -0.5223 -0.2009
11727W        W32007  18.687   5.655   3.453  0.2895 -0.0877 -0.3068
11728W        W32008   1.517  14.411   5.002  0.1309  0.1724 -0.0070
11729W        W32009  10.971   9.971  13.577 -0.0552  0.2515  0.1825
11730W        W32010   8.250   5.838   2.512 -0.1957 -0.0614  0.2383
11731W        W32011   4.580   4.751   9.446  0.0951  0.0347 -0.1173
11732W        W32012  11.615  12.070   1.898 -0.0471 -0.5443  0.1712
11733W        W32013  11.461   3.863  10.094  0.0027  0.1388 -0.1489
11734W        W32014   0.625   7.098   3.457  0.3345 -0.4412 -0.0910
11735W        W32015   7.205  16.048   0.072  0.1292 -0.1548 -0.4663
11736W        W32016   7.714   5.635  13.583 -0.3043  0.0927  0.0278
11737W        W32017  18.489  11.513  13.186 -0.2017 -0.0756 -0.1730
11738W        W32018   5.036   9.770   0.396 -0.0590 -0.2313  0.1832
11739W        W32019  13.977  10.330  11.894 -0.0369  0.2737  0.0743
11740W        W32020   0.878   5.506   2.378 -0.1361  0.1040 -0.3059
11741W        W32021  16.834  15.495  13.277  0.0486 -0.0283  0.0373
11742W        W32022   3.554   9.086   0.964 -0.1385  0.0916  0.2802
11743W        W32023   2.679   9.790  11.090 -0.1168 -0.0891  0.0712
11744W        W32024   6.916  10.232   3.288  0.2435 -0.2593 -0.1607
11745W        W32025  11.604   3.602   2.715  0.2807  0.2908 -0.0286
11746W        W32026  15.632   9.698   4.808  0.1986 -0.0109  0.3251
11747W        W32027  13.487   0.669  11.048 -0.1350 -0.3076  0.0271
11748W        W32028  17.814   1.349   1.639 -0.0585  0.0386  0.1454
11749W        W32029   2.679   7.510   1.994 -0.0788 -0.0012  0.2064
11750W        W32030   1.576   4.243  12.386  0.0783 -0.1374 -0.0214
11751W        W32031   6.020  17.563   3.404  0.2513  0.0395 -0.0749
11752W        W32032  14.518  15.834   1.637 -0.0247 -0.0136 -0.1373
11753W        W32033  10.061   0.105  11.756 -0.0865 -0.0596 -0.2634
11754W        W32034   3.081   7.962  10.749 -0.0160 -0.2049 -0.2682
11755W        W32035   7.958  12.458   3.450  0.0615  0.0461  0.2553
11756W        W32036  10.005  11.421   2.554  0.0481  0.0252  0.3756
11757W        W32037  18.929   7.343  13.840 -0.2237 -0.2844 -0.0679
11758W        W32038   8.768   3.964  12.121 -0.0706 -0.0594 -0.0006
11759W        W32039   4.795  14.460  10.676 -0.1067 -0.1149 -0.0232
11760W        W32040   4.868   8.513   0.895  0.1143 -0.4390  0.0549
11761W        W32041  17.991   4.639   4.384 -0.2143 -0.2035  0.3516
11762W        W32042   0.146  14.924  12.013  0.0766  0.0406 -0.1956
11763W        W32043   2.044   2.745  11.191  0.1354  0.1546  0.1175
11764W        W32044   3.577   5.419   0.941 -0.1374  0.2267  0.0922
11765W        W32045  17.205   3.375   3.210  0.2234 -0.1607  0.1399
11766W        W32046   2.493  10.317  12.188  0.2159  0.0118 -0.1459
11767W        W32047   6.267   1.230  10.064  0.1395 -0.2027 -0.0997
11768W        W32048  15.586   9.154  13.060 -0.1437 -0.0285  0.0891
11769W        W32049   2.892  19.221  10.557 -0.3689  0.1050 -0.0311
11770W        W32050   1.651  15.701  10.828 -0.0035 -0.0227 -0.2111
11771W        W32051  14.042  14.161   0.398  0.1849  0.2083 -0.1183
11772W        W32052  12.242  17.380   1.916 -0.3182  0.2204  0.1546
11773W        W32053   2.602   2.398   0.147 -0.0443 -0.1910  0.1733
11774W        W32054   6.259   7.101   0.973  0.0467  0.0920 -0.0689
11775W        W32055   8.887   1.480   0.326  0.2226  0.1073  0.0847
11776W        W32056   1.729  11.785  13.733  0.1425  0.1443 -0.1515
11777W        W32057  14.942   4.755   1.358  0.0235  0.1813  0.3412
11778W        W32058  12.653   4.236  12.716 -0.0780  0.1728  0.0061
11779W        W32059  16.497   0.739  11.978  0.0634  0.0679 -0.1563
11780W        W32060   4.203   2.172   1.970  0.1840  0.1786  0.2685
11781W        W32061   7.003   3.086  13.078  0.0483  0.0843 -0.1873
11782W        W32062  15.796   8.729  13.435  0.0587  0.0625 -0.1691
11783W        W32063  12.491   3.179  11.776 -0.2062 -0.2385  0.0043
11784W        W32064  11.156   7.835  11.065 -0.0327 -0.2389  0.0503
11785W        W32065   9.434  14.432  11.435 -0.3174  0.0815  0.0216
11786W        W32066   5.381   0.598  12.969  0.3088 -0.1616 -0.0051
11787W        W32067   0.426  14.175   2.189 -0.4841  0.1234 -0.1008
11788W        W32068   7.723  11.760  12.626  0.0223 -0.0415  0.1104
11789W        W32069  10.246  13.794  12.989 -0.0970 -0.2003 -0.3269
11790W        W32070  17.544  17.825  10.212 -0.2075  0.0963 -0.0826
11791W        W32071  16.487   9.387  12.600 -0.0929 -0.0516  0.0076
11792W        W32072   1.408   2.911  10.499 -0.0162  0.0649 -0.1202
11793W        W32073   4.006  10.840  11.475 -0.1195  0.1885  0.0390
11794W        W32074   6.976   0.046  11.094  0.2770  0.4070  0.0209
11795W        W32075   6.827  10.586   0.549  0.0042  0.2062  0.1488
11796W        W32076  17.729  11.271  10.899 -0.0861  0.0338  0.3678
11797W        W32077   7.017  18.053  11.795  0.0497  0.0583 -0.0087
11798W        W32078   6.784  11.556   0.441  0.4270  0.0892 -0.0118
11799W        W32079   8.987  10.812  13.491 -0.0512 -0.2201  0.6028
11800W        W32080  12.362  18.215   4.428 -0.1640 -0.1458  0.1089
11801W        W32081  15.440  18.872   9.539  0.1222  0.0157  0.0441
11802W        W32082   5.252   9.933  11.909 -0.2213  0.2411 -0.4112
11803W        W32083   8.325   5.160  10.545  0.1128 -0.3647  0.1023
11804W        W32084  16.050  10.578   2.670 -0.1446 -0.1259 -0.2307
11805W        W32085   0.571   5.544  10.655  0.1121 -0.1157 -0.0953
11806W        W32086   0.179  11.094  10.769 -0.5452 -0.1340  0.3371
11807W        W32087   8.509   1.916  12.619  0.0050 -0.0299  0.0175
11808W        W32088  14.719  16.450   0.922 -0.1896  0.1263 -0.0085
11809W        W32089  18.242  14.780   1.035  0.2761  0.0220 -0.1584
11810W        W32090   6.521  14.479   3.110 -0.0056 -0.2542 -0.0888
11811W        W32091   6.679   7.635   0.013  0.2584 -0.1050 -0.2717
11812W        W32092   0.673  18.227  11.426 -0.1048 -0.0929 -0.1915
11813W        W32093   1.428   6.806  12.580 -0.0373 -0.0231  0.0756
11814W        W32094  10.808  10.868   3.775 -0.0943 -0.1742  0.1107
11815W        W32095  12.375   7.774  10.623 -0.0991 -0.1001  0.0762
11816W        W32096  10.430  17.977   0.708 -0.3889 -0.1281 -0.0667
11817W        W32097   4.328  13.067   0.770 -0.1599 -0.2265  0.0107
11818W        W32098  13.714   0.683  12.223  0.5163  0.0264  0.1448
11819W        W32099  17.667   3.386  10.295  0.0274 -0.3222 -0.2579
11820W        W32100  18.130  17.364   4.222  0.2407  0.1252  0.1427
11821W        W32101  17.480  13.690  10.930 -0.2150  0.1147 -0.0901
11822W        W32102   4.221   4.705   0.540 -0.0018  0.0638 -0.2113
11823W        W32103   2.191   5.586   0.120 -0.0070 -0.3799 -0.2927
11824W        W32104  18.043   4.129  12.483  0.0095 -0.2954  0.1457
11825W        W32105  11.063  12.744   1.703 -0.2575 -0.0161  0.2301
11826W        W32106  11.067   4.691   2.253 -0.0737 -0.2303 -0.0581
11827W        W32107   8.080   1.720  14.042 -0.0395  0.3494  0.0890
11828W        W32108   9.488   0.413   1.081 -0.1449 -0.2954  0.3218
11829W        W32109  19.572   4.889  10.774  0.1361 -0.2828  0.0493
11830W        W32110  14.153  17.459  12.457  0.0688 -0.3289  0.0921
11831W        W32111  16.812  19.546   3.483  0.1592  0.1641  0.2945
11832W        W32112   9.522   8.654  13.815 -0.0000  0.0568 -0.0858
11833W        W32113  12.527   1.585   1.674 -0.3740 -0.2524  0.1397
11834W        W32114  19.385   3.446   2.260 -0.1127 -0.0873  0.0530
11835W        W32115  11.737   0.229  10.527 -0.1913  0.1926 -0.3066
11836W        W32116   1.091   8.915  12.220 -0.1181 -0.0780  0.0021
11837W        W32117   0.940  15.150  14.043  0.0595  0.0566 -0.0953
11838W        W32118   5.811   5.086   0.788  0.1442 -0.0849 -0.1146
11839W        W32119  16.524   4.738   0.619 -0.1015  0.0535  0.2798
11840W        W32120   8.547   1.901   3.523 -0.1448  0.2463  0.0902
11841W        W32121  15.282  10.478  12.713  0.0291  0.0917  0.1396
11842W        W32122  12.989  18.634   2.713 -0.0589 -0.0793 -0.0593
11843W        W32123   4.553  19.735   1.169 -0.0756  0.0425 -0.0617
11844W        W32124  12.438   9.926   2.869 -0.0007  0.1940 -0.0917
11845W        W32125  10.704  10.639   2.902 -0.0713 -0.0433 -0.4442
11846W        W32126  11.994   7.670   1.857 -0.0932 -0.2196 -0.2036
11847W        W32127  17.226  15.767   1.076 -0.0267 -0.2454 -0.3537
11848W        W32128  13.913   5.566   1.217  0.1124 -0.0053 -0.0720
11849W        W32129   7.242  11.518   0.236  0.1614 -0.1936 -0.1914
11850W        W32130   9.029  18.186  12.835  0.3932 -0.1348 -0.0656
11851W        W32131  17.050   9.803  13.163  0.3515 -0.2196  0.0229
11852W        W32132  10.273  15.566  12.248 -0.0228 -0.1503  0.0987
11853W        W32133  12.193  14.997  12.351  0.1341 -0.3137  0.0920
11854W        W32134   9.554   5.435   1.520  0.0902 -0.0843 -0.0673
11855W        W32135  16.782   4.721   9.792  0.0649 -0.0135 -0.0874
11856W        W32136   7.625   8.411   1.006  0.0407 -0.2035 -0.1989
11857W        W32137  11.493   6.258   2.609 -0.1819  0.0845 -0.0201
11858W        W32138   3.540   8.804  10.800  0.1548 -0.1414 -0.3381
11859W        W32139  15.857  18.522  11.594  0.0634 -0.0309  0.0225
11860W        W32140  17.245   8.298   2.803 -0.2125 -0.1445  0.0677
11861W        W32141   1.350   4.777  13.417 -0.0328  0.3312  0.1435
11862W        W32142  10.630   8.309  11.471 -0.3226  0.2595 -0.1872
11863W        W32143  17.346  18.678  10.445  0.0767 -0.0770  0.0496
11864W        W32144  18.005   1.389   2.610  0.2755 -0.0022  0.0670
11865W        W32145  18.876  17.969   9.290 -0.2156 -0.0014 -0.0180
11866W        W32146   2.147  11.819  11.970 -0.3260  0.0692  0.0434
11867W        W32147  13.333  10.546   0.453 -0.0144 -0.2348  0.0116
11868W        W32148  12.413   1.554  11.735 -0.0062  0.0987  0.0821
11869W        W32149   6.799  15.240  11.742 -0.0037 -0.2436 -0.0930
11870W        W32150  10.570   8.189   3.900  0.0813  0.1680 -0.0673
11871W        W32151  15.341   0.804  11.361  0.1662  0.1286 -0.1404
11872W        W32152   2.769   1.788  12.581 -0.0155 -0.0965  0.0376
11873W        W32153   3.127  11.604  13.693 -0.1707 -0.1809 -0.3657
11874W        W32154  11.426  14.468  10.815 -0.1341 -0.2338  0.0029
11875W        W32155  12.569   9.521  10.819 -0.2650 -0.2697  0.2220
11876W        W32156   2.489  15.740  12.875 -0.1854  0.0184 -0.0565
11877W        W32157   4.720   0.736   0.298 -0.1379  0.0871 -0.0139
11878W        W32158   9.514  13.280   3.048 -0.1932  0.0935 -0.0760
11879W        W32159   3.111   7.706  10.349  0.1221  0.3646  0.0980
11880W        W32160   8.791   6.093   9.450 -0.1289 -0.2051 -0.2633
11881W        W32161  12.054  11.606  12.586  0.2118  0.1447  0.0252
11882W        W32162   0.444  12.773  10.166  0.3271  0.2924 -0.1416
11883W        W32163   5.173  14.821  10.702 -0.0332  0.0073 -0.0180
11884W        W32164  11.544  10.754   1.394 -0.0523 -0.1578 -0.1380
11885W        W32165   6.913   8.248  13.292 -0.0710  0.1195  0.2995
11886W        W32166   5.225  16.520   3.876 -0.1969  0.0876 -0.0682
11887W        W32167   1.926   5.205  11.103 -0.1648  0.0910  0.0762
11888W        W32168   0.155  11.591   1.013  0.3271  0.1361  0.0128
11889W        W32169  12.675  11.931   4.490 -0.0649  0.2679  0.2545
11890W        W32170   8.781   8.526   2.147 -0.0612 -0.0283 -0.0494
11891W        W32171   6.736   3.325  12.155 -0.1205 -0.3624  0.1585
11892W        W32172  11.992   6.971  12.569 -0.0217 -0.3355 -0.0192
11893W        W32173   6.410   9.385   3.379  0.0627  0.0688 -0.1071
11894W        W32174   5.585  16.708   0.803  0.2314  0.2165  0.0471
11895W        W32175  17.905   2.367  14.089  0.2736  0.1093  0.3370
11896W        W32176   8.862  14.702  10.770  0.0394  0.0426 -0.1721
11897W        W32177   2.228   4.167   2.915 -0.2044 -0.2539  0.2305
11898W        W32178   9.653  16.114   0.477  0.3132  0.0705  0.2914
11899W        W32179  11.726  11.114  10.746  0.1715 -0.3032 -0.0115
11900W        W32180   4.487   9.906   1.755 -0.1298  0.3966 -0.2978
11901W        W32181   9.136   1.207   9.685  0.3401  0.0021 -0.1287
11902W        W32182   2.534  11.612   0.851 -0.0363  0.2627 -0.0411
11903W        W32183   3.459   0.047  12.688  0.1908  0.0502 -0.1589
11904W        W32184   2.059   8.917   0.950 -0.0935  0.1073 -0.0677
11905W        W32185   5.546   2.165   1.388  0.1191  0.0860 -0.0238
11906W        W32186  14.369   8.453   2.686  0.2501 -0.2207 -0.0343
11907W        W32187  19.040   6.762   2.137  0.0539  0.1105  0.0188
11908W        W32188   3.830   1.464   2.832  0.2873  0.0256 -0.0515
11909W        W32189   9.243   4.629   1.408 -0.0941 -0.0442  0.2983
11910W        W32190   7.652  15.952   0.360 -0.3733  0.3484 -0.2824
11911W        W32191   9.719   3.002  12.478  0.0124  0.1386  0.0449
11912W        W32192  17.111   2.775   2.403  0.1867  0.0802  0.0064
11913W        W32193   3.979  14.735   0.357  0.0110 -0.0079  0.1613
11914W        W32194  18.377  19.159  10.833 -0.1622 -0.1236  0.1248
11915W        W32195  17.466  12.713  13.952 -0.2350 -0.0721  0.1676
11916W        W32196   0.334   6.557   0.774 -0.0287 -0.2752 -0.0520
11917W        W32197   7.334   9.228  13.266  0.1275  0.0247 -0.0665
11918W        W32198   5.138  14.520  11.139  0.0140  0.0716  0.0893
11919W        W32199  11.047   8.813  13.807  0.2235  0.2472  0.0950
11920W        W32200  14.293   3.058   2.344  0.1888  0.0938 -0.0661
11921W        W32201  16.268   1.353   2.543  0.1090  0.0866  0.0765
11922W        W32202   2.257  18.008   0.843  0.1170 -0.0060 -0.3696
11923W        W32203  16.347   7.919  13.906  0.1977  0.4516  0.3556
11924W        W32204   1.601   1.477   0.282 -0.0959 -0.0739 -0.0983
11925W        W32205  15.534   0.381   4.920 -0.0237 -0.1905  0.2675
11926W        W32206   9.933   9.521  10.838  0.0202 -0.1038  0.2737
11927W        W32207  14.158  18.873  10.334  0.1400 -0.2211  0.1193
11928W        W32208   8.059   5.157  11.110 -0.1220  0.1171  0.2101
11929W        W32209  15.830  10.721   3.917 -0.1324  0.0446 -0.3260
11930W        W32210   5.258   0.781  10.915  0.1705  0.0312  0.0621
11931W        W32211  12.600  17.049  10.819 -0.0428 -0.0139 -0.0026
11932W        W32212  14.278   8.142  13.367  0.2158  0.1580 -0.2831
11933W        W32213  14.504  14.225   1.783 -0.1360 -0.1791 -0.0300
11934W        W32214  10.750   2.885   1.259  0.1350 -0.0233 -0.2553
11935W        W32215  13.460  14.924   2.624 -0.5005  0.0774 -0.0764
11936W        W32216   3.046  19.200  13.734 -0.1194  0.0753 -0.2896
11937W        W32217  17.546  13.895   3.620  0.1656  0.1462  0.2663
11938W        W32218  11.952  13.531   0.173 -0.1036 -0.2021 -0.0960
11939W        W32219   5.844  19.578   0.188  0.2511  0.0214  0.0479
11940W        W32220   1.440   0.680   0.213 -0.4697 -0.2177 -0.2779
11941W        W32221  13.413  11.106   3.610 -0.0782  0.0451 -0.0717
11942W        W32222  17.154   3.728  11.061  0.0624  0.0197  0.0276
11943W        W32223  12.112   1.617   1.894 -0.1640 -0.2172 -0.1228
11944W        W32224   4.755  13.438  14.036 -0.0466 -0.1467  0.1778
11945W        W32225  19.565   9.984  11.141 -0.1354  0.0802 -0.1098
11946W        W32226   6.876   5.526  10.961 -0.1668 -0.2332  0.0889
11947W        W32227   6.865  14.588   3.929  0.2538  0.0000  0.2264
11948W        W32228   4.315  10.009  11.559  0.0861  0.1017  0.1131
11949W        W32229  14.972  16.421  14.047  0.1716 -0.4142 -0.1421
11950W        W32230  13.390   8.353  11.410  0.1581  0.2471  0.2750
11951W        W32231  11.596  13.714   3.454 -0.0480  0.0759 -0.2943
11952W        W32232  12.062   9.893   1.610 -0.1030  0.0073  0.0089
11953W        W32233   5.536  17.369  11.288 -0.1111 -0.0922  0.0654
11954W        W32234  16.026  19.628   2.395  0.0869 -0.1010 -0.1398
11955W        W32235  13.831  17.105   0.480 -0.1389  0.1095 -0.0328
11956W        W32236   8.304  16.290  12.186 -0.1522  0.4139  0.1317
11957W        W32237   2.532   7.861  12.884  0.0811 -0.3424  0.0283
11958W        W32238  13.434   9.925  12.406 -0.1543 -0.0478 -0.2316
11959W        W32239  19.580  11.091   0.120 -0.3586 -0.0298  0.0082
11960W        W32240   3.040  14.135  13.653  0.1810 -0.0892 -0.1859
11961W        W32241  17.476   5.089  10.571  0.2050  0.1188  0.0458
11962W        W32242  10.159   9.111   2.493 -0.2284  0.2454  0.1408
11963W        W32243  13.542   7.204  11.605  0.0815  0.0378 -0.1175
11964W        W32244  18.892   2.293   1.832  0.1481  0.0554  0.0560
11965W        W32245   6.046  17.842  12.718  0.1066 -0.6793 -0.2092
11966W        W32246   0.433   2.671  11.860 -0.1202  0.3948 -0.1107
11967W        W32247   0.422  17.263   9.210  0.1198 -0.3939  0.0548
11968W        W32248   7.724  11.325  10.908  0.0033  0.0509 -0.1183
11969W        W32249   4.831   5.208  10.112  0.0401  0.3338 -0.1657
11970W        W32250  18.381  13.279  13.049  0.1483 -0.0441  0.0328
11971W        W32251   6.006   8.119   0.122 -0.0068  0.1002 -0.1862
11972W        W32252  18.269   9.247  12.976  0.0026  0.0375  0.1406
11973W        W32253  10.135  13.954   3.369 -0.2353 -0.1367  0.0165
11974W        W32254  19.308   7.398  10.674  0.1314 -0.4300 -0.0490
11975W        W32255  17.892  10.664   0.914 -0.0871  0.0362  0.3061
11976W        W32256  13.814   6.245  12.405  0.0084 -0.2448  0.0209
11977W        W32257  14.286   1.544  10.654 -0.0230  0.5511 -0.1441
11978W        W32258  17.917  12.965  10.483 -0.0006 -0.0587  0.2794
11979W        W32259  11.582  12.986   9.317 -0.1926  0.3589  0.3924
11980W        W32260  19.727   5.511   2.761  0.3150  0.0721 -0.2253
11981W        W32261  12.177  15.777   2.547 -0.0323 -0.0929 -0.1359
11982W        W32262   3.094   6.303   3.121  0.0435  0.1001 -0.1427
11983W        W32263   8.666   9.060   2.109  0.0338 -0.1356 -0.1014
11984W        W32264   2.831  17.573   4.578 -0.2557 -0.2719 -0.1289
11985W        W32265   1.202  17.033   1.372 -0.1898 -0.1315 -0.2574
11986W        W32266   4.502   2.134   2.368  0.0545 -0.0449  0.5015
11987W        W32267  15.298  19.391  12.731  0.3587 -0.3344  0.0457
11988W        W32268   4.964   6.428  11.538  0.2598  0.1060 -0.1573
11989W        W32269   6.555  18.717   0.529 -0.0419 -0.0473 -0.2785
11990W        W32270   2.249   0.220   0.061  0.1191  0.2648 -0.0188
11991W        W32271   1.744   1.193   0.998 -0.0678  0.2464  0.1214
11992W        W32272   0.402   6.054   4.116  0.1711  0.3425  0.1304
11993W        W32273   7.105   8.196   9.555 -0.0853 -0.1503  0.0539
11994W        W32274  15.338   4.558   3.417 -0.3204 -0.0316 -0.3413
11995W        W32275   7.780   0.815  12.880  0.2566  0.0193 -0.1912
11996W        W32276  17.710  17.909  12.817 -0.0289  0.1894  0.0052
11997W        W32277   6.688  14.805   0.304  0.0034  0.2842 -0.2032
11998W        W32278  10.450   3.136  13.394 -0.1164  0.4147 -0.3365
11999W        W32279  14.523   5.461  11.840 -0.2007  0.1812 -0.0876
12000W        W32280   3.388  13.386   3.940  0.1932  0.0423  0.0934
12001W        W32281   1.970   3.017   0.348  0.0645  0.0457 -0.0658
12002W        W32282  16.423   4.246  13.994 -0.1695  0.1541 -0.3032
12003W        W32283   8.427   6.845  11.303  0.0007 -0.0839 -0.1312
12004W        W32284  16.329  10.164   0.983 -0.0637 -0.0008  0.0393
12005W        W32285  14.465   4.069   3.590  0.2391  0.1287  0.0271
12006W        W32286  17.804   5.382   2.502 -0.1696 -0.3254  0.1402
12007W        W32287   7.616  11.715   2.913  0.1885 -0.0026  0.0613
12008W        W32288   4.261   2.583   2.273 -0.1081  0.0922 -0.0211
12009W        W32289  17.024  13.076   3.809  0.1492  0.2978  0.0163
12010W        W32290   3.017  15.500  13.863  0.0312 -0.1368  0.2194
12011W        W32291  18.611   0.062   3.509 -0.0398 -0.0036  0.2341
12012W        W32292  17.115   8.177   0.976 -0.0210  0.0820  0.0412
12013W        W32293  17.577  14.006   2.609  0.2667  0.0083  0.1137
12014W        W32294   2.430   6.631   3.928  0.0541  0.0072  0.0110
12015W        W32295   9.796  13.629   2.482 -0.2755 -0.1333 -0.2486
12016W        W32296  12.365  10.234   3.230 -0.0973  0.0588  0.0535
12017W        W32297   3.723  10.729   0.706  0.2008 -0.1193  0.3136
12018W        W32298  14.036   4.409  10.677 -0.1360  0.2920 -0.2344
12019W        W32299   5.077   9.726  10.878  0.1861 -0.0272  0.2257
12020W        W32300   9.343   7.554   3.227 -0.0517  0.3021 -0.1693
12021W        W32301  14.350   4.665   0.094 -0.0470  0.1841 -0.0127
12022W        W32302   1.941   3.812   0.927  0.2556  0.1057  0.2570
12023W        W32303  18.555   3.234   0.255 -0.2378  0.2558 -0.2855
12024W        W32304   5.752  14.162   4.059 -0.1634  0.0651 -0.0816
12025W        W32305  10.184   7.489   1.316 -0.0716  0.3141  0.3759
12026W        W32306  18.931  14.802  11.900  0.1581 -0.0502  0.1158
12027W        W32307   4.849   9.235   1.184  0.0618 -0.1040 -0.3496
12028W        W32308  17.208   3.489   2.390  0.3275  0.2322 -0.2690
12029W        W32309  14.216   5.289  11.394  0.1422  0.5201 -0.0459
12030W        W32310  12.639  18.302   0.436  0.4428  0.0644 -0.3983
12031W        W32311  13.863  16.950   2.435 -0.0006 -0.2296  0.0200
12032W        W32312  18.850  10.271  11.603 -0.0969 -0.0337 -0.1189
12033W        W32313   1.718   6.876   1.167  0.0911  0.2549  0.0523
12034W        W32314   3.059  14.937   2.048 -0.1748 -0.3482 -0.2396
12035W        W32315  13.132  12.612   2.988  0.1395 -0.1194  0.4380
12036W        W32316   0.459   8.379  12.409  0.0644  0.2281 -0.2147
12037W        W32317   0.176  11.387   3.219 -0.2857  0.1017 -0.2296
12038W        W32318  18.904  12.419   1.262  0.0155  0.1872  0.2690
12039W        W32319  14.913   4.020  13.910  0.4647  0.2518 -0.0725
12040W        W32320  14.832  13.266  11.231  0.0862 -0.3138 -0.0775
12041W        W32321   4.219   9.751  13.485  0.0329  0.2222 -0.2047
12042W        W32322  19.260  19.383   0.690  0.1946 -0.1381 -0.0996
12043W        W32323   2.393  12.474   0.948 -0.1936 -0.0294 -0.3538
12044W        W32324   1.137  14.134  11.942 -0.1987 -0.0650 -0.0475
12045W        W32325   6.617  19.696  13.700 -0.1231  0.0318  0.2674
12046W        W32326   2.599  10.285   9.479 -0.2598  0.0756 -0.0862
12047W        W32327   7.855   0.637   3.187  0.0405 -0.2107  0.2650
12048W        W32328   3.123  11.125  13.681 -0.1015  0.3594 -0.1083
12049W        W32329   8.774  13.698   0.460 -0.1024 -0.1718  0.4301
12050W        W32330   4.432   2.049  13.253 -0.0169 -0.0647  0.2385
12051W        W32331   2.179   7.270  13.658  0.1837 -0.2257 -0.1499
12052W        W32332  10.725   4.866   3.011  0.3995 -0.0176 -0.0189
12053W        W32333   5.759   6.725   1.953 -0.0231  0.1942  0.0588
12054W        W32334   7.409  13.982   1.542  0.0781 -0.1103 -0.1377
12055W        W32335  13.816  12.848   0.462  0.3784  0.1798  0.1080
12056W        W32336   6.564  14.124   1.797  0.4206  0.2159  0.1694
12057W        W32337   7.593   1.811  11.025 -0.0294  0.1732  0.0682
12058W        W32338  12.158  17.973  12.161  0.2777  0.0073  0.1061
12059W        W32339  12.900   6.066  13.105  0.0548  0.0928  0.0553
12060W        W32340   6.276  11.942  11.672 -0.3180 -0.1007 -0.2204
12061W        W32341  14.505   1.978   0.023  0.3967 -0.2164 -0.1790
12062W        W32342   9.503   1.066  13.937  0.0481  0.0475  0.1909
12063W        W32343  18.095   7.237   3.702  0.0154 -0.2768 -0.0805
12064W        W32344  10.593  10.621   1.691  0.2335 -0.1101 -0.0077
12065W        W32345  18.802  18.865   1.999 -0.0569 -0.1129 -0.0772
12066W        W32346   6.434   0.685  10.218  0.3963 -0.0171  0.1058
12067W        W32347   0.373  15.839   0.871 -0.1950 -0.1142 -0.1525
12068W        W32348   0.064  12.845   3.019  0.0265  0.2155  0.1552
12069W        W32349  12.349   9.830  11.235  0.0081 -0.0562  0.0320
12070W        W32350   0.628   5.578   4.229 -0.1352 -0.1570 -0.0645
12071W        W32351  15.300   4.417  12.283  0.4373 -0.0163  0.3087
12072W        W32352  14.485   0.228  10.261  0.1395 -0.3904  0.3389
12073W        W32353  17.252   3.121  11.127 -0.1795 -0.0726 -0.0712
12074W        W32354  10.325   2.061  10.851  0.0465  0.3511  0.0967
12075W        W32355  11.776  15.942  12.366 -0.0061 -0.2184 -0.1365
12076W        W32356  18.475   3.802   0.146 -0.2641  0.1340  0.0569
12077W        W32357   7.159   5.020  13.314  0.2419 -0.3033  0.1977
12078W        W32358   0.877  19.275   1.713  0.1470 -0.1687 -0.1853
12079W        W32359   9.767   5.133   4.722  0.0412 -0.1321  0.2320
12080W        W32360  11.261  14.514   0.727 -0.0023 -0.1276  0.2520
12081W        W32361   1.316   5.814  13.377  0.0803  0.1505  0.2187
12082W        W32362   5.377   9.699  13.655  0.1070  0.2384  0.1097
12083W        W32363   9.731   5.739  11.670  0.2762 -0.0959  0.0006
12084W        W32364   3.827   2.350   0.884 -0.0988 -0.2303 -0.1819
12085W        W32365  15.888  18.866  11.160  0.0162  0.1667 -0.0628
12086W        W32366  12.124   7.464   9.277 -0.1199  0.0995  0.0800
12087W        W32367  17.528   0.691   2.108  0.1370 -0.2231 -0.0020
12088W        W32368   1.402  16.657  12.292  0.0321  0.1928 -0.3121
12089W        W32369  13.143  12.858  13.584 -0.2741 -0.1769 -0.1323
12090W        W32370  11.816   0.900   2.744  0.2438 -0.0926  0.1379
12091W        W32371  14.974  16.664  11.799  0.1892 -0.1031  0.0214
12092W        W32372  18.304   9.810  10.925 -0.0103  0.1473 -0.0751
12093W        W32373  16.777  11.668   1.913 -0.1212 -0.2029  0.0357
12094W        W32374  18.879  18.388  10.910 -0.1707 -0.0422 -0.2830
12095W        W32375  17.654   1.195  12.567  0.0903 -0.0354  0.1867
12096W        W32376   8.592   7.943   0.704  0.2306  0.0528  0.3369
12097W        W32377  16.886  16.329  11.125  0.0905 -0.0135  0.1545
12098W        W32378  14.844  16.276  10.348 -0.2924  0.1147 -0.1824
12099W        W32379   6.820   5.047  10.760 -0.0405 -0.0389  0.3775
12100W        W32380  12.231   9.825   1.026 -0.0662  0.0171 -0.1138
12101W        W32381   9.376  15.998   1.966 -0.4034  0.3622  0.1284
12102W        W32382   1.763   0.067   3.469  0.1095  0.3791 -0.2758
12103W        W32383   7.093  13.633  13.191 -0.0513  0.0336  0.0102
12104W        W32384  14.726   4.082  11.782 -0.2941 -0.0086 -0.1774
12105W        W32385   4.110   4.220  11.032  0.1695 -0.3181  0.1237
12106W        W32386   7.697   3.899   3.748  0.1900  0.1123 -0.1296
12107W        W32387   4.474   6.772   1.338 -0.1193  0.5240 -0.2105
12108W        W32388  14.512   6.354  10.045  0.1247 -0.1483  0.2525
12109W        W32389   3.787  13.768  13.354 -0.3397 -0.1220  0.0697
12110W        W32390   4.134   1.442   2.083 -0.1803  0.1044 -0.1358
12111W        W32391  14.611   4.568   4.884  0.0253 -0.0302 -0.2744
12112W        W32392   1.177   8.130   9.737 -0.0137 -0.2267 -0.2116
12113W        W32393  13.883  16.048   0.674 -0.1051  0.2367  0.3705
12114W        W32394   9.090   0.671   3.731  0.1628 -0.2821  0.1207
12115W        W32395   9.816   2.149  11.237  0.2374 -0.3591 -0.0906
12116W        W32396  17.714   4.323   1.181 -0.0419  0.2860  0.1476
12117W        W32397   4.438  14.802   0.484  0.5193 -0.0667 -0.0743
12118W        W32398   3.738  12.813   0.358 -0.0882  0.1776 -0.0659
12119W        W32399  18.979   2.391  12.181  0.0276 -0.0371 -0.0971
12120W        W32400  13.903   0.086   3.796 -0.3336  0.1462 -0.1589
12121W        W32401  15.682  10.162  12.967 -0.2848 -0.3536 -0.1526
12122W        W32402  11.012   5.754  12.769  0.1872 -0.1404  0.0276
12123W        W32403  14.688  14.056   2.711 -0.0835  0.0848  0.2470
12124W        W32404  18.934   8.220   1.571 -0.2079  0.1846 -0.4830
12125W        W32405   8.984   7.815  12.924  0.2856 -0.2227  0.0558
12126W        W32406   8.168  10.495   0.711 -0.4756 -0.0067  0.2629
12127W        W32407  14.713  11.393   2.661 -0.1150 -0.2127  0.2685
12128W        W32408  11.540   4.261  13.831  0.0289 -0.0840 -0.1576
12129W        W32409  10.882   5.886  10.775 -0.1573  0.0316  0.4575
12130W        W32410   5.092   0.068  13.182  0.1454  0.0280  0.2975
12131W        W32411   3.307   3.301  13.760  0.0076 -0.0884 -0.2762
12132W        W32412   2.347  18.670  13.661  0.2954 -0.0833  0.2503
12133W        W32413   8.622   7.519  11.644 -0.0299 -0.1347  0.2506
12134W        W32414   6.606  11.566   5.104  0.2201  0.3123  0.0054
12135W        W32415  12.252   4.564  10.924 -0.1668 -0.4067  0.0976
12136W        W32416  16.996  10.298  13.415 -0.0727 -0.2199 -0.0620
12137W        W32417  15.594   6.976  12.342  0.1768  0.0935 -0.0555
12138W        W32418   3.214  12.907   0.939  0.2937  0.1237 -0.0442
12139W        W32419   6.918   3.748  10.717 -0.0584 -0.2536 -0.0470
12140W        W32420  15.801   6.985   2.179 -0.0931  0.1986  0.5789
12141W        W32421  13.359  17.763   1.560 -0.0889  0.2404 -0.1045
12142W        W32422  17.926   5.007   2.128  0.0203  0.4453  0.4530
12143W        W32423   9.061   2.810  10.638 -0.1384  0.0936 -0.1642
12144W        W32424   0.200   0.264   0.612 -0.0595  0.0388  0.1787
12145W        W32425  12.800  10.669   1.963  0.0160 -0.2382 -0.1817
12146W        W32426   4.608   7.052  10.829 -0.1105  0.1468  0.0469
12147W        W32427  16.558  19.775  14.010  0.0123 -0.2099 -0.1256
12148W        W32428  11.334   1.269  11.762 -0.1615 -0.2599 -0.3226
12149W        W32429   3.909  14.274   1.217  0.2070  0.0102  0.1503
12150W        W32430  10.249  15.267  10.862 -0.1175 -0.0899  0.1784
12151W        W32431   1.285   0.061   2.980 -0.1023 -0.1848  0.0934
12152W        W32432  14.562   1.717  12.295  0.0148  0.2109 -0.4265
12153W        W32433  15.272  15.394  13.314 -0.1860  0.1678  0.2469
12154W        W32434   3.514   1.719  10.268  0.0895 -0.1846 -0.3071
12155W        W32435   1.393  15.784   3.138  0.2133 -0.0828  0.2944
12156W        W32436   2.271  10.063   3.622 -0.0355  0.5392 -0.0752
12157W        W32437   3.158   2.185   1.526  0.1067  0.0135  0.0744
12158W        W32438  14.404   9.485   1.495  0.0522  0.0652  0.0239
12159W        W32439   9.195   3.284   2.190  0.3048 -0.1106 -0.0295
12160W        W32440   2.172   2.834  13.951 -0.0400 -0.2123  0.1222
12161W        W32441  19.373  11.074  12.087  0.1060 -0.0040 -0.0321
12162W        W32442  10.676  12.990  11.353  0.0318 -0.0981 -0.1701
12163W        W32443   9.073   0.854   4.204 -0.0999  0.2269 -0.1012
12164W        W32444   2.196   6.577   3.047 -0.1745 -0.1077  0.1167
12165W        W32445  16.216  19.103  13.006 -0.1353 -0.2830  0.1331
12166W        W32446  16.536  11.103  11.013 -0.0686  0.2043  0.1586
12167W        W32447   1.450   6.341   1.991  0.1237 -0.0341 -0.0662
12168W        W32448   8.230  16.060   2.766  0.2023  0.0866 -0.3039
12169W        W32449  10.717  11.648  12.732 -0.0873  0.0540  0.3905
12170W        W32450  16.950   9.140  10.340  0.0229 -0.3234  0.2962
12171W        W32451   9.571  15.958   3.294 -0.0474 -0.1541 -0.0694
12172W        W32452   0.674   5.192   0.428  0.1276 -0.1017 -0.0418
12173W        W32453  12.215   8.956  13.457  0.0887  0.1116 -0.0833
12174W        W32454   4.998  16.114   3.879  0.2246  0.3470 -0.2311
12175W        W32455  19.471  19.106   0.305 -0.1303 -0.1307 -0.0437
12176W        W32456  13.648  11.278   3.207 -0.1037  0.1278 -0.0095
12177W        W32457  19.602   9.828   0.477  0.2115  0.3343 -0.0739
12178W        W32458   0.993   8.529  13.163 -0.0029 -0.3475 -0.1046
12179W        W32459  12.911  17.434   0.233  0.1094  0.1230 -0.0705
12180W        W32460  16.657   8.806   2.054  0.0739  0.2521 -0.0978
12181W        W32461   9.642   6.320  12.976 -0.1665  0.1784  0.1461
12182W        W32462  18.679   9.446   3.056  0.0302 -0.0162  0.0092
12183W        W32463   8.969   3.949   3.439 -0.0884 -0.1075 -0.0495
12184W        W32464  15.399   6.062  10.768  0.0903  0.1115  0.1739
12185W        W32465   1.022   8.749   0.505 -0.2172 -0.1258 -0.1618
12186W        W32466   4.349   3.671   1.834  0.3000 -0.2816 -0.1342
12187W        W32467  10.858  12.619   2.240  0.0510  0.1808 -0.0934
12188W        W32468  10.309  19.111  13.148  0.1066 -0.2123  0.2412
12189W        W32469   1.472  17.207   3.572  0.1904  0.0759  0.0944
12190W        W32470  19.537  12.980   3.574 -0.0981 -0.0820  0.1350
12191W        W32471   1.831  19.601   0.639  0.1295 -0.1539  0.1493
12192W        W32472  17.023   6.267  13.937  0.0256  0.1448  0.2513
12193W        W32473   4.091  11.992   3.164  0.1080  0.1015  0.3148
12194W        W32474  11.356  17.894   2.754 -0.0782 -0.0326 -0.1573
12195W        W32475  19.771   2.902  11.772  0.0435  0.3116 -0.2019
12196W        W32476   4.595   1.875   3.380 -0.2072  0.0974 -0.2144
12197W        W32477  19.362   6.122   2.667 -0.0947  0.1503  0.0981
12198W        W32478  17.803  18.889   3.087 -0.0260  0.0812  0.0887
12199W        W32479   2.779   4.322   2.116 -0.2497  0.1872  0.1961
12200W        W32480   1.260  10.768  12.589 -0.0600  0.1728 -0.0921
12201W        W32481   9.952  10.360  11.163 -0.0478  0.2381  0.0537
12202W        W32482  11.573  12.555   1.904 -0.1754  0.0520  0.2853
12203W        W32483  17.814   2.198   0.818  0.2515  0.1116  0.1915
12204W        W32484   0.478  16.353   3.168 -0.1517 -0.1206 -0.1122
12205W        W32485   5.812  19.274   2.066  0.0436 -0.2189  0.1640
12206W        W32486   2.115   9.149   3.985 -0.6152  0.0574 -0.1644
12207W        W32487  13.197   1.237  13.500  0.0299  0.1510 -0.0066
12208W        W32488   7.044  15.639   1.083 -0.0346  0.2630 -0.0545
12209W        W32489  12.313   8.426  12.430 -0.2546  0.0040  0.3001
12210W        W32490  15.441  18.079  13.350  0.1952  0.0441 -0.2472
12211W        W32491  17.137   7.339   0.157  0.2475 -0.0884  0.1308
12212W        W32492  15.496   5.527   1.108  0.0198  0.1930 -0.0353
12213W        W32493   8.002   9.324   1.392 -0.0227  0.0128 -0.1557
12214W        W32494   2.256   1.322   1.062 -0.1285 -0.1021  0.0823
12215W        W32495   0.438   5.763  13.242  0.0441  0.1407 -0.0039
12216W        W32496   2.709   5.666   3.351  0.0078  0.2702  0.1123
12217W        W32497  16.917  19.653  12.203  0.3275  0.2009 -0.2433
12218W        W32498  10.647   4.260  10.209 -0.0394 -0.2908 -0.4757
12219W        W32499  10.383  16.598  10.957 -0.2121  0.0455 -0.0456
12220W        W32500   9.108  17.348  13.293 -0.1859 -0.2663 -0.0608
12221W        W32501  13.884  10.443   2.859 -0.0470 -0.1946 -0.1616
12222W        W32502   5.901  10.948  13.089  0.1549 -0.0231 -0.1568
12223W        W32503   9.364  15.497   1.855 -0.0076 -0.3124 -0.1754
12224W        W32504  14.142  17.774  12.023  0.0365 -0.1689 -0.2982
12225W        W32505  11.309  15.899   1.959  0.0441 -0.0149 -0.0043
12226W        W32506   5.569   0.210   3.782  0.0013  0.0827 -0.0216
12227W        W32507  13.528   0.704   0.273 -0.0699 -0.1675  0.0628
12228W        W32508   1.336  18.455  10.435  0.1625  0.0777 -0.0775
12229W        W32509   3.501   9.157   2.393  0.0668 -0.3041 -0.1117
12230W        W32510  11.651  12.297  13.133 -0.1216  0.1576 -0.3145
12231W        W32511  18.908   8.295  11.325  0.0544  0.0429  0.2093
12232W        W32512   5.723   2.386   1.857  0.3286 -0.0833  0.0514
12233W        W32513  14.936  19.399   0.007  0.0092 -0.0874 -0.0753
12234W        W32514  19.317  17.302   0.346  0.0815 -0.2317 -0.1794
12235W        W32515   2.443  17.774  10.047 -0.0040  0.1208 -0.1190
12236W        W32516  19.245   4.929  10.310  0.0744 -0.0802 -0.1758
12237W        W32517  12.538   1.648   2.203 -0.0678 -0.2447  0.0727
12238W        W32518  16.956   2.071  13.707 -0.0889 -0.1555 -0.1296
12239W        W32519   6.596   8.611  12.460 -0.0603 -0.0343  0.0809
12240W        W32520  10.344   0.337   3.515  0.1108  0.0301 -0.2128
12241W        W32521   2.606   7.546   2.505  0.1016 -0.0205  0.2543
12242W        W32522   1.348  11.100   0.259 -0.0830  0.2118  0.0369
12243W        W32523  14.441  14.070   3.550 -0.1551  0.0691 -0.2732
12244W        W32524  14.644  14.385  13.397  0.4635  0.1393 -0.0071
12245W        W32525  12.748  11.994   1.395  0.2071  0.0691  0.0786
12246W        W32526   2.678   0.316   1.083  0.0537  0.0502  0.1996
12247W        W32527   3.603  16.525  11.232 -0.1562 -0.1400  0.0447
12248W        W32528  17.558   6.317  10.885 -0.2687 -0.2667 -0.2067
12249W        W32529  17.916   1.260  13.200 -0.0067 -0.0128 -0.1472
12250W        W32530  13.334  18.230  11.127 -0.0109  0.3266 -0.0393
12251W        W32531   0.375  14.525  12.235  0.0073  0.0547  0.2435
12252W        W32532  18.388  10.588   2.630 -0.0890  0.2503  0.1965
12253W        W32533   1.099   3.119  10.801  0.0386 -0.0118  0.0714
12254W        W32534   3.043   2.660   3.349  0.1195 -0.0462 -0.1503
12255W        W32535   6.353  18.880  10.740  0.2500 -0.3275  0.0601
12256W        W32536  14.088   9.485  12.920  0.1016  0.1983  0.2125
12257W        W32537   7.329  12.860  11.932  0.1535 -0.0042 -0.2386
12258W        W32538   3.008  17.192   3.701 -0.0161 -0.0136  0.0178
12259W        W32539   2.046  15.336   3.434  0.0397 -0.0029 -0.1165
12260W        W32540  10.750   4.966  10.507 -0.4606  0.3579 -0.1042
12261W        W32541   0.357  17.779   9.791  0.1990  0.1661 -0.3088
12262W        W32542   2.744   7.627  12.412  0.2860 -0.2552  0.0489
12263W        W32543   6.821   7.749  11.451 -0.0887  0.0498 -0.0376
12264W        W32544  13.552   9.991  13.384 -0.2210 -0.1452  0.0987
12265W        W32545  19.619   1.429   2.094  0.0608  0.0759 -0.0519
12266W        W32546  16.410   3.349  12.269 -0.0180  0.1987 -0.1137
12267W        W32547   0.548  15.701  10.038  0.0591 -0.1674 -0.0152
12268W        W32548  12.793   2.426   0.292  0.1216  0.0410 -0.0278
12269W        W32549   7.723   9.760   3.721 -0.2206  0.1374  0.1324
12270W        W32550  18.134   9.762  11.806  0.0539  0.0612  0.3257
12271W        W32551   4.629  17.197  13.473  0.1269  0.1750  0.1363
12272W        W32552   8.513  10.580   0.129  0.3449 -0.2452  0.1044
12273W        W32553  19.210   9.375  12.710 -0.1537  0.1005 -0.0875
12274W        W32554  13.221   9.200   3.797 -0.3574  0.0663  0.1302
12275W        W32555  10.888   6.221   9.864  0.2181 -0.1822 -0.1521
12276W        W32556   4.119  13.285  13.423  0.1237  0.2340  0.3088
12277W        W32557   6.900   4.171   2.001  0.1144 -0.2171  0.2793
12278W        W32558   9.317   6.195  12.035  0.1910  0.1274 -0.2559
12279W        W32559   8.622   8.856  11.140 -0.1052 -0.1011 -0.2369
12280W        W32560  19.773   1.182  11.574 -0.2288  0.0549 -0.1719
12281W        W32561   7.148  17.843  11.291 -0.2592 -0.4606 -0.3134
12282W        W32562   6.504   1.748   3.462 -0.2972 -0.0144  0.1491
12283W        W32563  16.564   5.585  12.240 -0.3834 -0.1017  0.3614
12284W        W32564   1.119  17.565   3.387 -0.0716 -0.0314  0.1188
12285W        W32565   6.967  14.463  11.390 -0.2499 -0.1822  0.0333
12286W        W32566  10.952   2.109  13.777  0.3636 -0.3510  0.1484
12287W        W32567  11.921   5.961  10.060  0.1522  0.0753 -0.1688
12288W        W32568  19.267   8.182   3.073 -0.0377  0.1187 -0.1913
12289W        W32569  11.993   6.656  12.148  0.0972 -0.0701  0.1868
12290W        W32570  11.605   4.996   2.362 -0.3544  0.0652 -0.0442
12291W        W32571  15.872  18.620  10.621  0.1913  0.0360  0.1375
12292W        W32572   6.378  19.491  10.154 -0.1404 -0.1066  0.1840
12293W        W32573  14.219   9.319   2.110 -0.0054 -0.0497 -0.0480
12294W        W32574   0.006   6.333  10.417 -0.1653 -0.0715  0.0166
12295W        W32575  17.670   7.286  11.620  0.0898 -0.2194 -0.1861
12296W        W32576   9.460   1.547   2.994 -0.2684 -0.0607  0.3119
12297W        W32577   0.596   8.109   0.130 -0.2936  0.2551 -0.0394
12298W        W32578  11.611  11.962   0.537 -0.0200 -0.2090  0.4564
12299W        W32579  19.236  15.072  14.029 -0.0340 -0.0968  0.2277
12300W        W32580   9.413   7.542  10.665  0.0707  0.0578  0.0232
12301W        W32581  11.279   7.151   9.061  0.1168 -0.4034  0.1524
12302W        W32582  11.745   1.108  12.526  0.3322 -0.1834  0.3801
12303W        W32583  15.047   6.741   0.684 -0.2618 -0.0621 -0.1396
12304W        W32584   4.981  15.903   3.428 -0.0977 -0.3036  0.0972
12305W        W32585  16.938  18.703  11.332  0.0904  0.1167 -0.0793
12306W        W32586   2.386  15.699   4.262 -0.1990 -0.1667 -0.0454
12307W        W32587   9.410   2.419  13.984 -0.2174  0.0187 -0.1387
12308W        W32588  17.260   2.262   4.781  0.2257 -0.1159  0.0624
12309W        W32589  11.953   9.646  13.626  0.2526 -0.0405 -0.0447
12310W        W32590  15.560   3.660   1.743 -0.1857  0.3318  0.2282
12311W        W32591  18.119  11.660   0.586  0.0906 -0.2142 -0.0210
12312W        W32592   4.051   1.193  12.170  0.0444  0.0173  0.3467
12313W        W32593  14.962   2.531   1.315 -0.0860  0.2658 -0.1538
12314W        W32594  13.381  13.685   2.106  0.4017  0.2124  0.1072
12315W        W32595   1.759  12.375   3.107  0.4713 -0.0836  0.0379
12316W        W32596   8.787  13.870   1.018 -0.2596 -0.0940  0.0082
12317W        W32597  15.278   2.779  10.659 -0.0098 -0.1206  0.1764
12318W        W32598   1.623   5.352  11.481 -0.1392  0.3849 -0.0048
12319W        W32599   0.118   7.190  11.485  0.1418  0.0086  0.2942
12320W        W32600   5.353   7.890   4.002 -0.0932 -0.0401 -0.1244
12321W        W32601   1.840   9.907  12.868 -0.1176  0.3472  0.1711
12322W        W32602  18.836   9.526   1.719  0.1509  0.0564  0.1975
12323W        W32603  18.323   7.462   3.251 -0.2220 -0.1602 -0.2034
12324W        W32604   1.482  14.008  13.895  0.0717 -0.1498 -0.2705
12325W        W32605  12.900  12.606  13.174  0.1450 -0.1086 -0.0921
12326W        W32606   1.414   8.926  13.634 -0.1565 -0.3470  0.2883
12327W        W32607  19.415   0.250  10.442  0.0570  0.1551 -0.0637
12328W        W32608   9.602  12.544   1.393  0.0301  0.0244 -0.0672
12329W        W32609  14.517  10.961   0.223  0.2564 -0.0141  0.0683
12330W        W32610   4.163   9.818   5.480  0.4193  0.3844  0.0744
12331W        W32611  13.334   1.253  12.614  0.1960 -0.0007 -0.2377
12332W        W32612   7.980  10.614   3.468  0.3115 -0.0824  0.1247
12333W        W32613  12.127   2.555  13.354 -0.0146 -0.0985  0.0577
12334W        W32614   8.808   0.707   2.095  0.0403  0.0824  0.2696
12335W        W32615   4.430   9.841  12.969 -0.1486  0.0749 -0.0438
12336W        W32616  10.670  10.350  11.611 -0.2662  0.2622 -0.1223
12337W        W32617  11.582  16.621   0.566 -0.2828 -0.2871 -0.2333
12338W        W32618  13.573  14.885   9.500  0.2238  0.1460 -0.1753
12339W        W32619  14.315  17.140  10.815 -0.1211 -0.1341 -0.2565
12340W        W32620   6.915   9.176   3.430 -0.0153 -0.1435 -0.2811
12341W        W32621  14.807   6.724  12.219  0.0232  0.3961  0.3363
12342W        W32622  19.584   4.105  11.409 -0.2187  0.2127 -0.0004
12343W        W32623   4.603   8.989  10.611 -0.0633 -0.1188 -0.3461
12344W        W32624   3.130  11.074  10.254 -0.2888 -0.2516  0.0574
12345W        W32625   4.938  18.930  11.333  0.0468 -0.1109  0.1405
12346W        W32626  15.908   4.929  12.410 -0.0565  0.2439 -0.1469
12347W        W32627   6.681  12.902   4.089  0.1935 -0.2521  0.1981
12348W        W32628  17.616  13.547  13.499  0.0847 -0.0631 -0.0211
12349W        W32629  13.569   4.854   3.113  0.0090 -0.1413 -0.1406
12350W        W32630  16.414   8.622  11.018  0.1481  0.0281  0.0219
12351W        W32631   3.751   4.740   0.255 -0.0592  0.0067  0.3372
12352W        W32632  11.871  16.583   1.533 -0.2186  0.2980  0.1509
12353W        W32633  13.985   9.205   3.134  0.1019 -0.5226  0.0093
12354W        W32634   2.853   6.577  12.493  0.0654 -0.2494  0.1285
12355W        W32635   7.662   9.909  13.920  0.0573  0.0192 -0.1784
12356W        W32636  15.470  10.183   1.297  0.2094  0.0847  0.1809
12357W        W32637   2.394   7.267   0.573  0.3551 -0.0529 -0.0457
12358W        W32638  14.717   2.301  11.086 -0.3756 -0.1172 -0.2751
12359W        W32639  18.067   5.276   3.464 -0.1094  0.0764 -0.1379
12360W        W32640   5.949   3.945   2.248  0.2167  0.1009  0.0545
12361W        W32641  10.697  17.090   0.206  0.2054 -0.3479 -0.1442
12362W        W32642   5.520  13.244  11.717  0.1296  0.2389 -0.0857
12363W        W32643  17.112   3.889   1.788 -0.2006 -0.0072  0.0830
12364W        W32644   0.907  15.907  12.647 -0.0465  0.2322  0.2912
12365W        W32645   8.591  15.032   0.557  0.0527 -0.0532  0.1377
12366W        W32646   4.757   8.324  11.390  0.2991 -0.2417  0.2541
12367W        W32647   8.565   0.979  13.937  0.0858 -0.2903 -0.0850
12368W        W32648   0.564   8.505  12.891 -0.1359  0.2122  0.2046
12369W        W32649   4.668   1.062  13.544  0.1571 -0.2285 -0.1888
12370W        W32650  13.626  17.977   3.088  0.0568  0.0570  0.0452
12371W        W32651  15.962  13.493   4.374 -0.0451 -0.2638 -0.1220
12372W        W32652  17.572  16.883   9.938 -0.1237  0.0968 -0.3030
12373W        W32653   0.700  18.092   1.927 -0.3983  0.0234 -0.0084
12374W        W32654   4.912   6.696  10.734 -0.3742 -0.1934 -0.0920
12375W        W32655   0.954  17.163   1.804  0.2711 -0.1134 -0.0754
12376W        W32656   3.661   4.781  13.018  0.2400  0.2156 -0.2200
12377W        W32657  18.200  18.343   3.871  0.0911 -0.2991  0.1063
12378W        W32658  14.170  13.922  10.042  0.0934 -0.2500 -0.5356
12379W        W32659   7.620   1.784   0.111 -0.2080  0.2178 -0.2134
12380W        W32660   8.875   1.226  10.140  0.1679 -0.1243  0.2256
12381W        W32661  15.472  18.587   9.895 -0.0278  0.0086  0.0826
12382W        W32662   4.515  12.779  10.742  0.2904 -0.1450  0.3266
12383W        W32663   4.691  15.974   1.881 -0.3394  0.1202 -0.2771
12384W        W32664   8.849   1.764  10.247  0.0059 -0.0717 -0.0748
12385W        W32665   5.103  12.996   2.968  0.0374  0.2410 -0.1574
12386W        W32666  11.716   9.135  12.275 -0.1153  0.0255 -0.0165
12387W        W32667  12.664   7.780  11.211 -0.0239  0.0459  0.0601
12388W        W32668  15.584   4.779  10.338 -0.2422 -0.2617 -0.1323
12389W        W32669   9.362   1.971   2.345 -0.1418 -0.2971  0.1779
12390W        W32670  17.293  17.419  13.060 -0.0273 -0.0057  0.2585
12391W        W32671   7.252   8.713   1.926  0.0301  0.1133 -0.1207
12392W        W32672  13.127   4.947  11.254  0.1964 -0.1983  0.0248
12393W        W32673  18.724   5.658   2.588 -0.0136  0.2707 -0.0271
12394W        W32674  10.149  12.939  11.906  0.0801  0.1883  0.0334
12395W        W32675   9.309  15.988  13.185 -0.1682  0.0613  0.0216
12396W        W32676  13.311  11.434  13.714 -0.0232 -0.0030 -0.4168
12397W        W32677   4.684   8.909  11.898  0.0419  0.3275  0.3245
12398W        W32678   6.684  15.387  10.315  0.0866 -0.3020  0.2538
12399W        W32679  11.902  17.435  10.686 -0.1315  0.0118 -0.4120
12400W        W32680  13.614   3.236  10.277  0.0764 -0.0587 -0.2764
12401W        W32681   9.035  17.317  11.423  0.0873 -0.4730  0.2860
12402W        W32682   8.527   4.948  11.848  0.0356  0.3023  0.2279
12403W        W32683  14.506  19.482   2.702  0.0360  0.4039  0.0072
12404W        W32684   1.096   7.088   1.021 -0.0485 -0.0244 -0.1921
12405W        W32685   2.830  18.775  13.851  0.2384  0.2169  0.1298
12406W        W32686   6.151  11.154   3.881  0.1464  0.0636  0.0353
12407W        W32687   3.098   7.691  13.181  0.0212 -0.2782  0.1710
12408W        W32688  14.759  19.073   1.512  0.1573  0.0972  0.0044
12409W        W32689   9.599  15.774   3.884  0.1897  0.1113  0.0724
12410W        W32690   2.223  19.675   1.057  0.1732  0.0994 -0.0604
12411W        W32691   8.578  11.525  11.187  0.0224  0.2106 -0.1371
12412W        W32692  11.703   3.277  10.459  0.3567  0.0831  0.0035
12413W        W32693  12.725   4.696  10.993 -0.0748  0.1370 -0.1530
12414W        W32694   9.191  18.351   0.524 -0.0669 -0.0788  0.1975
12415W        W32695   4.454  17.548   3.248 -0.2467  0.4041  0.2180
12416W        W32696  10.795  11.856  14.007  0.0534 -0.1815  0.3843
12417W        W32697  13.199   5.952   3.006 -0.0093  0.1040 -0.1385
12418W        W32698   3.107   2.726  11.019 -0.0886  0.0117  0.0290
12419W        W32699   6.180   7.997   0.696  0.1157 -0.0062  0.3528
12420W        W32700  11.143  16.691  14.015 -0.1350  0.2246  0.2328
12421W        W32701   3.737   5.980   0.241  0.2933  0.1592 -0.3976
12422W        W32702  11.551  13.664   1.870  0.2082 -0.1023  0.0999
12423W        W32703   8.753  11.405  14.055 -0.0803  0.3419 -0.0185
12424W        W32704  12.596   7.665   0.656  0.0596  0.0969 -0.2736
12425W        W32705   3.679  12.953  13.458 -0.1910  0.0415  0.1315
12426W        W32706  18.986   4.468  13.752 -0.0828 -0.3571 -0.0459
12427W        W32707   3.658  19.342  11.784  0.1996  0.1135  0.0444
12428W        W32708   4.554   1.759   0.582 -0.1299 -0.1689 -0.1942
12429W        W32709   3.578  14.103  13.810  0.1117 -0.0436 -0.2756
12430W        W32710   8.457   9.179   2.898 -0.2729 -0.0453 -0.1273
12431W        W32711   6.998   7.665   4.190  0.1239  0.2833 -0.1308
12432W        W32712   3.516   7.379   5.149  0.0685 -0.3429 -0.1376
12433W        W32713  18.364   7.479   2.676  0.4021 -0.2488  0.1237
12434W        W32714   0.619  14.696   3.466  0.5141  0.2745  0.2572
12435W        W32715   3.468  16.357   1.236 -0.0218 -0.0846 -0.1218
12436W        W32716  16.215   1.182   2.067  0.3050  0.0223 -0.1700
12437W        W32717  18.898  12.829   0.048  0.0913 -0.0635 -0.3274
12438W        W32718  17.661  19.250  11.590  0.0649  0.0342 -0.3616
12439W        W32719  15.813  15.524   0.589 -0.2489  0.1537  0.2514
12440W        W32720  19.255   7.951   0.302  0.1719 -0.2193 -0.1037
12441W        W32721   1.929  13.829   0.723  0.4014  0.0002  0.1602
12442W        W32722  19.248  18.238   0.844 -0.0337 -0.1092 -0.0948
12443W        W32723  14.291   5.148  14.052  0.2294 -0.2682  0.2169
12444W        W32724  18.129  16.365   2.295  0.3401  0.1965  0.0544
12445W        W32725  16.004  13.058   1.125 -0.0564 -0.0214  0.1192
12446W        W32726   0.694   1.044   3.638  0.0527 -0.0755  0.3196
12447W        W32727  13.227   1.576  12.236  0.3053  0.4802  0.2020
12448W        W32728  10.118   3.603   3.128 -0.2889 -0.0409 -0.1599
12449W        W32729  11.589   9.305   2.711 -0.2384 -0.0339  0.3287
12450W        W32730  13.226  16.467  11.400  0.0989 -0.1446  0.0341
12451W        W32731   3.880   6.391   3.863  0.2290 -0.0173  0.3040
12452W        W32732  17.280   8.177   2.299 -0.0323  0.1016  0.0348
12453W        W32733   1.121   3.534  12.053 -0.1383  0.3971  0.2215
12454W        W32734   2.652  10.587  13.014 -0.0769 -0.0599  0.0274
12455W        W32735   0.346  15.306   0.755 -0.1046 -0.3206 -0.0581
12456W        W32736  12.660  18.256   1.893  0.0324  0.1531 -0.0361
12457W        W32737  15.133  19.247  12.036  0.1084 -0.0359 -0.0844
12458W        W32738  13.538  17.119   3.264 -0.0000  0.0348  0.0363
12459W        W32739  14.790   4.087   1.734 -0.0244 -0.1768 -0.0001
12460W        W32740   9.939  16.373   1.163  0.0435  0.1119  0.1823
12461W        W32741   6.921   3.509   2.599 -0.1469 -0.0765  0.1083
12462W        W32742  18.885   2.418   9.959  0.0595  0.0306 -0.1172
12463W        W32743  17.136   0.896   3.030  0.1900 -0.1095 -0.3964
12464W        W32744  14.804   4.372   0.628  0.2042  0.4042 -0.3754
12465W        W32745  17.833  18.096   3.256 -0.0364  0.1545 -0.0299
12466W        W32746  15.858   8.978   2.228  0.1317 -0.0842  0.1767
12467W        W32747   3.583   8.890  11.717  0.2892  0.0600 -0.1269
12468W        W32748  12.399  13.180   0.939  0.0681  0.0020  0.0704
12469W        W32749  15.440   6.573  10.636  0.1023 -0.2113  0.2360
12470W        W32750   9.593   9.367  12.066 -0.1112 -0.2944  0.1411
12471W        W32751  14.121   8.048   0.929  0.1392 -0.0232 -0.1638
12472W        W32752   1.319  18.906  10.716  0.0607  0.2152  0.0739
12473W        W32753   2.157  12.833   3.905  0.0258 -0.0187  0.0027
12474W        W32754   8.770   3.682  13.778 -0.0206 -0.3447  0.0713
12475W        W32755  12.503  17.575   0.871 -0.3635  0.3172  0.0809
12476W        W32756  17.647   5.071   3.016  0.5187 -0.1418  0.0360
12477W        W32757   5.379  10.309   0.851 -0.0285 -0.0195 -0.0834
12478W        W32758   0.844   4.645   1.234  0.2614  0.0905 -0.2110
12479W        W32759  10.173  10.833  12.895 -0.0753 -0.0888  0.0993
12480W        W32760  14.810   8.742  13.934  0.0828 -0.0080  0.4124
12481W        W32761  11.303   3.743  12.689  0.1272 -0.3343 -0.0411
12482W        W32762   6.067  14.535   2.853 -0.1107  0.0945 -0.0328
12483W        W32763  12.987   0.835   1.821  0.1737  0.0303 -0.0452
12484W        W32764   6.130   9.297   2.662 -0.1729 -0.0906  0.2493
12485W        W32765  15.081   7.263  10.195  0.3274 -0.1082  0.0073
12486W        W32766   8.754  11.513   0.848  0.2197  0.2826  0.0475
12487W        W32767  10.138  18.450  13.165 -0.0029  0.1306  0.1161
12488W        W32768   9.603   4.315  11.320  0.0002  0.2278  0.1881
12489W        W32769  11.413  17.567   2.253 -0.0146 -0.1333 -0.2214
12490W        W32770  18.328  14.054   1.527 -0.0477 -0.3183  0.1791
12491W        W32771  16.553  12.621  11.595  0.1315  0.1741  0.2211
12492W        W32772  16.234  16.814   9.963 -0.1097  0.0857  0.1643
12493W        W32773   9.490   4.902  13.034 -0.0353 -0.0069  0.3627
12494W        W32774   3.005   5.231  11.163  0.1629  0.0714  0.1601
12495W        W32775   6.690  12.561  11.093 -0.3892 -0.0286 -0.0300
12496W        W32776  18.403   3.307  13.517  0.2413 -0.0032  0.0453
12497W        W32777   4.141   9.362   1.601 -0.3163  0.0325  0.0125
12498W        W32778   3.434   4.862  10.075 -0.3352  0.3010  0.0243
12499W        W32779   9.219  17.040  10.957 -0.0809 -0.3803  0.1951
12500W        W32780  18.748  19.732   2.245  0.3198 -0.1294 -0.3216
12501W        W32781  13.385   6.561   2.400  0.2531  0.1213  0.1299
12502W        W32782   6.116   0.901  12.790 -0.0497  0.4264  0.2545
12503W        W32783  15.055  17.375   2.230 -0.2324 -0.0050  0.5304
12504W        W32784  19.513   9.930  12.001  0.3341 -0.1967 -0.2151
12505W        W32785  18.995  15.924   2.727 -0.1982  0.3677 -0.0809
12506W        W32786  12.279  10.968  12.291  0.0111  0.3141 -0.0993
12507W        W32787  11.772  15.774  13.029  0.1929  0.0532 -0.2831
12508W        W32788  13.729  13.545   1.122  0.1492 -0.0021  0.1758
12509W        W32789   4.860   0.740   1.319 -0.0066  0.0196 -0.1503
12510W        W32790   6.477   0.884  11.873  0.0545 -0.2412 -0.2557
12511W        W32791  16.889   1.202  11.131  0.1857  0.3773 -0.0414
12512W        W32792   6.382   4.352  13.325  0.2989  0.0359  0.0197
12513W        W32793   2.119  13.277  10.974  0.2530  0.0842 -0.2438
12514W        W32794   8.603   0.751   2.616 -0.0859  0.1865  0.1548
12515W        W32795  14.390   0.990   3.326  0.0852  0.0730 -0.0554
12516W        W32796   1.120   7.468   2.122  0.1449  0.2196  0.0533
12517W        W32797  11.768  14.364   3.326 -0.0509  0.1875 -0.0121
12518W        W32798   6.001  12.632  13.046  0.0942 -0.3550 -0.0014
12519W        W32799   1.221  14.437   2.857  0.0180  0.0040  0.2341
12520W        W32800  14.436   9.511  11.469 -0.2316 -0.3538 -0.4719
12521W        W32801   2.247  11.233  11.845  0.0503  0.0089  0.3144
12522W        W32802  12.640   1.751  11.312  0.0828  0.0689  0.1108
12523W        W32803  13.562   1.037   9.893 -0.0682 -0.1570 -0.1657
12524W        W32804   6.981  19.453   0.910  0.0827 -0.1227  0.1113
12525W        W32805  15.768   0.571   2.672  0.0674  0.0753  0.2851
12526W        W32806  18.331  14.372  13.163  0.1306 -0.1194  0.0194
12527W        W32807  14.456  10.993   2.773 -0.2241  0.4070 -0.0095
12528W        W32808  19.410  18.672   2.779 -0.3740 -0.1338 -0.1498
12529W        W32809  19.128   3.286  10.807  0.0286 -0.0208  0.1412
12530W        W32810   6.776  10.136   2.357  0.1440  0.1119 -0.3529
12531W        W32811  14.366   8.966   3.446  0.1714  0.2370  0.3995
12532W        W32812  17.392  19.210  12.595 -0.0459 -0.2066 -0.2673
12533W        W32813  17.829   8.780   0.640  0.2221 -0.1815 -0.2339
12534W        W32814  13.472   8.953  13.526  0.0108  0.1270 -0.2632
12535W        W32815  11.549   6.881  12.311 -0.3378 -0.5172  0.2645
12536W        W32816  16.442  13.592   3.227 -0.0293  0.3446  0.1541
12537W        W32817   2.282  13.602  13.544  0.0486  0.1067 -0.3258
12538W        W32818   8.935  12.178   1.122 -0.2207  0.1095 -0.1330
12539W        W32819   6.874   0.608  13.008  0.3227  0.1470  0.2497
12540W        W32820  14.513   4.674  13.237 -0.2226 -0.0182  0.1521
12541W        W32821  12.068   6.183  13.515 -0.0615  0.0681 -0.0307
12542W        W32822   0.487   6.293   1.531  0.2502  0.1851  0.2641
12543W        W32823   0.508  10.019  11.496  0.1554  0.0484  0.0427
12544W        W32824  16.799   6.396  12.153 -0.1464  0.2816  0.4069
12545W        W32825  17.403   8.142   1.799  0.1131 -0.1537 -0.3317
12546W        W32826  19.526   6.867   2.054  0.0634 -0.0599 -0.0445
12547W        W32827  10.796  12.193  13.561  0.0472  0.0550 -0.0671
12548W        W32828  18.165   8.656   9.821 -0.1189 -0.1024 -0.0569
12549W        W32829   6.949  13.279   3.797  0.0787  0.0307  0.0192
12550W        W32830  13.038  10.243  12.772 -0.0617 -0.3588  0.3899
12551W        W32831   0.272  16.551  11.087 -0.0534 -0.0985 -0.0064
12552W        W32832  10.010   4.041   1.706  0.0185  0.1919 -0.1434
12553W        W32833   7.614   9.297   1.862 -0.0919 -0.1129 -0.2799
12554W        W32834   7.980   2.134   4.029  0.0476  0.1731  0.2140
12555W        W32835   9.119   3.010  11.827  0.0179  0.0699  0.1120
12556W        W32836  15.922  10.896   0.083  0.1081  0.0876 -0.0395
12557W        W32837   6.494  13.993  13.964  0.1716 -0.2391 -0.0507
12558W        W32838  13.435  10.835  12.899 -0.0910 -0.0546  0.1442
12559W        W32839   6.725   8.010   2.105  0.1792  0.1466  0.0167
12560W        W32840   3.938  12.644   2.562  0.0462 -0.0332 -0.3410
12561W        W32841  15.838   2.576   0.257  0.0582 -0.1141  0.1399
12562W        W32842  10.485  11.630   2.685  0.0794  0.2671 -0.0845
12563W        W32843  13.048   4.395   0.400 -0.0703  0.1009 -0.3913
12564W        W32844  14.900  10.051  12.690  0.1635  0.1173  0.0128
12565W        W32845   7.222  10.594   0.232 -0.0043  0.1693  0.1962
12566W        W32846  10.851  14.591   9.674  0.2021 -0.0726 -0.1370
12567W        W32847   5.449  15.510  11.580 -0.0746 -0.0593  0.2155
12568W        W32848  14.580  14.058   0.704  0.2385  0.1040 -0.1843
12569W        W32849   6.369   6.690   2.900 -0.1746 -0.0744 -0.1340
12570W        W32850   1.600  15.605   3.566 -0.0411  0.3048 -0.0986
12571W        W32851   7.963  11.684  13.455 -0.1485 -0.0751 -0.1124
12572W        W32852  17.367   0.375  12.827  0.0692  0.0003 -0.3070
12573W        W32853  10.168  16.240   2.216  0.0285  0.1941  0.0112
12574W        W32854  13.859  13.266  10.548 -0.2009  0.0080  0.0916
12575W        W32855   4.553   1.537  12.873 -0.3350 -0.1779  0.1241
12576W        W32856  17.576  13.245   2.657  0.0024 -0.2577  0.0266
12577W        W32857   3.966   3.955   1.088 -0.3217  0.0742 -0.1162
12578W        W32858  17.514  13.393   3.532 -0.1076 -0.1672 -0.0677
12579W        W32859   5.188   3.419   0.763  0.0899  0.1380  0.1139
12580W        W32860   5.093  18.972   2.230 -0.0690  0.1722 -0.0021
12581W        W32861   9.243   8.510   0.147 -0.0383 -0.0696  0.2103
12582W        W32862   2.266   6.075   1.498 -0.2763  0.1212  0.0559
12583W        W32863   6.486   8.809   0.974  0.1023  0.0880 -0.3654
12584W        W32864   6.297   3.840  13.180  0.2402 -0.1332  0.0843
12585W        W32865  14.582  12.731   3.757  0.1737  0.0490 -0.1135
12586W        W32866   5.795  10.781  10.203 -0.1310 -0.2413  0.0212
12587W        W32867   8.341  14.500   2.872 -0.1876  0.1442 -0.0105
12588W        W32868   0.780   9.589  13.264  0.0769  0.0903 -0.0362
12589W        W32869   6.544   9.019  13.838  0.1429  0.0019  0.1552
12590W        W32870   0.153   2.195  13.667 -0.2736 -0.0314  0.0143
12591W        W32871   6.136  18.083   0.929  0.0267 -0.0799  0.1827
12592W        W32872  15.490   3.851   0.253  0.1496  0.2489  0.2280
12593W        W32873  11.444   6.494  11.295  0.0423  0.1993 -0.2165
12594W        W32874  13.367   8.061  12.133  0.1173  0.1239  0.0790
12595W        W32875  11.049  15.356  12.749  0.0815  0.1230 -0.1482
12596W        W32876   4.426  19.255   0.893  0.1113 -0.3303  0.1724
12597W        W32877   5.835  13.606  11.534 -0.0243  0.4195 -0.1604
12598W        W32878   5.244   8.744  12.753  0.2066  0.2170 -0.0117
12599W        W32879   1.731  16.865   2.317  0.0912  0.0056  0.1379
12600W        W32880  12.198  11.651   4.386 -0.0843  0.1482  0.0748
12601W        W32881  18.019  10.576  13.221  0.0127 -0.3517 -0.0638
12602W        W32882   1.800  12.201  12.613 -0.1075 -0.1492 -0.1110
12603W        W32883  12.197   5.778   0.060 -0.0288  0.0893 -0.2860
12604W        W32884   0.996  10.765   9.983  0.0020  0.0869 -0.3113
12605W        W32885   5.050  18.582   1.928  0.2019  0.0714  0.1216
12606W        W32886   6.803   8.650   1.617  0.0875 -0.2095  0.0119
12607W        W32887  17.357  12.849  10.521 -0.1259  0.1645  0.0464
12608W        W32888  16.797  11.174   2.919  0.2152 -0.0307  0.0410
12609W        W32889   0.672  12.255   0.743 -0.0708  0.2510  0.0530
12610W        W32890   5.799  12.878   4.046 -0.0672 -0.0362 -0.0525
12611W        W32891   7.145   9.738  11.584 -0.2326 -0.0712  0.0230
12612W        W32892  11.266   9.444   3.097 -0.1956  0.1575 -0.0326
12613W        W32893  13.946   2.653  13.922  0.0928 -0.0895  0.3674
12614W        W32894   2.939  15.323   1.353  0.2673  0.0790  0.1459
12615W        W32895  15.906   6.209  13.237  0.1129 -0.0828 -0.1265
12616W        W32896  17.768  13.780  12.653  0.2228  0.1617  0.0474
12617W        W32897  13.400   9.635  11.593  0.1663 -0.0180  0.2041
12618W        W32898   9.317   1.239   3.945  0.2248 -0.1482 -0.4426
12619W        W32899   3.161   0.004   2.473  0.1530  0.0064  0.1401
12620W        W32900   0.504  16.616  10.453  0.2128 -0.0042 -0.0554
12621W        W32901  14.671   3.153   1.997 -0.0799 -0.1721  0.0564
12622W        W32902   8.845  13.112   3.853 -0.0059  0.2243 -0.0476
12623W        W32903   3.864   6.480  14.021  0.0613 -0.0809  0.4438
12624W        W32904  11.393   7.814   3.905 -0.3494 -0.0778  0.4350
12625W        W32905   8.538  10.524   3.359 -0.2073  0.3448  0.2424
12626W        W32906   8.845   8.552  13.324 -0.0006 -0.0945  0.1707
12627W        W32907   5.260   4.101  11.810 -0.0570  0.4723 -0.0694
12628W        W32908   5.899   6.468   3.185  0.1309  0.2666  0.1892
12629W        W32909   7.211  10.131  13.028 -0.1465  0.2261  0.1414
12630W        W32910  16.845  19.057   3.259  0.4223  0.1244  0.1423
12631W        W32911   8.851   2.655  12.124 -0.4879 -0.2594 -0.0247
12632W        W32912  13.353  18.435   3.105 -0.1570 -0.1522 -0.1011
12633W        W32913  10.751  13.674  12.942 -0.2188 -0.0690  0.0089
12634W        W32914  16.848   3.764   4.721 -0.0073  0.2885  0.1167
12635W        W32915   4.682   6.169   3.289 -0.0439  0.0479  0.1530
12636W        W32916   7.119  12.238  11.078  0.0091 -0.0746 -0.0080
12637W        W32917   2.270   2.398   1.558  0.0465  0.2734 -0.1619
12638W        W32918   6.475   5.449  11.206  0.1823 -0.0955 -0.1859
12639W        W32919  11.775  16.425   3.082 -0.0071 -0.1542  0.3426
12640W        W32920   2.413  19.308  11.976  0.1760  0.0608  0.2492
12641W        W32921  17.041   0.586   3.779  0.0712 -0.3222  0.0835
12642W        W32922  10.308  17.529  12.638 -0.1497  0.0250  0.3073
12643W        W32923   8.115  16.643   2.160  0.1077  0.2427 -0.0283
12644W        W32924   1.605   3.235  11.891  0.1938 -0.0975 -0.0691
12645W        W32925   5.446   9.919  12.415  0.1848  0.0005 -0.0712
12646W        W32926   7.322  13.341  10.911  0.3221  0.0575  0.1629
12647W        W32927   0.839  12.756   1.315  0.2289 -0.2135  0.1458
12648W        W32928   2.423  18.952   1.147  0.0728  0.0463 -0.1855
12649W        W32929  16.352   2.867   2.820  0.0839  0.0335  0.0433
12650W        W32930  17.147  14.179   2.808 -0.4245 -0.1925  0.1628
12651W        W32931   7.299  13.661   0.277 -0.0294  0.4311  0.1768
12652W        W32932  13.368   9.246   1.844 -0.3530  0.0247  0.1816
12653W        W32933  18.873  10.916   9.833  0.2030  0.0198  0.1709
12654W        W32934   0.956  12.306   1.166 -0.2986 -0.2481 -0.0844
12655W        W32935   7.597  15.036  11.432 -0.1516  0.2055 -0.0058
12656W        W32936  19.431   7.136  13.607 -0.2063 -0.2554 -0.1667
12657W        W32937   1.678   7.686   9.900 -0.0295 -0.0774  0.1561
12658W        W32938   0.584   0.352  13.774 -0.0852 -0.1244  0.3123
12659W        W32939  11.199   9.625   1.300 -0.3530 -0.0077  0.0411
12660W        W32940   7.864  16.547  12.347  0.2791  0.1255  0.0651
12661W        W32941  14.890  18.059  11.574 -0.2124  0.1879  0.0615
12662W        W32942   6.505  14.601  11.296  0.1709  0.2425 -0.1046
12663W        W32943   3.169  12.451  12.455 -0.2524 -0.1610 -0.0304
12664W        W32944   0.161   7.167  13.364 -0.1022  0.1569 -0.0829
12665W        W32945   9.591   5.171  12.629  0.0381 -0.0450 -0.1405
12666W        W32946   0.529   7.358   0.428 -0.0786  0.3003 -0.1934
12667W        W32947   8.948  16.596   3.807  0.1727  0.0958 -0.0457
12668W        W32948  15.225   3.934   1.972 -0.3865 -0.1033 -0.3466
12669W        W32949   0.550  17.084  10.137  0.0380 -0.0185  0.1996
12670W        W32950   8.202  19.137  11.123 -0.1333  0.0288 -0.2005
12671W        W32951   0.165   1.364   2.798  0.0440  0.0858  0.2567
12672W        W32952   6.422   1.315  12.691 -0.2410 -0.1040 -0.0863
12673W        W32953   0.979   1.773  10.633  0.2231  0.1078  0.1334
12674W        W32954  14.121  16.704  10.728 -0.0004 -0.1341  0.2358
12675W        W32955  15.138   5.137   0.532 -0.1920 -0.1883 -0.1592
12676W        W32956   3.303   6.674  13.262 -0.3100  0.0570  0.0520
12677W        W32957  13.960   2.062  12.668  0.3244 -0.1469 -0.1139
12678W        W32958   9.527   7.148  11.444  0.0951 -0.2704 -0.0765
12679W        W32959  14.369   1.905   0.502  0.2939 -0.0983 -0.1363
12680W        W32960  14.471   9.595   3.902 -0.0319  0.0893 -0.0732
12681W        W32961   1.591   0.731   1.175 -0.0793 -0.2362  0.0513
12682W        W32962  10.429   1.532  12.781  0.2502 -0.0963 -0.0051
12683W        W32963   2.229  18.308  12.390 -0.0720 -0.0355 -0.0639
12684W        W32964  13.001   7.225   3.912 -0.1900 -0.0727 -0.2295
12685W        W32965  18.529  17.605  12.423 -0.3529 -0.0904  0.1461
12686W        W32966   9.607  10.419  10.598  0.0577 -0.0019 -0.0202
12687W        W32967   8.533   6.116  10.458 -0.1159  0.0912 -0.1419
12688W        W32968  13.734   5.605  11.175 -0.0267 -0.1230 -0.0267
12689W        W32969   2.871  17.044   9.625 -0.2421  0.1989  0.0900
12690W        W32970  11.390  11.907   3.973 -0.1847  0.1231  0.0857
12691W        W32971   7.329   7.148   0.450 -0.2967 -0.2392 -0.1300
12692W        W32972  14.658  11.453   0.091 -0.2839  0.0591 -0.0891
12693W        W32973  13.835  18.421   9.722 -0.0328 -0.0691 -0.2215
12694W        W32974  11.485   5.762   2.553 -0.2496  0.1108 -0.1940
12695W        W32975  18.373   8.947  13.680  0.3928  0.0520  0.1555
12696W        W32976  11.859  14.910   4.852 -0.0622  0.2313 -0.1678
12697W        W32977   9.002  17.176  12.532 -0.0051  0.0148 -0.0919
12698W        W32978  17.302  12.770  11.273 -0.2610  0.0348  0.0213
12699W        W32979  11.693  13.614  12.804 -0.0778 -0.2309 -0.0493
12700W        W32980   7.003  12.151   9.301  0.1528  0.0738  0.2312
12701W        W32981   7.836   3.654   2.253  0.0235  0.0711 -0.1466
12702W        W32982   9.091  11.092  12.698  0.0809 -0.0489 -0.0708
12703W        W32983   8.135   2.970  10.619 -0.0820 -0.0377 -0.0730
12704W        W32984  17.102   5.328  12.425 -0.1015 -0.0069  0.2442
12705W        W32985  10.380   3.916  13.953 -0.2100  0.1626 -0.2863
12706W        W32986  14.988   0.937   0.841 -0.0145  0.0006  0.0336
12707W        W32987   0.668   5.092  10.837  0.1030  0.0883  0.0597
12708W        W32988  18.976   6.648  10.638 -0.0702  0.1527  0.0542
12709W        W32989  15.432  12.173  11.241  0.2735 -0.0663 -0.0816
12710W        W32990   1.723  13.411   3.010 -0.0368  0.2916  0.0799
12711W        W32991   5.890  17.094   1.013 -0.0838  0.1114  0.2118
12712W        W32992  19.772  12.706   2.448  0.2162  0.0458 -0.1649
12713W        W32993   2.210  17.040  11.031 -0.2733 -0.0292 -0.2604
12714W        W32994  15.822  15.781   1.490  0.1021 -0.1342 -0.3954
12715W        W32995  18.391  12.595  13.677  0.0391 -0.2523 -0.1878
12716W        W32996  14.467  19.505   9.979 -0.3757 -0.1183  0.3280
12717W        W32997  18.838   1.883   3.106  0.0387 -0.0021 -0.2158
12718W        W32998  10.518   6.118  13.891 -0.0895 -0.1302  0.0791
12719W        W32999  19.253  15.085  10.690  0.3970  0.0713 -0.0038
12720W        W33000   6.154   3.068   0.901 -0.1865 -0.1962 -0.2420
12721W        W33001   3.268   1.834   3.544  0.1480  0.0984 -0.0269
12722W        W33002   1.395   7.685   3.280 -0.0649 -0.2283 -0.2150
12723W        W33003  15.245   8.756   3.024  0.1654  0.0703 -0.2375
12724W        W33004   9.549   6.549   4.684 -0.0955  0.1055 -0.2380
12725W        W33005   1.932  10.427   0.192 -0.1429 -0.2140 -0.1587
12726W        W33006   7.147   1.432  12.398  0.0064  0.4441 -0.1374
12727W        W33007  18.597  17.417   1.275 -0.0687 -0.1590  0.1706
12728W        W33008  18.686   6.644  12.671  0.3925 -0.0486 -0.0513
12729W        W33009   4.626   0.492  11.734 -0.1942  0.0393  0.0034
12730W        W33010   9.416  10.775  11.984  0.0055  0.0365  0.3731
12731W        W33011  17.401   5.870  11.151  0.0301  0.0398 -0.0627
12732W        W33012   6.282   9.440  12.453 -0.0356  0.1374  0.0111
12733W        W33013  15.632  12.407  12.090  0.1298 -0.0140  0.1496
12734W        W33014   2.397   3.565   1.019 -0.3158 -0.3080  0.0132
12735W        W33015   9.441  15.993  10.492 -0.3865 -0.0239 -0.3300
12736W        W33016   7.191   6.570   2.326 -0.3359  0.2484 -0.2176
12737W        W33017   9.038  14.259  14.019 -0.1995 -0.0746 -0.0147
12738W        W33018   7.479   8.522   2.570  0.0910 -0.0030  0.1991
12739W        W33019  12.132   4.018   2.064 -0.1483  0.1149 -0.0209
12740W        W33020  10.244  10.965   2.776 -0.0258  0.3044  0.1672
12741W        W33021   8.575  10.357  12.237  0.0225 -0.4681 -0.1842
12742W        W33022  14.658   4.166  12.398 -0.2045  0.1081  0.4406
12743W        W33023   3.611   6.909  13.855  0.0162  0.2474 -0.0720
12744W        W33024   4.663  14.723   2.521  0.1969 -0.0138  0.0978
12745W        W33025   3.923  11.659  13.630 -0.5323  0.1528  0.2013
12746W        W33026  12.709  16.870   0.162  0.1287 -0.1414 -0.1887
12747W        W33027   2.728   9.804   0.675  0.0879  0.1284  0.2370
12748W        W33028  16.091   3.647   1.649  0.0223 -0.0573  0.0412
12749W        W33029  12.728  18.370  13.512 -0.2112 -0.4017 -0.0958
12750W        W33030  14.710  13.443   0.502  0.2026  0.0582  0.1012
12751W        W33031  14.078   8.779   4.270 -0.0283  0.0646  0.0734
12752W        W33032  13.582  17.222   0.011 -0.0016 -0.3233 -0.0062
12753W        W33033   3.001  16.760   0.355 -0.0977 -0.2323  0.1258
12754W        W33034   6.906  16.684  13.065  0.1205 -0.2153 -0.1379
12755W        W33035  17.608  12.160   1.854  0.0347  0.1511 -0.1907
12756W        W33036  12.434  13.859  11.331  0.1770  0.0280  0.0028
12757W        W33037  10.351   1.227   2.512 -0.0832 -0.4755 -0.1348
12758W        W33038   7.659   5.454   2.525  0.2011 -0.2107  0.1971
12759W        W33039   2.434   1.617   0.391  0.0422 -0.2200  0.1862
12760W        W33040   4.367   6.037   2.373 -0.0334  0.2129 -0.0320
12761W        W33041  13.760  11.874  12.751  0.0202 -0.2155  0.0288
12762W        W33042   3.734  16.989  12.327  0.1923 -0.1983  0.1061
12763W        W33043   9.859   7.653  11.432 -0.1572 -0.0350 -0.2437
12764W        W33044  13.162   4.334   1.239 -0.0354  0.0793  0.1049
12765W        W33045   3.591   1.428   8.789  0.1017  0.1245 -0.0009
12766W        W33046   5.077   8.541  11.826 -0.1636 -0.0071  0.0844
12767W        W33047  12.007   4.958   0.406  0.0504 -0.3970 -0.1029
12768W        W33048  16.046   2.210   3.633  0.0363  0.1103 -0.1021
12769W        W33049  19.225   3.463  13.725  0.1105 -0.1551  0.1974
12770W        W33050  16.006   2.566   4.095 -0.0298  0.1475  0.0727
12771W        W33051  12.457   0.074  12.051  0.4984  0.0341  0.0864
12772W        W33052  14.702   6.130   4.433  0.0201  0.2190  0.1248
12773W        W33053   5.357   3.311   1.878  0.0242  0.0795  0.1192
12774W        W33054   0.232  16.801   0.509  0.1586  0.3605 -0.1387
12775W        W33055   8.512   5.917  13.082 -0.0845 -0.1776  0.0251
12776W        W33056  12.347  12.289   1.374  0.1625 -0.0181 -0.2068
12777W        W33057  10.975   5.073   3.432  0.1856  0.1185  0.0109
12778W        W33058  16.320  15.365  12.632  0.1603  0.1749  0.0305
12779W        W33059   0.838  10.056   3.769  0.0086  0.0286  0.1574
12780W        W33060   6.579   1.858   0.507  0.1782  0.0853 -0.2862
12781W        W33061  15.414   3.667  12.254  0.1134 -0.5918  0.0434
12782W        W33062   1.305   7.829  11.614 -0.3077 -0.1113 -0.3950
12783W        W33063   4.806  15.109  12.657 -0.3391  0.3442 -0.3935
12784W        W33064   4.956   6.581  12.417  0.1392 -0.2174 -0.3563
12785W        W33065  16.661   9.635  11.700 -0.0523  0.3079 -0.2077
12786W        W33066  13.807   7.383  13.143 -0.1658  0.1872  0.0862
12787W        W33067  17.738   3.058  13.157  0.0848  0.1806  0.1536
12788W        W33068  15.739  10.488  12.149  0.0855 -0.2190 -0.1673
12789W        W33069  19.104   1.835   2.247 -0.2416  0.0169  0.2102
12790W        W33070  17.108  18.281  13.355 -0.0540 -0.0064 -0.0587
12791W        W33071  14.793  10.084  11.376 -0.8803  0.0031  0.2012
12792W        W33072   5.812  13.191  13.059  0.1811 -0.0395  0.0307
12793W        W33073  18.608   6.825   4.145  0.2251 -0.3465  0.1444
12794W        W33074   4.887   7.835   1.251 -0.0896 -0.2464  0.0597
12795W        W33075   1.681  15.287   3.122 -0.0659  0.0462 -0.0210
12796W        W33076   4.879  19.183  14.090  0.0151  0.0591 -0.1184
12797W        W33077   9.101  18.619  11.109  0.0447 -0.0803  0.3329
12798W        W33078   9.204  19.780   1.063 -0.2443  0.1097 -0.0114
12799W        W33079   7.873   7.325   0.886  0.1208  0.1686 -0.0305
12800W        W33080   7.270   7.178   1.462 -0.1359  0.1928 -0.1534
12801W        W33081   6.732   1.689  10.632  0.1720  0.1616  0.0081
12802W        W33082  12.439   6.492  12.291  0.2067  0.0906 -0.0937
12803W        W33083   7.115   4.929   0.888  0.2077  0.2160 -0.1852
12804W        W33084  15.284  11.105  13.061  0.1598  0.3655  0.0454
12805W        W33085  10.838  16.648   1.126 -0.0433  0.0458  0.1121
12806W        W33086  16.306   0.098   0.961 -0.0228 -0.3399  0.1847
12807W        W33087   6.408  16.476   2.479  0.0675  0.1027 -0.0846
12808W        W33088  12.892  18.710  13.141  0.1055  0.2100 -0.0262
12809W        W33089   9.804  17.256   1.183 -0.0761  0.1712 -0.1513
12810W        W33090   3.623  14.744   2.280  0.1457 -0.0961 -0.1640
12811W        W33091  16.317  18.336  11.884 -0.0173  0.2799 -0.0600
12812W        W33092   0.419   5.607   2.616 -0.0550 -0.0879 -0.3197
12813W        W33093   6.314   4.953  14.005 -0.0594  0.0060  0.0570
12814W        W33094  15.167  17.555  13.295  0.1180  0.4159 -0.3784
12815W        W33095  16.625  13.529   3.773 -0.3751  0.2002 -0.1391
12816W        W33096   6.261  10.977   1.923 -0.5087 -0.0484 -0.0382
12817W        W33097   5.995  16.583   3.488  0.0335 -0.0011  0.2613
12818W        W33098  14.906  19.552  12.437  0.2178  0.3034 -0.0351
12819W        W33099   0.661  15.513   1.185  0.0017  0.2728 -0.5416
12820W        W33100  18.425   2.505   1.852 -0.2198  0.1016 -0.0588
12821W        W33101  13.029  11.754   0.969  0.1376  0.2138 -0.2331
12822W        W33102   4.848  15.652  12.643  0.1707  0.1094 -0.2640
12823W        W33103   5.385  17.630  11.717  0.1254  0.4136  0.0038
12824W        W33104  18.273   9.540   1.691  0.0504 -0.1131 -0.1904
12825W        W33105  16.821   7.711   1.092 -0.1062  0.3193 -0.1962
12826W        W33106  13.334   8.631  11.977  0.0284  0.1539 -0.0345
12827W        W33107  16.434  14.266  13.308 -0.0354 -0.0754  0.1859
12828W        W33108  17.230  15.380   0.126 -0.2996  0.2778 -0.2549
12829W        W33109   3.099   6.308   4.089  0.3959  0.1116 -0.3140
12830W        W33110   5.615   4.900   1.791 -0.0348 -0.1483  0.2917
12831W        W33111   1.832   6.338   2.686  0.0983 -0.3423 -0.0694
12832W        W33112  12.826  10.815  11.180 -0.2604  0.1711  0.0815
12833W        W33113  11.513  14.192  11.625  0.1185 -0.3632  0.0524
12834W        W33114   5.152   3.359  10.710  0.1006  0.0187 -0.1074
12835W        W33115  19.227   5.804   0.716 -0.1895 -0.1554  0.1178
12836W        W33116  19.664  16.180   2.181 -0.3249 -0.0416 -0.2700
12837W        W33117  19.135  12.957   3.200 -0.0588 -0.0472 -0.0329
12838W        W33118  15.449  11.597   3.536  0.1935  0.2061 -0.3579
12839W        W33119   5.761  14.107  10.717  0.1406  0.2746  0.0729
12840W        W33120  18.813  13.962   1.146  0.1267  0.1492  0.3541
12841W        W33121   1.154   4.774  10.598  0.4581 -0.0531 -0.0504
12842W        W33122  15.378  15.692  13.726  0.2513  0.3618  0.1773
12843W        W33123   3.375   3.802  11.214  0.2251  0.0743 -0.0381
12844W        W33124   3.328   0.529  10.356  0.1166 -0.0853  0.0471
12845W        W33125  11.040   1.317   1.643 -0.0370  0.4103  0.0463
12846W        W33126  13.641   9.740  11.149  0.0843 -0.1877  0.1822
12847W        W33127   5.693  10.232   9.205  0.1359  0.2630  0.0298
12848W        W33128  15.135   6.916   2.800 -0.1139  0.0738  0.0255
12849W        W33129   2.096   3.511  13.366  0.2232 -0.0584  0.1799
12850W        W33130  10.079  11.262  13.761 -0.0859  0.2573 -0.3231
12851W        W33131   8.942  11.646  13.374  0.3358 -0.1710  0.2249
12852W        W33132  19.261  14.632   3.033 -0.0066  0.3039  0.0388
12853W        W33133  10.778  16.030  13.294 -0.1409  0.2390 -0.0330
12854W        W33134  13.463   6.475  10.405 -0.1310 -0.2009  0.1635
12855W        W33135   6.071   4.966  11.526  0.0604  0.0078  0.1821
12856W        W33136   5.457   3.799   4.850  0.0123 -0.0389 -0.0689
12857W        W33137  18.173   8.483  12.381  0.2120 -0.0650 -0.0633
12858W        W33138   5.255   8.255  12.556  0.1513 -0.0191  0.4024
12859W        W33139   5.829  11.377   1.039  0.0485  0.1139 -0.2349
12860W        W33140  19.589  14.305   3.919  0.0925  0.1098 -0.0424
12861W        W33141  14.139  17.850   1.205 -0.2190  0.0580  0.0311
12862W        W33142   6.315  10.858  12.791  0.1408  0.0070  0.1294
12863W        W33143  12.003   8.768  12.618 -0.3167 -0.1074  0.2477
12864W        W33144   5.760   9.167  12.064  0.2472  0.0277  0.2229
12865W        W33145  16.207  11.329  13.290 -0.2005  0.2571 -0.3472
12866W        W33146   6.754  18.673   3.925 -0.1334  0.1437 -0.1629
12867W        W33147  16.485   2.714   1.265  0.0855 -0.0754 -0.0896
12868W        W33148  11.280  18.068  14.036 -0.0478  0.1647 -0.0776
12869W        W33149   1.845  11.815   3.359  0.0327  0.0517  0.2024
12870W        W33150  19.470  16.774   0.481  0.0367  0.2755 -0.3452
12871W        W33151   1.334  10.427  10.951  0.1468 -0.1353  0.0455
12872W        W33152  18.958   3.071  13.645 -0.0934 -0.0494 -0.1159
12873W        W33153   0.415  16.692   3.500  0.2225 -0.3246 -0.0617
12874W        W33154  14.520   1.088  13.509 -0.2659 -0.1202  0.3938
12875W        W33155  19.626   4.518  13.068 -0.1791  0.2859  0.1642
12876W        W33156   1.826   1.363  12.306 -0.1168 -0.1079  0.2345
12877W        W33157  17.244  17.825   0.288 -0.0710 -0.3393  0.0264
12878W        W33158  19.000  16.102   9.860 -0.0638 -0.1461 -0.0977
12879W        W33159  18.901   0.343  10.973  0.1251  0.2189  0.0864
12880W        W33160  18.977   0.933  11.535  0.0515  0.0430 -0.0315
12881W        W33161   7.319   8.771   0.748 -0.2122 -0.3567  0.0876
12882W        W33162  15.909   3.537  13.794 -0.0926  0.0084 -0.1247
12883W        W33163   5.188   3.040   1.346  0.2812  0.3804  0.0933
12884W        W33164  11.641  15.673  13.486 -0.0316  0.3061 -0.0349
12885W        W33165   1.820  17.628  11.405 -0.0203 -0.0161  0.0632
12886W        W33166  15.045  12.305   2.634  0.0694 -0.0576  0.0451
12887W        W33167   2.673   9.454  11.599 -0.0653 -0.2964 -0.0141
12888W        W33168   6.101   8.853  12.395  0.1786  0.2621  0.1940
12889W        W33169   1.697  15.302  11.162  0.0599 -0.1400  0.1377
12890W        W33170   4.484  17.671   0.393  0.0640  0.2511 -0.0411
12891W        W33171  15.787   9.857   3.101  0.1364  0.1104 -0.2795
12892W        W33172   6.685  14.115   1.267 -0.0789  0.0570  0.0978
12893W        W33173   9.260  14.504   4.303  0.0236  0.0778  0.2877
12894W        W33174  15.738  19.332  11.338 -0.1867 -0.0690 -0.1021
12895W        W33175  11.747   1.689   0.744  0.2370  0.1566 -0.1121
12896W        W33176  11.014   7.844   1.400  0.0839  0.1652 -0.0710
12897W        W33177   4.408   0.885   1.604  0.5579 -0.0006 -0.2435
12898W        W33178  14.849  15.326   0.378  0.1259  0.2342  0.2613
12899W        W33179   6.300  16.070   2.895 -0.1842  0.4039 -0.0983
12900W        W33180   9.052  19.418   1.349  0.0887  0.1088 -0.1190
12901W        W33181  18.051   4.475   3.914  0.1349  0.2626 -0.0843
12902W        W33182   8.886  19.291   3.505 -0.0294  0.2117  0.0301
12903W        W33183   8.507  16.155  10.194  0.0757 -0.4090 -0.0437
12904W        W33184  19.278   4.576   1.800  0.1761 -0.0489 -0.0093
12905W        W33185  16.501   1.241  12.110  0.0206  0.0397  0.0669
12906W        W33186  18.484   3.732   0.644 -0.1277  0.4386 -0.0970
12907W        W33187   9.335  17.680   2.751  0.3047  0.0346  0.1652
12908W        W33188  18.691   4.154  13.392 -0.0230 -0.1375 -0.1753
12909W        W33189   1.452  18.760   1.425 -0.0719  0.1965 -0.0635
12910W        W33190   8.538  14.896   1.933 -0.0187  0.1289 -0.1508
12911W        W33191  10.703   0.842   0.708  0.1978  0.0521 -0.0109
12912W        W33192  10.887  10.037   1.340  0.1862  0.1639 -0.2803
12913W        W33193   0.616   5.121   2.495  0.2290  0.1004 -0.0087
12914W        W33194  10.658   1.839  11.672  0.1189  0.3646 -0.1531
12915W        W33195  12.317   9.862  10.348 -0.0152  0.1113  0.1975
12916W        W33196  18.772   4.209   3.464  0.2522 -0.1177 -0.0866
12917W        W33197  16.780   1.575  11.484  0.1840  0.0583  0.4409
12918W        W33198   7.953   6.249   1.609 -0.0453 -0.0840  0.2559
12919W        W33199   5.664  19.668   2.339  0.1974 -0.2963 -0.2134
12920W        W33200   1.824  16.349   0.513 -0.0958  0.0964  0.2247
12921W        W33201  11.458   9.398   0.476  0.1521  0.2491  0.0618
12922W        W33202   3.819   7.732   5.015 -0.0327 -0.1986  0.1612
12923W        W33203   5.453  16.399   2.933  0.1422  0.1893 -0.2024
12924W        W33204  13.819   1.190  12.714 -0.1349  0.1631 -0.2344
12925W        W33205  14.005  16.789   0.024 -0.0431 -0.2818  0.2925
12926W        W33206  16.812   5.997  13.532 -0.0361  0.2438 -0.2986
12927W        W33207   6.445  17.091  10.472 -0.0712  0.0164 -0.1700
12928W        W33208   8.238   6.465   3.922 -0.0632  0.4407  0.0892
12929W        W33209   0.127   4.402  11.723  0.1313 -0.2546 -0.1108
12930W        W33210  13.472  15.145  11.215 -0.2714 -0.0828  0.1399
12931W        W33211   0.550  17.171   3.966  0.0995 -0.1489  0.1605
12932W        W33212   8.837   3.211  11.412  0.1288  0.2238 -0.0781
12933W        W33213  16.068   2.749  13.123  0.1451 -0.1724  0.1838
12934W        W33214   2.522   7.911   1.279  0.0088  0.0045 -0.3912
12935W        W33215   4.475   0.613  13.444 -0.1842 -0.1137  0.2019
12936W        W33216  15.864   5.395  12.126 -0.2460  0.0279  0.4187
12937W        W33217  13.020   9.911  11.385 -0.0198 -0.1501 -0.0161
12938W        W33218  19.780   7.280   4.052  0.0443 -0.0950 -0.0668
12939W        W33219   2.289   1.126   2.959  0.3880 -0.2498  0.0465
12940W        W33220  16.919  17.814   4.337  0.2946 -0.1406  0.0411
12941W        W33221   1.297  15.694  12.858  0.1707 -0.1491 -0.2709
12942W        W33222  17.733   6.728  13.345 -0.0671 -0.0250  0.0144
12943W        W33223  17.101   0.800  13.033 -0.1401  0.3770  0.1280
12944W        W33224  16.772  15.673   0.691  0.1703  0.0981  0.2179
12945W        W33225   3.962  16.236   3.871  0.0618  0.0908 -0.1266
12946W        W33226  17.951   2.559   0.458 -0.1319  0.1556 -0.0585
12947W        W33227  18.949  14.399  12.968 -0.0770 -0.0810 -0.0534
12948W        W33228  19.174   3.356  12.455  0.0608  0.3837  0.0070
12949W        W33229   1.479  18.101  10.796 -0.2744  0.0593 -0.0756
12950W        W33230  15.765  19.106  12.638 -0.0738 -0.2906  0.0059
12951W        W33231  13.621  15.623  11.488  0.1840 -0.0365  0.0967
12952W        W33232   2.358   9.940   1.093  0.1642  0.2421  0.5754
12953W        W33233   5.593   2.700  11.533  0.2100  0.2379  0.1153
12954W        W33234  14.702   9.133  11.372 -0.1331  0.1518  0.2760
12955W        W33235  16.380   7.452  13.171 -0.0362  0.0171 -0.1628
12956W        W33236   4.956  17.247   5.266  0.2556 -0.1081  0.1502
12957W        W33237   4.643   7.445   2.588  0.0035  0.0458 -0.0753
12958W        W33238  15.048   2.828   1.733  0.3423 -0.3063 -0.0883
12959W        W33239   0.711  19.201  12.331  0.0459 -0.4356 -0.0703
12960W        W33240   2.909   9.433  13.912  0.1018  0.0686 -0.0206
12961W        W33241   8.493  18.279  12.049  0.1457 -0.1413  0.0582
12962W        W33242  11.037  13.833  11.190 -0.3189  0.4628  0.0450
12963W        W33243  15.732  13.430   3.833  0.2500 -0.0687 -0.0581
12964W        W33244  10.353  10.998   1.426  0.2674  0.2693 -0.0413
12965W        W33245   0.239   1.600   2.377  0.0854 -0.1866  0.0201
12966W        W33246  14.130  18.012  10.951 -0.0322  0.1763 -0.0234
12967W        W33247   4.616  17.228  12.910  0.4035 -0.0349  0.4707
12968W        W33248  17.026   7.262  10.881 -0.1946 -0.0912  0.1133
12969W        W33249  18.598  15.557   3.679 -0.1841  0.1546  0.2859
12970W        W33250  12.323   9.549  14.001 -0.0449 -0.1590  0.1153
12971W        W33251   5.142   7.674   2.796  0.1268  0.1683  0.3557
12972W        W33252   5.911  16.376  12.650  0.3354  0.2617 -0.1852
12973W        W33253  10.112  12.300   1.276 -0.1669 -0.0291 -0.0796
12974W        W33254   3.388   5.547   2.085 -0.1973 -0.0290 -0.2586
12975W        W33255  18.634  17.316   4.214 -0.0274  0.1509 -0.1777
12976W        W33256   0.747   7.087   0.026 -0.0280  0.2304 -0.0412
12977W        W33257  19.160   8.559  12.551  0.0213  0.0191 -0.0268
12978W        W33258   6.148  13.809   1.937  0.0472 -0.1430 -0.0121
12979W        W33259  12.761   4.848   3.242  0.0032 -0.0562  0.1160
12980W        W33260  14.027  12.806  12.337  0.0231  0.0937  0.0970
12981W        W33261  17.453   3.538  13.713  0.0029  0.1087  0.0727
12982W        W33262   9.210  12.512   0.823 -0.2729  0.2120 -0.0128
12983W        W33263   3.130   6.799   3.295  0.0856 -0.0189 -0.0772
12984W        W33264  18.821  17.197  13.751 -0.3468 -0.0577  0.0467
12985W        W33265   7.436   4.158   4.566 -0.2647  0.0136 -0.1393
12986W        W33266  12.063  16.226   1.228  0.1210 -0.0911 -0.0418
12987W        W33267   3.007   6.903  12.865 -0.1859 -0.0316  0.0993
12988W        W33268  17.768   9.287  10.102  0.2020  0.2473 -0.0291
12989W        W33269  11.831   2.903  10.011  0.0300  0.1742 -0.2475
12990W        W33270  12.931  12.796   2.575  0.1428  0.0238 -0.0805
12991W        W33271  15.669  11.047  12.742 -0.2996  0.0695  0.0338
12992W        W33272   7.873   8.256   0.615  0.0272  0.1151 -0.1533
12993W        W33273  10.802  11.617   0.338  0.1724  0.1694  0.0546
12994W        W33274   9.417  19.721  10.665  0.2133 -0.0367  0.2517
12995W        W33275  11.457  18.059  13.190  0.0689  0.0996 -0.2264
12996W        W33276  17.033  10.583   4.254  0.0398 -0.0099  0.0690
12997W        W33277  14.781  13.506   3.889 -0.2686  0.1614 -0.1566
12998W        W33278   4.475   2.527  12.413 -0.1917 -0.0513 -0.1491
12999W        W33279   0.016  17.021  12.797  0.4129 -0.2303 -0.0012
13000W        W33280   8.388  15.872  13.954 -0.1725 -0.1813  0.0132
13001W        W33281   9.077   8.355  11.582 -0.2003 -0.2769  0.0565
13002W        W33282  11.802  15.370   3.793  0.1193  0.0640 -0.3558
13003W        W33283   4.438   8.776  11.474  0.0603 -0.0680  0.0757
13004W        W33284   9.621  15.557  13.308 -0.0032  0.1155 -0.0583
13005W        W33285  15.971  10.418   1.613 -0.1939  0.2406  0.0341
13006W        W33286  14.896   4.116  10.824  0.0052 -0.1561 -0.1950
13007W        W33287  10.552  12.895   0.630 -0.2002  0.1189  0.0125
13008W        W33288  11.049  11.581   1.799  0.1381  0.1591  0.0986
13009W        W33289  17.378  14.401   2.213 -0.1104 -0.0307  0.1651
13010W        W33290   3.646  18.045  13.712 -0.1364 -0.1849  0.0981
13011W        W33291  13.032  11.307  12.790  0.1217 -0.1663  0.0235
13012W        W33292   5.065   5.936  11.618 -0.1620 -0.0427 -0.0987
13013W        W33293  13.143   7.809  11.285 -0.0704  0.0231  0.0548
13014W        W33294  13.683  12.980  13.469  0.1796 -0.0867 -0.2025
13015W        W33295   1.151   4.413   0.757 -0.0537 -0.0455  0.2076
13016W        W33296   5.609   3.672  13.693 -0.1192 -0.0003 -0.1028
13017W        W33297   9.191  15.892   1.166 -0.1075  0.0359 -0.0033
13018W        W33298  10.253  12.270   0.506  0.0492 -0.1144  0.2580
13019W        W33299  18.419   8.263   0.819  0.0264 -0.1712 -0.1965
13020W        W33300  12.968  15.223  12.486  0.1268  0.4124  0.2039
13021W        W33301  15.098  13.732   1.868 -0.4112  0.1520  0.2303
13022W        W33302   7.090  18.401  11.311  0.1219 -0.0773 -0.1203
13023W        W33303   1.208  19.551  10.692  0.3355 -0.4971 -0.1485
13024W        W33304  10.110   3.294   2.303 -0.3488  0.0434 -0.1933
13025W        W33305   8.159   8.531   0.358  0.4889 -0.1878 -0.1152
13026W        W33306  13.574   4.059  12.587 -0.3583  0.1333  0.2497
13027W        W33307   9.355   1.194   2.091 -0.2174  0.3745  0.1645
13028W        W33308  16.353  17.101  13.011  0.2672  0.0480  0.3966
13029W        W33309  16.099  11.769   0.578 -0.1560  0.0853 -0.0131
13030W        W33310  19.435  14.134   2.790  0.0373  0.0153  0.0104
13031W        W33311  19.583  10.987  13.627 -0.3591 -0.1022 -0.0900
13032W        W33312  15.281  11.196  10.780 -0.1674  0.0476  0.1632
13033W        W33313   5.689   9.340   0.824  0.3136 -0.0918 -0.0842
13034W        W33314  17.363  11.921   3.198 -0.1095  0.0730 -0.1092
13035W        W33315  12.231   1.130  10.792  0.2380  0.2217 -0.0481
13036W        W33316   1.396  12.687   3.374 -0.2878 -0.2091 -0.2444
13037W        W33317  18.335  10.337   1.148  0.2714 -0.0489  0.3154
13038W        W33318  18.779   5.147  10.181 -0.1546  0.2623 -0.1729
13039W        W33319   9.975  17.431   9.322 -0.3142  0.4922  0.3265
13040W        W33320   1.292   9.122   1.289 -0.1658  0.0505 -0.2682
13041W        W33321  12.500   2.713   1.127  0.0529 -0.0575  0.0088
13042W        W33322   2.944   8.404  13.954  0.3125 -0.0441 -0.1692
13043W        W33323  11.597   0.651  13.084  0.1010  0.2590 -0.1123
13044W        W33324  10.177  15.286  13.762  0.2245  0.0281 -0.5928
13045W        W33325   4.121  16.575  11.288  0.1228  0.2491  0.0908
13046W        W33326  13.640   2.678   0.763 -0.0641  0.1873 -0.3741
13047W        W33327  12.386   1.058  11.903  0.1028  0.0323 -0.2245
13048W        W33328   7.598   8.443  12.654  0.0467 -0.1406  0.2402
13049W        W33329  18.409   1.485  13.257  0.0475  0.1573 -0.0383
13050W        W33330   9.736   0.934  10.391  0.0207  0.1723  0.1901
13051W        W33331  14.321   6.903  12.216  0.1631 -0.0041 -0.4320
13052W        W33332  19.363  17.032   3.797 -0.2035 -0.0319 -0.0997
13053W        W33333   3.596  12.570   0.963 -0.1379 -0.4588  0.2547
13054W        W33334   6.246   0.443   3.388  0.0328  0.3806 -0.4776
13055W        W33335   6.289   1.325  10.973 -0.1756 -0.0759 -0.0700
13056W        W33336   6.735   5.627   4.282 -0.0692 -0.2620  0.0751
13057W        W33337  10.604  15.309  14.058  0.2440 -0.0680  0.0055
13058W        W33338  10.749  17.018  13.829  0.0531  0.0582  0.1495
13059W        W33339   4.932  17.671   1.351 -0.1477  0.0203  0.1714
13060W        W33340  18.249  11.839  12.487  0.1582 -0.2410 -0.1723
13061W        W33341   8.029   5.766   2.977  0.0604  0.1750 -0.0304
13062W        W33342  16.260  16.775  12.268 -0.0438  0.2020 -0.3597
13063W        W33343   5.547   5.687   0.120 -0.2602  0.0397  0.3790
13064W        W33344   5.465  16.015  11.475  0.2631  0.1514 -0.4054
13065W        W33345  19.339   8.002  11.008  0.3361  0.0313  0.2988
13066W        W33346   9.387   9.112   1.364 -0.1133 -0.1008 -0.1764
13067W        W33347   9.996  18.474  12.359  0.2774  0.0600  0.1938
13068W        W33348  14.136  18.088  12.908 -0.2009  0.1317  0.2400
13069W        W33349   6.175  11.694  10.407  0.1265 -0.1641 -0.4514
13070W        W33350  15.205   9.312   0.892 -0.0629 -0.0331 -0.0496
13071W        W33351   8.716  15.937   2.552 -0.2121 -0.5249  0.2602
13072W        W33352  10.823   5.775  11.418  0.1508  0.2060  0.1354
13073W        W33353  14.218  13.772  11.879  0.1334 -0.0165  0.2472
13074W        W33354  16.483   8.391   1.689  0.2283  0.2091  0.0202
13075W        W33355   9.124   9.850   3.354 -0.1504 -0.1051 -0.1968
13076W        W33356   8.515  14.810   2.440 -0.0085  0.2004  0.1263
13077W        W33357   9.390   0.751   0.240  0.1479  0.2973 -0.0974
13078W        W33358  13.346   2.555  12.038  0.7173 -0.1068  0.0045
13079W        W33359   2.598   9.813  12.394 -0.1741  0.0855 -0.0234
13080W        W33360  10.467   0.204  12.030  0.2672  0.2012 -0.3474
13081W        W33361  13.323   9.166  11.729  0.2046  0.4344  0.0728
13082W        W33362   2.316  17.091  13.907  0.1732 -0.1980 -0.0526
13083W        W33363   0.888   9.141   3.907 -0.0687  0.0642 -0.0766
13084W        W33364   0.146  11.605  12.063 -0.0498  0.1529  0.1699
13085W        W33365  10.540   8.607   1.962 -0.0026  0.0917  0.2381
13086W        W33366   3.032   1.703   1.298 -0.2052 -0.0472 -0.1836
13087W        W33367   1.870   3.439   2.430 -0.3020 -0.3336  0.1324
13088W        W33368   4.631  14.049   3.782  0.0986  0.2893 -0.1640
13089W        W33369  19.526   6.835   3.024  0.0090 -0.0376  0.3713
13090W        W33370   2.263   0.219   2.693 -0.1519 -0.0987  0.2987
13091W        W33371  10.821   2.988   3.790  0.0839 -0.1976  0.0535
13092W        W33372  17.146   8.919  11.337 -0.0302  0.3651  0.2773
13093W        W33373  16.251   3.914  11.081 -0.0386 -0.4589 -0.1582
13094W        W33374  17.201   2.668  10.378  0.1167 -0.1741  0.1113
13095W        W33375  19.427  14.790   0.329  0.0010  0.1009 -0.0690
13096W        W33376   4.348  10.181   2.684 -0.0712 -0.0358 -0.1107
13097W        W33377  14.035   6.427   0.904  0.3454  0.1486 -0.2151
13098W        W33378  12.493  16.603  13.516 -0.1362  0.0113 -0.0167
13099W        W33379   4.747   8.588  12.699 -0.2241  0.2636 -0.0939
13100W        W33380  12.738  10.491  10.766  0.0266  0.2333  0.3462
13101W        W33381  10.011  10.026   1.488  0.1340 -0.0319  0.0629
13102W        W33382  19.198  18.233   1.380  0.0233  0.2814 -0.5114
13103W        W33383   4.658  13.333  10.861  0.1413 -0.0312  0.0633
13104W        W33384  10.099  12.429  13.294  0.1314 -0.1250 -0.3583
13105W        W33385  14.253   3.272   1.711 -0.2665 -0.2019 -0.1413
13106W        W33386   2.496   5.271   1.688  0.1344  0.1591 -0.1219
13107W        W33387   9.762   3.463  11.418 -0.4341  0.0269 -0.2789
13108W        W33388   6.445  10.371  11.907  0.1821 -0.2765 -0.2730
13109W        W33389  15.735   2.287   1.105 -0.1699 -0.0758  0.1713
13110W        W33390   6.171  17.528   0.185  0.3061 -0.1080  0.0185
13111W        W33391  12.426   6.965  13.801 -0.2725 -0.1728  0.0156
13112W        W33392   8.411  17.086  13.676  0.2034  0.0118 -0.2957
13113W        W33393   1.448   3.167   0.195 -0.0349 -0.1543 -0.1332
13114W        W33394   4.087  15.969   0.260 -0.0001  0.1643 -0.0671
13115W        W33395  15.526   4.881   3.889  0.0441  0.1364  0.0999
13116W        W33396   1.863   4.748   3.097  0.0454 -0.1982 -0.0666
13117W        W33397   3.744   2.241   1.741  0.2659  0.1099 -0.2286
13118W        W33398   6.568   9.670  12.805 -0.0900 -0.0747  0.1185
13119W        W33399  17.080   0.687   0.138  0.2288  0.0998 -0.3146
13120W        W33400  16.205  16.377  11.731  0.0481 -0.0680  0.0870
13121W        W33401  11.356   3.594   1.746 -0.5218 -0.1075  0.1672
13122W        W33402   4.492  11.548   4.218 -0.1053 -0.0596 -0.0435
13123W        W33403  14.159   4.341  11.178  0.1455  0.0425  0.0762
13124W        W33404   2.870  14.252   1.567  0.1777 -0.1048 -0.1687
13125W        W33405  13.298   3.266   0.968 -0.1136 -0.0511 -0.2006
13126W        W33406   1.977   0.549  12.066  0.1010 -0.3418  0.0533
13127W        W33407   7.876  14.800   1.197 -0.1977  0.0976 -0.0187
13128W        W33408  19.722  19.152   0.827  0.2011  0.0457 -0.0024
13129W        W33409   8.154  18.428   2.056 -0.2196  0.0361  0.3372
13130W        W33410  14.811  11.229  12.915 -0.4004 -0.0400  0.0314
13131W        W33411   8.669   0.853   0.838 -0.0675  0.2681 -0.4041
13132W        W33412   6.625   1.454   1.305  0.0361  0.0391 -0.2168
13133W        W33413  19.513  13.174   9.709 -0.3393 -0.1452  0.0697
13134W        W33414  17.628   8.537   0.116  0.0634 -0.0965 -0.4313
13135W        W33415   3.175   3.281   0.150  0.0252  0.2597 -0.0520
13136W        W33416   6.392   3.948   1.979  0.0615 -0.0557  0.1684
13137W        W33417   8.120  19.105   2.085  0.0938  0.2171 -0.0904
13138W        W33418  10.122   6.966   1.425  0.0692 -0.0779 -0.2423
13139W        W33419  14.696   3.421   3.597 -0.6103  0.1403 -0.1362
13140W        W33420   8.843   1.236   1.123 -0.2838  0.3218 -0.3029
13141W        W33421   8.245  17.039   0.122 -0.0219 -0.0343  0.1652
13142W        W33422  10.383   7.885   0.312  0.1685  0.1114  0.0921
13143W        W33423   9.519  18.412  14.000 -0.0992  0.0853 -0.2002
13144W        W33424   1.450  13.864  12.206 -0.0359 -0.0901  0.1174
13145W        W33425   4.320  16.449   0.955 -0.0930  0.0686  0.0963
13146W        W33426  17.299   6.255   3.466  0.4478  0.1846  0.1530
13147W        W33427  13.842   8.650  11.340 -0.0451 -0.3097 -0.1664
13148W        W33428   9.022   3.391   9.099 -0.0164 -0.2325  0.0557
13149W        W33429   7.535   0.653   2.799 -0.1322 -0.0578  0.0420
13150W        W33430   1.532   0.316  12.558  0.0800 -0.3004  0.1866
13151W        W33431  15.955   3.882   1.187 -0.1181  0.2112  0.0190
13152W        W33432   6.880   4.994  12.772  0.1588 -0.1889  0.0372
13153W        W33433  13.951   7.530   2.580 -0.2142 -0.1856  0.2248
13154W        W33434   5.159  11.530   1.467  0.1729  0.0701  0.2770
13155W        W33435   5.039   7.723   3.557  0.1006  0.0350 -0.0117
13156W        W33436  11.329   4.920   3.004 -0.0529 -0.0988 -0.0028
13157W        W33437   7.681   6.349  13.021  0.2461 -0.0163 -0.0800
13158W        W33438  13.252  11.286   2.021 -0.2739 -0.1440  0.1961
13159W        W33439   3.494   1.019   1.001 -0.1373  0.1067  0.2074
13160W        W33440  12.363  17.501   0.121  0.0172  0.1958  0.1552
13161W        W33441  12.237   2.787  12.859  0.2608  0.1970 -0.2041
13162W        W33442  14.046  11.511  10.310 -0.2843  0.1909  0.0513
13163W        W33443   2.451  11.914   2.969 -0.0768  0.0088  0.0711
13164W        W33444  11.289   4.038   0.527  0.3119 -0.0318 -0.1428
13165W        W33445  17.623  19.698   1.362 -0.0369  0.2625 -0.0277
13166W        W33446  16.852   1.386   1.418  0.0948 -0.2357  0.2615
13167W        W33447  16.726  15.607   1.572  0.0370  0.0173 -0.2419
13168W        W33448  17.283  12.505   3.696 -0.0639 -0.0314 -0.2552
13169W        W33449   9.307  19.000  13.361 -0.1332 -0.0988  0.3774
13170W        W33450  16.991   2.485   3.072 -0.0176 -0.1848  0.0121
13171W        W33451   4.926  17.001   0.272  0.2004  0.0156  0.1517
13172W        W33452   7.606   2.764   2.950  0.0077  0.1686  0.3725
13173W        W33453   1.418   6.364  13.971  0.1039 -0.1752  0.3613
13174W        W33454  17.934   1.327   3.103 -0.3729  0.4242 -0.3124
13175W        W33455   2.724  18.346  11.466  0.0429  0.1460 -0.0143
13176W        W33456   8.247  12.597  10.834 -0.2355 -0.1989  0.1050
13177W        W33457   6.190   1.602  12.339 -0.1952  0.2613  0.1992
13178W        W33458   9.653  16.775   9.941 -0.4535  0.1699  0.2053
13179W        W33459   7.540  14.460   1.095  0.1366  0.4329  0.1693
13180W        W33460   2.771  17.601  12.219 -0.1339 -0.0192  0.1339
13181W        W33461  14.426  13.508  11.114  0.1023 -0.0453 -0.0613
13182W        W33462  14.465  15.790  13.218 -0.3074  0.1127 -0.3215
13183W        W33463  19.444   3.491   3.988 -0.1008 -0.1337  0.0027
13184W        W33464   7.048  12.291   5.155 -0.1376 -0.0878 -0.0487
13185W        W33465   5.287   3.907   0.505 -0.1688 -0.1587 -0.1210
13186W        W33466   7.846  19.523   1.889  0.0459  0.2791 -0.2441
13187W        W33467   0.883   3.898  12.296 -0.0376 -0.1062 -0.0465
13188W        W33468   7.813   9.117  13.153 -0.0979  0.1903  0.2958
13189W        W33469  16.576  12.182   3.031 -0.0232  0.1963 -0.2975
13190W        W33470   6.590  11.493  13.663  0.0959 -0.0413 -0.2288
13191W        W33471   7.303   5.120   3.116 -0.0524 -0.5044  0.1473
13192W        W33472  13.641   2.733  10.330  0.2077 -0.1048 -0.1713
13193W        W33473   1.619   0.034  10.683 -0.4715  0.1525 -0.4690
13194W        W33474   2.288  17.973  11.987  0.3496 -0.0388 -0.0610
13195W        W33475   8.067  19.683   3.824 -0.0367 -0.0575  0.0321
13196W        W33476   3.816   8.095  12.504  0.1186 -0.0367  0.0668
13197W        W33477  15.876  18.105  10.613 -0.2128  0.0399  0.0969
13198W        W33478  19.475   7.144   3.452 -0.2993 -0.1196 -0.3107
13199W        W33479  12.322  12.052  11.030 -0.0275 -0.0474  0.4867
13200W        W33480   6.530   3.636   1.208  0.2893  0.1054  0.0421
13201W        W33481  12.914   8.264   4.609  0.0226  0.1401 -0.1030
13202W        W33482  18.497  13.913   0.257 -0.1192  0.2477 -0.0463
13203W        W33483  13.867  12.119   1.098 -0.3691 -0.0630  0.1461
13204W        W33484   0.242   2.556   1.822 -0.0459  0.0145 -0.1087
13205W        W33485  19.665  18.241   2.889  0.0078 -0.1971  0.0077
13206W        W33486  17.229   6.062  12.747  0.0375 -0.0715  0.0151
13207W        W33487   6.336  19.520   1.052 -0.1973  0.0105 -0.0250
13208W        W33488  16.258  10.019   2.369  0.1626 -0.1175 -0.3132
13209W        W33489   1.150   4.233  10.657  0.3711  0.0635  0.2522
13210W        W33490  17.006  18.002  11.832 -0.0841  0.0284  0.0614
13211W        W33491   8.956   8.134  12.422 -0.2348 -0.1373  0.0393
13212W        W33492  16.270  18.881  10.617  0.0684 -0.3026 -0.2369
13213W        W33493   1.255   4.101   2.723  0.0203  0.1510 -0.1284
13214W        W33494   9.535  13.313   0.751  0.2841  0.2334 -0.1995
13215W        W33495  15.892   1.368  10.161 -0.1157  0.2165  0.0698
13216W        W33496  19.396   8.853  12.138 -0.2673 -0.0503 -0.0423
13217W        W33497   6.784   7.733  12.069  0.1594  0.2489 -0.3350
13218W        W33498   6.824  19.263  13.923 -0.3278  0.0236 -0.4622
13219W        W33499  11.231  11.940   0.199  0.1049 -0.1693 -0.2462
13220W        W33500  12.332  19.244  11.364 -0.1070  0.5650  0.0702
13221W        W33501  18.796  13.731   3.113  0.1640  0.1304 -0.1361
13222W        W33502  14.285  16.665   3.179  0.1458 -0.1112 -0.2608
13223W        W33503   5.095  15.670   0.440 -0.0241  0.0393 -0.0642
13224W        W33504  13.417  11.230  10.934 -0.0379  0.0804  0.3119
13225W        W33505   4.567   5.041  11.399 -0.0266 -0.0496  0.1127
13226W        W33506  11.901   7.893   3.690  0.2945  0.1469 -0.1535
13227W        W33507  18.730  13.032  11.942 -0.1087  0.3349 -0.1755
13228W        W33508  16.363   6.385   0.310 -0.1839  0.0647  0.0394
13229W        W33509   7.805   3.715  13.450 -0.0671 -0.1300  0.3008
13230W        W33510  15.520  12.420  12.829 -0.3241 -0.1455 -0.4253
13231W        W33511  15.832   1.431   2.280 -0.0039  0.0406 -0.1101
13232W        W33512  14.632   6.376   2.005  0.1571  0.1376  0.0639
13233W        W33513  15.609  15.944  11.287 -0.1760 -0.2080 -0.0774
13234W        W33514   5.480  18.498  12.599 -0.3054 -0.1061 -0.0863
13235W        W33515   8.536  19.466  13.689 -0.0089  0.0393  0.1311
13236W        W33516   2.949  18.894  12.744 -0.1657  0.0108  0.3254
13237W        W33517  18.609  16.786   1.539  0.3208 -0.1256  0.1372
13238W        W33518  18.786   1.453   3.630  0.1557 -0.0299 -0.1077
13239W        W33519  13.614  12.075   1.570 -0.0342 -0.3046 -0.2446
13240W        W33520  13.226  16.531   0.587  0.2607  0.0116  0.3649
13241W        W33521   5.583   3.761  12.646  0.3283  0.2095  0.0258
13242W        W33522   0.998   6.317   2.369 -0.1390 -0.1567 -0.1608
13243W        W33523  15.302   6.041   3.127 -0.2575  0.0512 -0.0471
13244W        W33524   1.830   0.118  11.655 -0.1001 -0.0590 -0.1721
13245W        W33525   7.426   4.747  10.492  0.1443  0.1766  0.2110
13246W        W33526  17.196  12.511   1.594 -0.0216 -0.1173  0.4556
13247W        W33527   6.445  13.380  11.982 -0.4018  0.1695 -0.0330
13248W        W33528  17.549  17.547  10.627  0.2508  0.0111 -0.0096
13249W        W33529   2.816   4.768  10.872  0.0526 -0.0529 -0.1682
13250W        W33530  13.216   7.786  12.615  0.0789  0.0436 -0.0489
13251W        W33531  13.942  12.952  11.897  0.0578 -0.2852  0.2176
13252W        W33532  12.773   2.549  10.077  0.1711  0.2519  0.1293
13253W        W33533   0.716  18.565   0.744 -0.2435 -0.2233  0.0593
13254W        W33534   4.401   7.269   2.209  0.0483 -0.2374  0.0136
13255W        W33535   8.089  14.682   2.189 -0.1217 -0.2830  0.2382
13256W        W33536   3.958   8.956   0.703  0.0152  0.1955  0.0036
13257W        W33537  15.678  14.165   9.961  0.2885 -0.1418  0.3631
13258W        W33538   2.374   0.614   2.390  0.1022  0.1680  0.0540
13259W        W33539   4.094  14.637   3.783 -0.4144  0.0099 -0.2112
13260W        W33540  18.314  15.724   0.661 -0.0549  0.3097  0.2286
13261W        W33541  15.596  18.849   1.137  0.1861 -0.1333 -0.1231
13262W        W33542  14.638   8.147  13.011  0.0040 -0.0797 -0.4682
13263W        W33543   3.096   2.675   2.863 -0.1324 -0.2122 -0.0321
13264W        W33544  11.386   8.685   4.313 -0.0270 -0.0600 -0.2152
13265W        W33545   8.881  17.583   2.921 -0.0383  0.1160 -0.0487
13266W        W33546   7.181   3.351   1.791 -0.1353 -0.1968  0.1084
13267W        W33547   7.318  10.828  11.688  0.0671  0.0223  0.2794
13268W        W33548   1.796   2.242   1.506 -0.0848 -0.2304 -0.3572
13269W        W33549  11.354  19.304   1.307 -0.2941  0.0956  0.2192
13270W        W33550  16.764  12.546  12.746 -0.0713  0.1152 -0.1950
13271W        W33551  14.735   3.400   9.661  0.1603 -0.0166 -0.0730
13272W        W33552   6.114   6.707  10.922 -0.2165 -0.1359 -0.3070
13273W        W33553   5.692  11.936   3.766  0.0326  0.0103  0.2794
13274W        W33554  13.930  14.159  13.367 -0.0243  0.1245  0.1916
13275W        W33555   6.935  15.458  13.460 -0.2187  0.0591 -0.3200
13276W        W33556  12.537  18.844   2.614  0.1284 -0.0160  0.2581
13277W        W33557   5.766   5.017   2.307 -0.3847 -0.0786 -0.2729
13278W        W33558   8.480  16.775   3.706  0.0849  0.0021 -0.0899
13279W        W33559   6.315  19.517  13.395  0.1356 -0.3562  0.3539
13280W        W33560   0.121   8.611  13.133 -0.4071 -0.0948 -0.2023
13281W        W33561   5.852  15.470   1.122 -0.1497  0.0860  0.0255
13282W        W33562  14.659  11.212   1.083  0.0664 -0.0560 -0.1160
13283W        W33563   1.594  17.489  10.258 -0.0143  0.1159 -0.2063
13284W        W33564   0.510  14.148   1.388  0.2079  0.0434 -0.0139
13285W        W33565  13.610  15.358  13.312 -0.0115 -0.1731  0.1651
13286W        W33566  15.392   0.150  12.999  0.2575  0.0299  0.2370
13287W        W33567  13.692   7.965   1.541 -0.4042 -0.1360  0.1011
13288W        W33568   0.622   5.591  11.629 -0.0040 -0.1818 -0.0005
13289W        W33569   2.756   1.543  13.579  0.1040 -0.0841  0.0270
13290W        W33570   7.846  13.269   3.226 -0.0706 -0.0958  0.0453
13291W        W33571  15.634   8.834   3.375 -0.0118  0.0343  0.0247
13292W        W33572  13.890  10.279   2.374  0.0208  0.2151  0.1952
13293W        W33573   4.194  13.065   2.911  0.0201 -0.0041 -0.2008
13294W        W33574  12.056   8.872   1.853 -0.0606 -0.1614 -0.2141
13295W        W33575  12.488   7.456  13.859  0.0233 -0.1226  0.0415
13296W        W33576  11.910  15.796  13.845  0.0200  0.0525  0.1040
13297W        W33577   8.587   0.198   0.501 -0.2370  0.1325 -0.0056
13298W        W33578   9.143  17.561   4.759 -0.1064 -0.1366  0.0253
13299W        W33579  18.732  12.741   2.944  0.1123  0.0812 -0.0150
13300W        W33580  12.952   8.372  12.246  0.0554  0.0346  0.2302
13301W        W33581  17.861  12.657   1.998 -0.5000 -0.2527  0.0432
13302W        W33582  19.542  10.515   3.189  0.2129  0.1017  0.0811
13303W        W33583   2.652  12.903   0.957 -0.1050  0.0429 -0.0126
13304W        W33584  15.936   8.660   0.566 -0.0244 -0.3101 -0.0781
13305W        W33585  17.794  10.877   3.819  0.0106  0.4246  0.0214
13306W        W33586   4.134  17.988  13.705 -0.2918 -0.0091 -0.2222
13307W        W33587  14.175  12.974   1.254  0.1983  0.2793  0.1620
13308W        W33588  17.195   7.696  11.612 -0.1140  0.0192  0.0433
13309W        W33589   2.231  14.734  10.948  0.0473 -0.2037  0.0176
13310W        W33590   7.234   9.011   1.465 -0.1993 -0.1282 -0.0501
13311W        W33591  15.298  11.973  12.445  0.1002 -0.1391  0.2337
13312W        W33592  11.971  11.634  13.322  0.2706 -0.0702  0.0727
13313W        W33593  10.735   2.328  11.755  0.1743  0.1310 -0.0483
13314W        W33594   2.138  18.434  11.851 -0.0323  0.1454 -0.0839
13315W        W33595   2.157  15.926  13.233  0.1203 -0.2183 -0.0167
13316W        W33596  14.327  18.445   3.583 -0.0745 -0.0113 -0.0824
13317W        W33597  14.436   0.726  12.101 -0.1039  0.0238  0.1327
13318W        W33598   4.926   5.221   3.429 -0.3895  0.3508 -0.1253
13319W        W33599   6.932  13.832   0.008 -0.0043 -0.0228 -0.1265
13320W        W33600  13.173  17.556  10.286  0.1609 -0.4128 -0.0309
13321W        W33601   6.552   7.608  13.581 -0.1173  0.1002 -0.2193
13322W        W33602  19.424  16.922  13.784 -0.0953 -0.0657 -0.0887
13323W        W33603   5.269  18.709   0.199  0.1829  0.1356 -0.1419
13324W        W33604  16.930  12.416   2.440 -0.0412  0.1220  0.2012
13325W        W33605   3.843  11.888   1.337 -0.0034 -0.3654 -0.1752
13326W        W33606   0.972   7.967   0.918 -0.1264 -0.3252 -0.2853
13327W        W33607   6.166  15.993   4.222  0.1312  0.1675  0.0262
13328W        W33608  11.476  10.220  13.299 -0.2023 -0.0951 -0.0313
13329W        W33609   8.918  19.474  13.398  0.2447  0.1792  0.0075
13330W        W33610   4.889   9.754   1.976 -0.2373 -0.0172 -0.3228
13331W        W33611  12.467  13.552   1.336 -0.1704  0.3967  0.1701
13332W        W33612   7.216   7.855  12.194 -0.2819  0.3043  0.1934
13333W        W33613  17.239  11.707   2.721 -0.0121  0.1680 -0.3505
13334W        W33614  14.184   2.351  11.011  0.0098 -0.1419  0.0149
13335W        W33615  14.218   2.412   2.297  0.2212 -0.3522 -0.2267
13336W        W33616  10.037  12.869   1.915 -0.3082 -0.0647  0.1574
13337W        W33617  11.285   4.706   9.712 -0.0490 -0.0391 -0.0234
13338W        W33618   7.820   9.311  10.903  0.1628  0.1511  0.2670
13339W        W33619   5.283  18.363   1.568 -0.1640  0.0396  0.2604
13340W        W33620  18.762  17.866  10.587 -0.0605 -0.0648 -0.1078
13341W        W33621  15.227  11.708  10.650  0.2725 -0.0361 -0.0144
13342W        W33622  19.110   9.896   1.194  0.2300  0.0326  0.1339
13343W        W33623   2.945  12.559   2.724  0.1083  0.0515 -0.1562
13344W        W33624  16.671   1.363   2.299  0.0481  0.0123  0.2700
13345W        W33625   6.177   8.774  14.041  0.0340  0.2948 -0.1053
13346W        W33626   1.310   9.285   3.186 -0.1149 -0.1992  0.2081
13347W        W33627  18.921   0.793   1.992  0.0796 -0.0611  0.2831
13348W        W33628  16.112   9.326  14.057  0.0814  0.0775  0.2144
13349W        W33629   2.279   4.153   2.285  0.0981  0.0352  0.0420
13350W        W33630  13.738   8.690  10.774  0.0179  0.4094  0.0971
13351W        W33631   2.844  12.635  11.169  0.2400  0.0658 -0.3975
13352W        W33632  18.118   6.961  14.084  0.0051  0.0765 -0.2448
13353W        W33633  16.580  15.971   2.594  0.0550 -0.2208 -0.1072
13354W        W33634   7.738  16.185   3.231 -0.0573 -0.0720 -0.1742
13355W        W33635  15.795   4.343  10.731  0.1129  0.0830 -0.3302
13356W        W33636   0.334   2.286   1.225  0.0901  0.1528  0.1445
13357W        W33637  15.201  16.614  10.191  0.0780 -0.0985 -0.0865
13358W        W33638  11.145   9.097  10.729 -0.0574 -0.1670 -0.0716
13359W        W33639  11.281   0.364   0.676  0.2853 -0.1297  0.2434
13360W        W33640   2.794   2.508  11.798  0.0177 -0.3944 -0.0659
13361W        W33641   9.462   9.386   1.834 -0.2740  0.1026  0.1061
13362W        W33642  13.991  15.652  13.229 -0.1235  0.3484  0.0891
13363W        W33643   7.429   9.683   0.756 -0.0304 -0.0173 -0.2546
13364W        W33644   5.121   1.194  10.001  0.1490 -0.0923 -0.1364
13365W        W33645  10.077   8.634   1.109 -0.1324  0.1593 -0.2024
13366W        W33646  17.717  11.619   3.442  0.1271 -0.1997 -0.1192
13367W        W33647  10.524  10.508   1.182 -0.0019  0.0692  0.1063
13368W        W33648   7.664   5.369   1.866 -0.0265  0.1540 -0.1212
13369W        W33649   3.304  19.658  13.673 -0.0901 -0.0932  0.2312
13370W        W33650  18.372   4.235  11.111 -0.0612  0.0411  0.1075
13371W        W33651  13.432  19.689  12.230  0.0783  0.0601  0.0458
13372W        W33652  10.262   7.336  12.226  0.0613  0.2371 -0.1088
13373W        W33653  15.911  12.517   3.457 -0.2973 -0.4078  0.1276
13374W        W33654   7.046   4.192   4.255  0.1866 -0.2649  0.3747
13375W        W33655  15.097   6.268   3.484  0.4364 -0.1279 -0.0908
13376W        W33656  17.844   1.361  11.321  0.2076  0.2456  0.1431
13377W        W33657  16.173   8.614   2.021  0.0026  0.1514  0.1553
13378W        W33658   7.985  18.187  11.844  0.1545  0.0310 -0.0074
13379W        W33659   4.442  11.869   0.137 -0.1066  0.0176 -0.2179
13380W        W33660   4.587   5.360  10.714  0.0230  0.2068 -0.1334
13381W        W33661  17.348  19.687   0.610  0.1765  0.1116 -0.0261
13382W        W33662   2.129  13.603  11.545 -0.0789 -0.0238 -0.0515
13383W        W33663  11.101   4.038  12.272  0.2414 -0.0460  0.1733
13384W        W33664  12.800  12.114  10.804  0.0931  0.1302 -0.1673
13385W        W33665   4.254  13.305   4.334 -0.4444  0.0611 -0.0092
13386W        W33666  16.183  14.416  12.702  0.0146 -0.1964  0.3102
13387W        W33667   0.403   4.664   1.624 -0.3178 -0.0741 -0.0782
13388W        W33668  14.167   8.336   4.109 -0.0910  0.1840  0.0524
13389W        W33669   7.602  17.812   0.449 -0.0801 -0.2424  0.1107
13390W        W33670  12.452   6.582  11.302 -0.1810  0.1767 -0.1781
13391W        W33671  11.978   4.382  10.396  0.1879 -0.0693  0.2431
13392W        W33672  11.464  13.318   0.043 -0.2975 -0.1463  0.0306
13393W        W33673  14.444  10.424  13.838  0.3884  0.2367 -0.1489
13394W        W33674  16.254   3.754  12.508 -0.4018  0.0208 -0.0937
13395W        W33675  19.047   6.516  13.553 -0.0525  0.2257 -0.1898
13396W        W33676  14.245  11.039   1.916 -0.0187  0.0758  0.2173
13397W        W33677   1.747  19.611   2.004 -0.0552  0.0613  0.0331
13398W        W33678  16.468   2.722  11.505  0.0455 -0.2991  0.1835
13399W        W33679  12.249  18.150   0.045  0.0542  0.0210 -0.2113
13400W        W33680   2.649  13.738  12.399  0.0042 -0.1012  0.1022
13401W        W33681   6.494   6.998   2.516  0.0680  0.1366 -0.0906
13402W        W33682  19.430   6.466  11.305  0.1472  0.0794 -0.0593
13403W        W33683  15.843   4.625   3.581 -0.0613 -0.1993 -0.2097
13404W        W33684  16.387   1.327  11.282 -0.1201 -0.0889 -0.0725
13405W        W33685  17.850   5.906  10.724  0.2825 -0.0839  0.0109
13406W        W33686   2.961  16.764  13.974 -0.1123 -0.0545  0.0795
13407W        W33687   0.151   1.010   9.704 -0.1621 -0.1289  0.2030
13408W        W33688   7.859   1.422  11.702  0.2736 -0.0025 -0.4136
13409W        W33689   0.945  15.388  12.867 -0.0764  0.1183 -0.2412
13410W        W33690  10.003   9.184  11.870  0.1011 -0.1100  0.3486
13411W        W33691  13.999   9.976  12.695 -0.2883  0.4359  0.1686
13412W        W33692  13.900  19.740   0.680  0.2053  0.1139 -0.2015
13413W        W33693   4.405  17.185   0.382 -0.1344 -0.2322  0.0157
13414W        W33694  12.260  15.290   0.293  0.0716 -0.2588 -0.2020
13415W        W33695  16.473  12.136   2.561 -0.2341 -0.1174  0.2228
13416W        W33696   3.893   4.333   0.805  0.1259 -0.1140  0.0211
13417W        W33697  10.631  12.662   3.065  0.0018 -0.2381  0.0267
13418W        W33698  19.672  13.805  10.353 -0.0604 -0.1743  0.0200
13419W        W33699  14.558   0.585   3.643 -0.2523  0.2070  0.2671
13420W        W33700  13.821   5.862  12.771 -0.3362 -0.0344  0.2790
13421W        W33701   8.870  18.627   3.693  0.0321  0.0286  0.0384
13422W        W33702   9.714   4.932   0.745 -0.1780  0.0704  0.0605
13423W        W33703   0.436  17.429  10.668 -0.0775 -0.2365  0.1307
13424W        W33704   7.154   0.528   2.397 -0.1401 -0.0033  0.0923
13425W        W33705  11.883  12.434  12.268 -0.0493 -0.3628  0.2866
13426W        W33706   4.426   0.577   4.351 -0.1111  0.1477 -0.0989
13427W        W33707   8.222  11.220  14.033  0.0711 -0.0210  0.1859
13428W        W33708   8.963   9.393  11.955 -0.0266 -0.1598  0.1529
13429W        W33709  15.534  11.867  12.961  0.1897 -0.2796  0.2574
13430W        W33710  19.680  16.636   2.478  0.1857  0.0497  0.0119
13431W        W33711  16.071   6.211   1.692  0.1117 -0.2556 -0.0236
13432W        W33712   4.396   3.939  10.776 -0.1042 -0.2717 -0.1095
13433W        W33713  18.025  11.332   3.723 -0.0712  0.2395 -0.3234
13434W        W33714   7.311   5.885  13.093  0.1791 -0.0934  0.1440
13435W        W33715  18.984  17.483  10.311  0.1962  0.0629 -0.0438
13436W        W33716   7.235  19.429   0.048 -0.0118 -0.0991 -0.0917
13437W        W33717  13.135   5.280   1.044  0.1458 -0.1593 -0.2714
13438W        W33718  12.568  12.480   4.649  0.0731 -0.3280 -0.2778
13439W        W33719   8.608  15.332  13.022 -0.2362 -0.0827  0.3878
13440W        W33720  13.109  14.445  11.139  0.0523  0.0773 -0.2852
13441W        W33721   4.759  15.976  13.821  0.1805 -0.0129 -0.0296
13442W        W33722   3.714   8.768  12.928 -0.1958  0.2149  0.0975
13443W        W33723  17.962   5.124   0.751 -0.2031 -0.2503 -0.0049
13444W        W33724  12.604   8.775   1.607 -0.1589  0.4353  0.1093
13445W        W33725  15.401  18.104  11.343 -0.0765 -0.0373 -0.1693
13446W        W33726   2.035   7.811   1.115  0.4063 -0.1473  0.4317
13447W        W33727   3.941   3.854  12.926 -0.1113  0.2835  0.0012
13448W        W33728   2.013   5.026  11.524  0.0470  0.5355 -0.0005
13449W        W33729   6.602   3.257  14.086 -0.1406  0.1717 -0.0437
13450W        W33730  10.828   7.725  11.537 -0.1179 -0.1145 -0.1046
13451W        W33731  16.773   9.052   2.604 -0.0682 -0.0554  0.1930
13452W        W33732   5.442  11.089   1.566 -0.0807 -0.3595 -0.0597
13453W        W33733  15.300  18.304  10.889  0.0192 -0.0347 -0.1165
13454W        W33734  11.773  15.357  10.937 -0.2319 -0.4080  0.0049
13455W        W33735  17.097   2.966   1.322  0.3630  0.0089  0.4298
13456W        W33736   1.833  17.077  11.813  0.0273 -0.0157  0.0724
13457W        W33737   3.044   7.897  12.738  0.2272 -0.0006  0.0815
13458W        W33738   3.261   1.174  10.823 -0.0920  0.0201  0.3874
13459W        W33739   6.294   5.700  13.362  0.3309 -0.5040  0.2462
13460W        W33740   4.387   8.780   2.754  0.0454 -0.1814  0.1419
13461W        W33741   8.692  18.748  11.928  0.1066 -0.1312  0.1189
13462W        W33742   7.568  11.193  12.557 -0.1828 -0.0061 -0.0676
13463W        W33743   7.641  15.504   9.251  0.2684  0.0993 -0.0836
13464W        W33744  15.399  18.714   1.921 -0.1986 -0.3237 -0.2089
13465W        W33745   6.802   3.675  13.196 -0.0856 -0.1613  0.0326
13466W        W33746  16.356  18.370   4.685 -0.2944  0.0004 -0.2017
13467W        W33747  10.043   1.379  12.514 -0.0902 -0.0026  0.2922
13468W        W33748   0.401  18.871  12.339 -0.2960  0.1621 -0.0494
13469W        W33749  12.645   8.520  10.260 -0.2199 -0.2289 -0.0432
13470W        W33750  17.491  12.292   2.717 -0.1859  0.2403  0.2173
13471W        W33751  12.219  16.671  10.893  0.3216  0.0187 -0.0932
13472W        W33752  16.644  19.041  11.066 -0.1181  0.1354 -0.1204
13473W        W33753  11.211  14.139   4.841 -0.1030  0.3128 -0.2485
13474W        W33754  11.208  18.716   1.038 -0.2323 -0.0876 -0.1977
13475W        W33755   8.128   2.058   3.282 -0.1037 -0.1472 -0.0185
13476W        W33756   4.060  11.666   3.696  0.2602 -0.0358  0.2256
13477W        W33757  15.876  13.107  13.971  0.1076 -0.1794  0.0548
13478W        W33758   4.849  13.170   2.559 -0.2910  0.2802 -0.0431
13479W        W33759   8.230   6.658   1.104 -0.2958 -0.0897  0.0449
13480W        W33760  18.714  15.056  11.447 -0.2341 -0.0455  0.2075
13481W        W33761  13.649   2.274  11.749  0.0344  0.0618 -0.2011
13482W        W33762   8.950  18.865   1.904  0.1561 -0.1230  0.0720
13483W        W33763   9.404  13.697  13.415  0.1264 -0.1219 -0.0264
13484W        W33764   1.817   7.564  13.265 -0.1861  0.1625 -0.1069
13485W        W33765   5.522  12.648  11.508 -0.2028  0.0996 -0.1724
13486W        W33766   6.292   9.401   0.070  0.0009 -0.1692  0.0458
13487W        W33767   6.044   0.312   2.176 -0.1705 -0.2275 -0.1743
13488W        W33768  17.313  14.637   3.211  0.2481 -0.0497 -0.0191
13489W        W33769  17.654  13.966  13.113  0.1234  0.1657 -0.3305
13490W        W33770  17.957  14.843  11.424 -0.1970  0.1108  0.2304
13491W        W33771   4.048  15.744  12.692  0.1554  0.0522  0.1746
13492W        W33772   9.072  15.551   2.622  0.0820  0.0875 -0.1952
13493W        W33773   2.550   4.154   4.159 -0.0494 -0.1970  0.1780
13494W        W33774   2.443  14.115   3.005 -0.0792  0.1716 -0.4934
13495W        W33775  11.776   8.073  10.671 -0.0156  0.0805  0.2686
13496W        W33776   7.510   5.864  11.547 -0.0078 -0.0979  0.2652
13497W        W33777  15.064   5.370   2.025  0.0699  0.2067  0.0499
13498W        W33778  18.529  12.919  10.792 -0.0057 -0.0471 -0.2081
13499W        W33779  10.258   4.172  10.726  0.0309 -0.2696 -0.0853
13500W        W33780   6.059   5.137  12.438  0.1751 -0.1512 -0.2758
13501W        W33781   3.248   1.954  11.325  0.2325  0.2392  0.1643
13502W        W33782  13.913  14.959  13.324  0.0864  0.2991 -0.3967
13503W        W33783   3.618  14.426  11.307 -0.1569  0.0444 -0.2068
13504W        W33784   0.886   9.491   9.632 -0.0901 -0.2633  0.2304
13505W        W33785   1.097   9.582   1.130  0.1561 -0.4421 -0.0881
13506W        W33786  13.543  11.600  13.094  0.0681 -0.0206  0.0724
13507W        W33787   7.724  16.891  12.012 -0.0097 -0.0190  0.0577
13508W        W33788   2.805  19.648  13.707  0.4515  0.0361  0.0274
13509W        W33789  19.633  10.050  13.713 -0.0432 -0.1320 -0.1940
13510W        W33790  11.825  14.988   3.482  0.0119  0.0569 -0.4414
13511W        W33791   3.722  14.252   3.597  0.0841 -0.3333 -0.1131
13512W        W33792   2.231   9.338  13.805  0.0656  0.1360  0.1104
13513W        W33793   7.906   9.865  10.441  0.1012  0.1594 -0.0900
13514W        W33794   0.701   5.623  12.639 -0.2118  0.3939  0.1966
13515W        W33795  12.926  17.563  13.078 -0.1768  0.3511  0.0337
13516W        W33796   6.874  10.254   1.426  0.1044 -0.4034  0.4724
13517W        W33797  15.199  17.916  11.947  0.4845  0.3790  0.0716
13518W        W33798  13.673  14.555  10.828  0.1490 -0.0178  0.2338
13519W        W33799  19.201   5.799  11.282  0.1381  0.2030  0.1069
13520W        W33800   4.283  14.522   9.328  0.1373  0.0627  0.1114
13521W        W33801  17.977   1.756  11.015  0.0821  0.1026  0.5298
13522W        W33802  11.023  10.243  13.125 -0.3565  0.5110  0.0243
13523W        W33803   7.892   2.166  14.084  0.3266 -0.0198 -0.0169
13524W        W33804   4.875   5.976   1.105 -0.2694 -0.1312 -0.1843
13525W        W33805   3.317  15.077   3.388  0.0724  0.3664  0.0654
13526W        W33806   3.202  14.424  12.006 -0.1036 -0.1593 -0.1136
13527W        W33807  17.882   0.538   9.238 -0.1409  0.0470  0.1957
13528W        W33808   2.052  14.727   0.323 -0.0070  0.0464 -0.2424
13529W        W33809   8.740   0.433   3.534  0.2679 -0.3290  0.0854
13530W        W33810   6.937   2.540   0.934 -0.1617 -0.0398 -0.2212
13531W        W33811  13.839   9.716   0.185 -0.0705  0.0788  0.3797
13532W        W33812   1.388  12.330   0.833  0.1254 -0.0828  0.0539
13533W        W33813   5.129   0.625   0.933  0.0268 -0.1732  0.0413
13534W        W33814  11.540   4.707   0.454  0.1075 -0.1696 -0.1014
13535W        W33815   8.759  11.126   2.746 -0.3172  0.2496 -0.2346
13536W        W33816  16.491   0.834  11.123 -0.0956  0.2351 -0.0519
13537W        W33817  15.464  19.523   3.011 -0.2985 -0.1149 -0.3184
13538W        W33818  14.943   1.513  11.930 -0.1311  0.2013  0.0589
13539W        W33819   1.689  18.799   1.022  0.1896  0.2470 -0.0773
13540W        W33820   6.818  19.563   3.305 -0.1607 -0.2015 -0.1742
13541W        W33821  16.602   2.517  10.516 -0.0144  0.2216  0.0307
13542W        W33822   0.438   6.519  11.789  0.0142  0.2545 -0.0949
13543W        W33823  11.525   2.252  10.192 -0.1136  0.1467  0.1286
13544W        W33824   3.724  10.344  13.650  0.2291 -0.2349  0.2820
13545W        W33825   3.452   5.867  12.098  0.1339  0.0027  0.1371
13546W        W33826  12.115  10.535  14.009  0.1354  0.0947  0.0448
13547W        W33827   8.340   9.469  12.468  0.0712 -0.1043  0.0638
13548W        W33828  12.627  12.130  13.211  0.1927  0.0957 -0.2777
13549W        W33829   7.757   6.527   1.073  0.1955  0.2405 -0.0328
13550W        W33830   2.496   4.900  11.739 -0.1552 -0.3562  0.2821
13551W        W33831  12.451   8.175   0.673  0.1763  0.0347 -0.1665
13552W        W33832  10.303  18.915   2.946 -0.0618 -0.0551 -0.0725
13553W        W33833   9.002  13.196   2.986 -0.1192  0.0968 -0.0294
13554W        W33834  14.374   0.877  10.917 -0.0637 -0.0888  0.4764
13555W        W33835   9.265  12.638   1.832 -0.0464 -0.1587 -0.0351
13556W        W33836   1.654  19.235  13.868 -0.1118 -0.0397 -0.0531
13557W        W33837  18.993   0.041   3.931  0.0343  0.0369  0.2184
13558W        W33838   1.551  17.652  12.013  0.1098  0.2563 -0.2444
13559W        W33839   2.997   9.820  12.990  0.1085  0.2528 -0.1450
13560W        W33840   4.293   1.808   9.938  0.0474  0.0520 -0.0125
13561W        W33841  13.505   2.129  10.621 -0.2531  0.0766  0.0517
13562W        W33842   5.336   7.674   9.682  0.2623  0.0258  0.1896
13563W        W33843  14.849  18.730   1.139 -0.3104 -0.0825  0.0192
13564W        W33844   6.709  19.168  13.445  0.3715 -0.0012  0.1819
13565W        W33845   9.721   8.386   0.081 -0.1619 -0.0865  0.2059
13566W        W33846   2.796  13.527  13.703  0.0460 -0.2531 -0.3187
13567W        W33847  10.800  12.954   4.410 -0.2577  0.0102 -0.1188
13568W        W33848   4.952  16.287   1.117 -0.1521  0.1542  0.1886
13569W        W33849  17.398  10.784   3.548 -0.1312  0.1206 -0.0409
13570W        W33850   7.072  18.598   0.457 -0.0059  0.1661 -0.0465
13571W        W33851   7.747  15.713   3.798  0.1753  0.0056  0.3563
13572W        W33852   3.850  16.610  13.699  0.0324  0.0749  0.0153
13573W        W33853  12.585  18.017  13.031  0.0772  0.1239 -0.2880
13574W        W33854  16.997  18.386   1.644  0.0734  0.2637  0.1136
13575W        W33855  16.508  11.423   3.325 -0.0594 -0.0910  0.4144
13576W        W33856   5.760  18.184   1.545 -0.1452 -0.1306 -0.2245
13577W        W33857  16.266  18.657  10.020 -0.0672  0.1644 -0.0113
13578W        W33858   0.459  14.070   8.943 -0.1357 -0.3989 -0.2233
13579W        W33859   2.749  16.235  12.309  0.0715  0.1412 -0.2016
13580W        W33860  11.734  11.713  10.525  0.2430 -0.3268  0.0032
13581W        W33861  13.792   2.718  11.957 -0.1706 -0.1807  0.0504
13582W        W33862   1.833   3.156  12.645  0.0441  0.2864 -0.0572
13583W        W33863   2.965   8.664   1.004  0.3533 -0.1054 -0.1505
13584W        W33864   0.614  17.566   1.830  0.3588 -0.0287  0.1816
13585W        W33865   5.412  19.391   0.770 -0.0097  0.1001  0.2917
13586W        W33866   1.940   0.343   0.435 -0.0770  0.1539 -0.5452
13587W        W33867   4.001  16.137  11.912  0.1775  0.1988 -0.2178
13588W        W33868   2.818   0.925  11.724  0.0689 -0.4337  0.1839
13589W        W33869  10.871  17.556   1.053  0.0209  0.2293  0.3107
13590W        W33870   5.826  12.319   1.539  0.3450  0.2054  0.0800
13591W        W33871  14.511  17.430   2.178  0.0908  0.0734  0.1400
13592W        W33872  18.156  18.085  10.381 -0.0645  0.2988  0.0132
13593W        W33873   1.637  10.294  13.179 -0.0757 -0.1462 -0.1415
13594W        W33874  16.255   2.280  13.249  0.0666 -0.0984 -0.0482
13595W        W33875   9.593  16.273  12.529  0.2210 -0.1675 -0.0366
13596W        W33876   4.875  14.831  13.109  0.1576  0.4203 -0.0462
13597W        W33877  10.665   1.849   0.831  0.0024  0.0153  0.2903
13598W        W33878   8.626  10.624   0.637 -0.3992 -0.0789  0.3122
13599W        W33879   2.372   8.513   9.582 -0.0148  0.4064  0.0260
13600W        W33880  10.392  19.478  12.839  0.5315  0.1135  0.0029
13601W        W33881   2.606   3.995  13.307 -0.3199 -0.1715 -0.0210
13602W        W33882  13.857  19.018   1.521 -0.0284  0.0274 -0.2457
13603W        W33883   1.853   6.159  13.322 -0.1390 -0.2380 -0.1238
13604W        W33884   2.484  17.355   3.573  0.2557  0.1198 -0.0195
13605W        W33885  14.028   6.509  10.692 -0.0442  0.2262  0.0766
13606W        W33886  15.525  11.863   4.761  0.1320  0.0977  0.0552
13607W        W33887  17.487   1.831   1.195  0.0722  0.1280  0.0284
13608W        W33888   2.628  15.063   2.962  0.2135 -0.0647  0.0415
13609W        W33889   5.876  11.085  11.880 -0.3144  0.1447  0.2067
13610W        W33890  18.572  16.198   1.553  0.1866 -0.1145 -0.0515
13611W        W33891  16.423   8.075   3.541  0.1832  0.0360 -0.1817
13612W        W33892  16.876  12.643   1.983 -0.0068  0.1092  0.0917
13613W        W33893   0.222  16.248   2.611 -0.0115  0.0378 -0.1855
13614W        W33894   6.701  11.590   1.575  0.1987  0.2514  0.2167
13615W        W33895   0.105   0.350  12.410 -0.1246 -0.0878 -0.1830
13616W        W33896  18.217  13.250  12.072 -0.3195 -0.0438  0.0086
13617W        W33897   2.019   5.757   9.673  0.0017  0.1904 -0.2112
13618W        W33898  10.025   0.732  13.965  0.1969 -0.2898  0.1452
13619W        W33899   7.815   5.065  12.004 -0.1131 -0.5073  0.1644
13620W        W33900  11.683  12.434   0.499 -0.1654  0.1336 -0.1715
13621W        W33901  15.256  10.650   4.529  0.2609 -0.1014 -0.1483
13622W        W33902  19.420   3.938  10.713 -0.1127 -0.0007  0.0120
13623W        W33903   4.920  14.774   3.226  0.1335  0.1529  0.0426
13624W        W33904  13.570  13.259  13.035  0.2199  0.0529 -0.0337
13625W        W33905  13.580  10.715   3.177  0.1046  0.0499  0.0629
13626W        W33906   1.301   8.384  11.648  0.1322 -0.1684  0.2703
13627W        W33907  15.417  11.152   1.630 -0.0192  0.0186 -0.1636
13628W        W33908   8.452  12.683   3.786 -0.0393  0.1183  0.1913
13629W        W33909   6.058   6.893  13.121  0.0327  0.3336  0.1533
13630W        W33910  12.914   2.611  12.327  0.0877  0.0932 -0.3533
13631W        W33911  13.054  15.160   2.196  0.2965  0.0875 -0.2527
13632W        W33912  10.469   1.788  13.979 -0.2047 -0.0546 -0.1975
13633W        W33913  18.677   6.269   2.029 -0.1049  0.0094  0.3524
13634W        W33914   0.809  17.865   3.773 -0.3944  0.0592  0.0259
13635W        W33915   8.387   9.669  11.682  0.1399 -0.2622  0.0075
13636W        W33916  11.005   2.716   0.253  0.3985  0.1326  0.2070
13637W        W33917   1.826   4.869  13.622 -0.0587  0.0879  0.3062
13638W        W33918  13.758  19.315  10.266 -0.0051  0.0165  0.0641
13639W        W33919   8.904   1.614   0.850  0.1577 -0.1913 -0.3877
13640W        W33920   2.908  14.592   1.115 -0.1346  0.0276 -0.0580
13641W        W33921  10.003   3.751   2.540  0.2495  0.1891 -0.3959
13642W        W33922  12.491   9.002  12.464  0.1839  0.0493 -0.1121
13643W        W33923  16.287  15.740   0.683 -0.0326  0.0574 -0.2549
13644W        W33924   0.056  14.423  13.291  0.0443 -0.4561  0.0560
13645W        W33925   8.507   7.342   3.402  0.1940 -0.0048  0.4498
13646W        W33926  19.616  17.722  11.524 -0.0131  0.2682  0.2464
13647W        W33927  13.660  10.724   1.384 -0.1250  0.0252  0.0690
13648W        W33928   7.411  13.560   3.420  0.0135 -0.0403  0.0988
13649W        W33929  10.500  16.029  13.724 -0.3054  0.2203 -0.0230
13650W        W33930  11.976  13.589  13.409 -0.0018 -0.0125 -0.3392
13651W        W33931   9.731   6.874   2.787 -0.0284 -0.0945  0.2006
13652W        W33932   7.068   1.740  11.022 -0.1619 -0.0030 -0.0179
13653W        W33933   7.549   4.052   3.067  0.0806 -0.1916 -0.3681
13654W        W33934  12.862   8.557  12.707 -0.0068  0.0884 -0.1163
13655W        W33935  14.178   3.661   0.913 -0.5101 -0.0445 -0.1773
13656W        W33936  16.189   9.042  13.677  0.2919 -0.2546 -0.0073
13657W        W33937  12.986  19.144   2.592 -0.0592 -0.0654 -0.1172
13658W        W33938  10.649   6.170  11.086  0.2916 -0.1353  0.1196
13659W        W33939   9.916  10.717   2.309  0.1558  0.1145  0.1715
13660W        W33940  15.325  15.085  13.898  0.0939  0.3650 -0.0592
13661W        W33941   4.249  18.863  13.255  0.0202  0.0647 -0.1778
13662W        W33942  12.582   7.717   1.500  0.2846 -0.1453 -0.2712
13663W        W33943  15.721  17.904  11.793  0.0142 -0.1369  0.0148
13664W        W33944   1.019   2.959  11.936 -0.4891  0.4626  0.0791
13665W        W33945  14.626   8.474   0.630  0.0516  0.2652 -0.2520
13666W        W33946   0.664  12.396  11.860  0.1204  0.0483 -0.2228
13667W        W33947   7.135  13.232  13.524 -0.0539  0.0811  0.1093
13668W        W33948   8.992   5.760   0.402  0.0906 -0.0477 -0.0391
13669W        W33949   5.224   8.362   4.082 -0.0731  0.0388 -0.0377
13670W        W33950   0.442   5.728  11.183 -0.0854 -0.0354  0.0373
13671W        W33951  14.272   7.504  11.985 -0.1435  0.1543  0.0369
13672W        W33952  14.498   9.580  13.158  0.1687 -0.0769 -0.2355
13673W        W33953   2.124  10.404  12.974 -0.1220  0.0406 -0.0411
13674W        W33954   6.552  10.894   3.124  0.4101 -0.0293  0.0126
13675W        W33955   4.721  11.027  13.089  0.2417 -0.0645 -0.1541
13676W        W33956   1.974  10.482  12.198 -0.2573 -0.2466  0.2124
13677W        W33957  16.518  18.852   0.902  0.1341 -0.1194 -0.1055
13678W        W33958   7.372   3.315   2.877 -0.2251 -0.2623 -0.2188
13679W        W33959   0.720   8.415   2.976  0.3322  0.5302  0.0285
13680W        W33960  11.693   6.510  13.240 -0.2025 -0.1684  0.0722
13681W        W33961   9.022  12.650   3.618 -0.1961  0.0703  0.2828
13682W        W33962   6.237  13.360  12.851 -0.0291  0.1214  0.0146
13683W        W33963  15.326  18.402  11.785 -0.0202  0.2070  0.0374
13684W        W33964   6.205  17.531   0.686  0.0270 -0.0733  0.2503
13685W        W33965  19.179  11.882   3.183 -0.0707  0.2001 -0.2990
13686W        W33966   6.141   9.669   2.985  0.0989  0.1632  0.1080
13687W        W33967   4.334  11.486   3.087 -0.4607 -0.0598 -0.1623
13688W        W33968  11.491  15.618  12.634 -0.0814  0.2821  0.0981
13689W        W33969  12.127  15.714  13.382  0.2036  0.3883 -0.1400
13690W        W33970  14.370  15.055  11.456  0.0796 -0.2971  0.1810
13691W        W33971   4.812  13.740   4.258  0.2653 -0.0765 -0.3771
13692W        W33972   8.380   7.780   0.266  0.1421 -0.1185 -0.0618
13693W        W33973  12.718   6.570   3.572  0.1279 -0.2578  0.0663
13694W        W33974   7.748  17.513  11.092 -0.0437 -0.0195  0.0346
13695W        W33975  14.804  11.177  11.167 -0.2087  0.0882 -0.1518
13696W        W33976  16.112  15.000   1.344 -0.0947 -0.0595 -0.0683
13697W        W33977   2.303   2.305  10.779 -0.1434  0.1815 -0.3506
13698W        W33978  13.738  10.190   8.935  0.1560 -0.0241 -0.0319
13699W        W33979  19.443   9.471   0.864  0.0764  0.0429 -0.2087
13700W        W33980   1.928  11.049  12.304  0.0086  0.2030  0.5279
13701W        W33981  10.985   0.770   1.534  0.1931  0.0527 -0.0371
13702W        W33982  18.371   9.649   4.957 -0.0603  0.1161  0.0083
13703W        W33983  13.877   1.052   0.199  0.1029 -0.2319 -0.0492
13704W        W33984  19.604   8.320   1.956 -0.1763  0.0992 -0.4109
13705W        W33985  19.712  19.676  12.224  0.2672 -0.0870  0.1946
13706W        W33986   7.811   0.436  11.317 -0.2305 -0.0123 -0.0945
13707W        W33987  14.885   8.130   1.956  0.0448 -0.3785  0.2239
13708W        W33988   9.613  17.847   2.273  0.0973  0.1993  0.0955
13709W        W33989   7.629   4.093   0.299 -0.0539 -0.1373  0.0343
13710W        W33990  13.804  13.437   0.248  0.1781  0.4129  0.0485
13711W        W33991  18.585  13.997  12.853  0.2287 -0.1026  0.1505
13712W        W33992  12.393   0.662  10.923  0.0741 -0.0684 -0.1773
13713W        W33993   2.798   4.625  11.387  0.0496  0.0761  0.2612
13714W        W33994   0.173  10.240   3.810 -0.4855  0.0283  0.2422
13715W        W33995  10.217   3.843   0.413 -0.0701 -0.1910 -0.1037
13716W        W33996  19.176  12.821  12.057 -0.0396 -0.1366 -0.2045
13717W        W33997   1.182  17.662  10.516  0.0318  0.2859  0.0308
13718W        W33998   6.065   0.638  11.931 -0.0741 -0.2224 -0.1837
13719W        W33999   4.687  13.574   2.261 -0.2314 -0.0154  0.0380
13720W        W34000  19.283  15.129   4.078 -0.2613  0.0209  0.0432
13721W        W34001  10.566  13.868   0.843  0.0348 -0.0093 -0.7066
13722W        W34002  12.988  17.846   2.145 -0.0136  0.1688 -0.0618
13723W        W34003  16.426   2.493   1.757  0.2282 -0.1595  0.2645
13724W        W34004   0.946  14.202  13.276  0.1542 -0.2061  0.0936
13725W        W34005   6.905   3.314   1.394  0.0653 -0.0181  0.2991
13726W        W34006  16.132   0.434  12.650 -0.2286 -0.2502  0.3921
13727W        W34007  19.464  15.909   3.450 -0.1082 -0.0268  0.0446
13728W        W34008  13.711   8.283  11.840  0.0446 -0.2106  0.2188
13729W        W34009   3.782  18.180   3.084 -0.1377 -0.1459  0.4946
13730W        W34010   6.946   5.545   0.283 -0.2182  0.1816  0.1389
13731W        W34011   4.971  13.651   2.661  0.2865  0.0416  0.0102
13732W        W34012   4.800  13.071   1.041  0.2496  0.4036 -0.1517
13733W        W34013   5.559  10.721   0.269  0.2945 -0.1577  0.0371
13734W        W34014  16.151   7.530   2.050  0.2164 -0.0285 -0.1709
13735W        W34015  13.654   3.525   0.215  0.0731  0.2292  0.0924
13736W        W34016  13.484  14.572  13.928 -0.1672  0.2347  0.1268
13737W        W34017  10.687   2.397   1.186 -0.2478  0.0016 -0.0612
13738W        W34018   4.066  17.923   0.927 -0.3035 -0.1113  0.0365
13739W        W34019   1.374   3.740   0.869 -0.1013  0.0618 -0.2081
13740W        W34020  12.720  12.795  10.764  0.0197 -0.0223 -0.0668
13741W        W34021  18.852  18.420  13.792  0.0287 -0.0543 -0.1213
13742W        W34022  15.538   5.121  11.285 -0.0800 -0.1929  0.3488
13743W        W34023   7.680  17.726  12.792 -0.0763 -0.2078 -0.2766
13744W        W34024   8.276   9.697   3.698  0.2287 -0.0188 -0.0338
13745W        W34025   5.034   5.246   0.660 -0.1958 -0.0630  0.1009
13746W        W34026  15.260  14.020   3.108  0.0027 -0.1067 -0.0918
13747W        W34027   6.316   2.642  12.484 -0.0211  0.2538 -0.3935
13748W        W34028  15.560  17.516   1.121 -0.2884  0.1133 -0.1816
13749W        W34029  11.680  17.113  13.405 -0.2743 -0.0476 -0.0594
13750W        W34030   7.265   0.853   1.419  0.4485  0.1130  0.1021
13751W        W34031   3.820  15.667  14.077  0.0058 -0.2123 -0.3366
13752W        W34032  12.115   8.539   0.569  0.1738 -0.0364  0.0055
13753W        W34033   8.263  13.398   1.779  0.1121  0.3422 -0.0774
13754W        W34034  11.840   5.718   2.972 -0.0078  0.0927 -0.2328
13755W        W34035   8.486   4.381  12.137  0.0065 -0.3136 -0.2710
13756W        W34036   2.597   3.341   1.781  0.1382  0.2626  0.0709
13757W        W34037  17.092  10.764   3.131  0.3187 -0.5004 -0.2709
13758W        W34038  16.308   0.144   2.682  0.2206  0.0069  0.1544
13759W        W34039   7.893  19.501   1.094 -0.3099  0.2126 -0.3404
13760W        W34040  17.097   4.358  10.609 -0.2555  0.0220  0.3545
13761W        W34041   6.574  13.592   3.076  0.1263  0.1682 -0.0218
13762W        W34042   7.448   9.788   4.113 -0.1515 -0.2576 -0.3526
13763W        W34043   0.101   9.602   2.728  0.1129  0.1071  0.1832
13764W        W34044  11.069   1.794   1.649  0.2371 -0.1830  0.1227
13765W        W34045   5.633   3.014  13.093  0.0967  0.1766 -0.2667
13766W        W34046  17.649   6.274  12.582  0.0053  0.1740  0.1180
13767W        W34047  11.621   7.973   1.527 -0.0793 -0.1036  0.0892
13768W        W34048  11.542   2.479  12.423 -0.1952  0.1701  0.1713
13769W        W34049   0.277  19.310   2.341 -0.2344 -0.0183 -0.1685
13770W        W34050   8.721   5.075   2.790  0.1796  0.6083  0.1487
13771W        W34051   7.249   9.479   3.731  0.0636  0.1526 -0.3471
13772W        W34052   6.833  17.668   9.965  0.2400 -0.0827  0.2376
13773W        W34053  15.135   4.637   0.378 -0.3464 -0.1922  0.1552
13774W        W34054  11.299  15.318  12.303 -0.1100 -0.0761  0.1350
13775W        W34055   9.285  10.985  13.903 -0.4830  0.3639  0.1406
13776W        W34056   2.741   7.253  14.075  0.0765  0.1183  0.1478
13777W        W34057  10.271  10.390   0.314  0.0985 -0.0923  0.0402
13778W        W34058   5.951   5.543  10.660  0.2545  0.1839  0.1541
13779W        W34059   7.926   7.276   4.121  0.2876  0.2847 -0.0568
13780W        W34060  12.030  19.304  12.185  0.0134  0.1377 -0.0022
13781W        W34061   9.619  15.889   1.531  0.0940  0.0376  0.1620
13782W        W34062  15.370   9.989   3.882  0.2075  0.3232  0.3062
13783W        W34063  18.978   3.997  11.862  0.1959 -0.2510  0.2203
13784W        W34064   5.021   8.712   3.107  0.3436  0.0160  0.3158
13785W        W34065   5.304   7.462  12.355 -0.2432 -0.1528  0.1065
13786W        W34066  16.731  19.135   2.346  0.2159 -0.1740  0.2146
13787W        W34067  14.380  11.277   2.337  0.0308  0.0087 -0.0009
13788W        W34068  18.018   5.689   0.255 -0.0611  0.1937  0.0295
13789W        W34069  16.850   8.025   1.501  0.0357  0.0673 -0.0462
13790W        W34070   6.436   8.520   2.063 -0.2529  0.1117 -0.2703
13791W        W34071  17.371  11.852  14.085  0.4496 -0.0077  0.0129
13792W        W34072   0.637  13.472   0.510  0.0560  0.2750  0.1857
13793W        W34073  12.638   8.624   0.444  0.1259  0.2203 -0.1396
13794W        W34074  17.669  19.088   0.340  0.0554  0.1558 -0.2438
13795W        W34075   9.357  12.511  12.807 -0.0236  0.1390  0.0512
13796W        W34076  12.634   1.876   3.119 -0.2113 -0.0281  0.0094
13797W        W34077  13.139   5.497  11.308 -0.0665  0.1446  0.2099
13798W        W34078   7.655  19.089   4.591 -0.2375 -0.2006  0.0007
13799W        W34079   2.424  11.209   1.201 -0.0153  0.0506 -0.2626
13800W        W34080  10.561  13.690   4.104  0.0047  0.0317 -0.0920
13801W        W34081  10.283  14.937   0.076 -0.0108  0.2028  0.2232
13802W        W34082  17.500   6.946   2.108  0.0328 -0.0515 -0.2671
13803W        W34083  18.676  14.830  13.812  0.0700 -0.0665 -0.1568
13804W        W34084  19.643   3.686   0.769 -0.0046  0.2092 -0.0747
13805W        W34085   6.999   7.776   3.400  0.1697  0.1187 -0.0854
13806W        W34086   5.807  19.692   9.797  0.1510  0.3856  0.2867
13807W        W34087  11.944   8.914   3.580  0.0054 -0.3195 -0.3681
13808W        W34088   9.883   6.074  10.759  0.2444 -0.2012 -0.1917
13809W        W34089   2.441   9.713   0.193 -0.0034  0.1537  0.0976
13810W        W34090   7.576  16.302   9.660 -0.2929 -0.0830  0.1733
13811W        W34091  10.088  15.255   2.148 -0.1485 -0.0403 -0.0702
13812W        W34092   7.073   4.540   0.498 -0.2398  0.0778  0.0969
13813W        W34093  14.844  16.255  10.863 -0.0638 -0.2052  0.2718
13814W        W34094  10.903   1.117   9.533 -0.2116  0.0420  0.2276
13815W        W34095   2.112   2.658   3.629 -0.0060  0.0256 -0.2132
13816W        W34096  15.500  13.250  10.415 -0.0346  0.1955 -0.1582
13817W        W34097  17.088   1.637  13.399  0.0699 -0.3878 -0.1593
13818W        W34098  18.378   6.296  12.998  0.0013  0.0918 -0.2353
13819W        W34099   3.927  15.164   3.973  0.2801  0.3187 -0.1286
13820W        W34100   7.891   1.322  10.090  0.2433 -0.0284  0.2668
13821W        W34101   8.329  12.088  10.588  0.4120  0.0681  0.2252
13822W        W34102  15.490  16.924  11.233  0.0217  0.1495  0.2540
13823W        W34103   2.301  17.945  13.418 -0.1604  0.3967 -0.0196
13824W        W34104   7.575   9.962   3.264  0.1035 -0.1184 -0.4034
13825W        W34105  14.763  12.089   0.188  0.2999  0.1086 -0.1363
13826W        W34106   5.696  17.472   0.713 -0.1428 -0.1154  0.1262
13827W        W34107   3.529  19.350  12.701  0.0970 -0.0704  0.0818
13828W        W34108  18.251   3.332   2.029  0.0646 -0.2248 -0.0914
13829W        W34109  18.264  11.836   2.782 -0.1533 -0.0666  0.3358
13830W        W34110  12.303   7.628   0.235  0.1764 -0.2338  0.0467
13831W        W34111  11.998   8.018   0.490 -0.0711 -0.2293  0.0866
13832W        W34112   9.935  19.115   2.404 -0.3188  0.2300 -0.0473
13833W        W34113   1.007   3.810   3.614 -0.0474 -0.2349 -0.0054
13834W        W34114   0.148   8.892   0.045 -0.4065 -0.1776 -0.0578
13835W        W34115   0.282   9.165  11.800 -0.1822 -0.1508  0.3122
13836W        W34116  15.988  11.430  11.611  0.1143 -0.1050 -0.1433
13837W        W34117   6.358  16.242  13.678  0.0796  0.1357 -0.0272
13838W        W34118  12.709  17.371  10.388 -0.2078 -0.0811 -0.2944
13839W        W34119   8.988   4.308   1.188  0.3916 -0.2560  0.0869
13840W        W34120  10.166  14.864   3.491  0.2025 -0.2271  0.3160
13841W        W34121  11.076   8.483   3.296  0.1821 -0.2485  0.0524
13842W        W34122  17.468  16.643   0.687 -0.1482 -0.0931  0.0710
13843W        W34123  18.184   1.594   9.240 -0.0019  0.0920 -0.2008
13844W        W34124   9.070  17.331   1.634  0.2169 -0.2625  0.2372
13845W        W34125  15.391   9.909   9.926  0.0188  0.0611 -0.3553
13846W        W34126   3.768  15.476   2.371 -0.0807 -0.3103 -0.2951
13847W        W34127   2.327  15.230   2.550  0.1091  0.0301  0.1139
13848W        W34128   7.019  12.180  12.812 -0.0542  0.0028  0.3407
13849W        W34129   2.991   0.545   3.369 -0.0746 -0.0695  0.1924
13850W        W34130  14.715  15.783  12.274  0.1764  0.4965 -0.2643
13851W        W34131  10.984   9.325   2.036 -0.0990  0.3475 -0.0864
13852W        W34132   2.738  10.248  13.706  0.2338  0.2877  0.2959
13853W        W34133   5.153   1.704   3.295  0.3949  0.0252  0.0908
13854W        W34134  18.712  13.276   1.968 -0.2545 -0.0570  0.1829
13855W        W34135  15.042  17.547   3.166 -0.3371  0.1694 -0.0164
13856W        W34136  15.932  18.827   0.799  0.1028  0.1400 -0.1735
13857W        W34137  15.941   4.227  11.440  0.0143 -0.0191  0.2705
13858W        W34138   1.181  13.055   1.638  0.1585  0.1014  0.1018
13859W        W34139  14.864  17.024   1.646 -0.1069  0.0873 -0.2139
13860W        W34140  17.060  16.651  10.326  0.1530 -0.1625 -0.1213
13861W        W34141  16.903   4.433   3.337 -0.0525  0.0633 -0.0790
13862W        W34142   5.489  16.983   3.853  0.2075 -0.0008 -0.1649
13863W        W34143   3.150   6.993  13.702 -0.1870  0.1665  0.0767
13864W        W34144  18.604   4.733  13.462 -0.0843  0.1480  0.1780
13865W        W34145   1.081   2.920   0.579 -0.0177  0.0069 -0.2118
13866W        W34146  10.509   6.084   2.594 -0.2033  0.5228  0.0263
13867W        W34147   3.535  16.903   4.439 -0.0615  0.1942  0.3046
13868W        W34148   1.955  18.349  13.749 -0.3671 -0.1237 -0.0217
13869W        W34149  16.650   3.025  10.533  0.0658 -0.2015 -0.0099
13870W        W34150   1.939   0.333  12.827 -0.3421 -0.0088 -0.2011
13871W        W34151   5.552   3.872   2.633 -0.2424  0.0094  0.1118
13872W        W34152  16.731   9.095   1.090  0.1683 -0.2575 -0.0204
13873W        W34153  15.156   4.733   2.979 -0.0663 -0.2366  0.2518
13874W        W34154   4.171   9.484   3.646  0.1763 -0.0847 -0.0396
13875W        W34155  11.222   3.455   3.010 -0.0778 -0.5795  0.0035
13876W        W34156  14.969  10.623  13.101 -0.2221 -0.1022  0.0576
13877W        W34157   2.150  17.294  11.491 -0.1660  0.2103 -0.1262
13878W        W34158  13.996  19.390   2.445  0.1908  0.3080 -0.0915
13879W        W34159   8.129  19.372   2.537 -0.1304  0.2125 -0.0918
13880W        W34160  10.193  15.052   4.503 -0.0593  0.0021  0.1770
13881W        W34161   0.020   9.515  10.962 -0.1846 -0.3300 -0.1725
13882W        W34162  13.556  10.298  12.849 -0.1086  0.1047 -0.3689
13883W        W34163   0.401   1.085  11.113  0.3556  0.1326  0.4019
13884W        W34164  19.724  10.129  13.083  0.1117  0.1299 -0.0154
13885W        W34165  12.627   5.115   1.263  0.0166  0.3495  0.2216
13886W        W34166  12.347   6.982  12.208 -0.0802  0.0547 -0.0796
13887W        W34167  13.343   9.475  13.747 -0.1476  0.1248 -0.1710
13888W        W34168  18.713   2.810   0.110 -0.0031  0.2020 -0.4096
13889W        W34169  16.986   2.921   0.503 -0.0017 -0.0528 -0.0355
13890W        W34170   6.563   1.702  11.197  0.1392  0.2145 -0.1975
13891W        W34171  11.936  12.162   3.077  0.4005 -0.1631 -0.0770
13892W        W34172  18.898   1.754   1.111  0.0512 -0.0781  0.0365
13893W        W34173   5.122   5.660  12.015 -0.3114 -0.0936  0.0190
13894W        W34174   4.504  15.576   1.522 -0.4273  0.2078 -0.1830
13895W        W34175  10.077   4.764   0.504  0.0289  0.0783 -0.0631
13896W        W34176   8.466  15.071  10.229  0.0849 -0.0392  0.2249
13897W        W34177  11.047  14.392   3.572 -0.1490 -0.0959  0.2189
13898W        W34178  18.613  17.088   3.348  0.2248  0.0484 -0.2801
13899W        W34179  12.032  18.824   2.829 -0.1346 -0.1802 -0.0699
13900W        W34180   6.207   5.862  12.852  0.4177  0.0755  0.1874
13901W        W34181   3.960   4.786  13.818 -0.0204 -0.1498 -0.0581
13902W        W34182  10.289   1.500   0.683 -0.1505 -0.3778 -0.4304
13903W        W34183  12.659  11.780   0.004 -0.0922  0.3962 -0.0560
13904W        W34184  16.614   5.845   4.034  0.1424 -0.0404 -0.1095
13905W        W34185   3.475  13.951   1.018  0.0940  0.1103  0.3267
13906W        W34186   9.752  19.127  11.379  0.0513 -0.2245  0.2647
13907W        W34187  18.801   7.957  11.006  0.1386  0.3210 -0.0752
13908W        W34188  18.763  10.541  13.682 -0.0004  0.0064  0.1923
13909W        W34189   2.563  17.287  10.151  0.1794  0.1274  0.1662
13910W        W34190  18.818   4.397   2.957  0.2509  0.0581 -0.0912
13911W        W34191  13.414   6.401  13.825  0.3603 -0.2131  0.1816
13912W        W34192   8.055  11.447  11.756 -0.0756 -0.0297 -0.0522
13913W        W34193   7.762   8.333   1.501  0.0588  0.0253  0.1918
13914W        W34194  15.049   1.297  12.441 -0.1190  0.1279  0.0107
13915W        W34195   9.293  11.445   0.874  0.2543 -0.1943  0.0750
13916W        W34196  17.498   9.488  12.406 -0.0849  0.2977  0.0396
13917W        W34197   2.325   8.050   4.182 -0.2110  0.2146 -0.0634
13918W        W34198   7.195  15.817  13.767 -0.2661  0.0579 -0.0045
13919W        W34199   3.953  16.107  11.237 -0.1461  0.0108  0.1532
13920W        W34200   4.448   1.813  10.486  0.0284 -0.0921 -0.0327
13921W        W34201   1.787  17.572   1.893 -0.2185  0.2422 -0.1431
13922W        W34202  10.851  15.540   0.493  0.0906  0.0571  0.1738
13923W        W34203   6.451  12.405  11.527  0.0982  0.1085  0.0896
13924W        W34204   2.835   6.249  11.475 -0.1398 -0.1199  0.0181
13925W        W34205   6.914  19.127   0.458 -0.1252  0.0772 -0.2715
13926W        W34206   4.585  17.984   3.048  0.0089  0.1732  0.0945
13927W        W34207  13.347   1.861   1.104 -0.1852 -0.2657 -0.0645
13928W        W34208   0.776   5.939   2.625 -0.3672 -0.1169  0.0098
13929W        W34209  18.317  12.199   2.416  0.1009 -0.0602  0.0109
13930W        W34210   4.418   4.112  13.359 -0.0331  0.2133 -0.1643
13931W        W34211  15.328   4.748   1.661  0.2136 -0.0702 -0.3016
13932W        W34212   8.485   3.798   3.148  0.1829  0.3585 -0.1127
13933W        W34213  15.789   5.758   0.235  0.0658  0.1202 -0.3504
13934W        W34214   3.971  19.518  11.349  0.0332  0.3847 -0.1305
13935W        W34215  16.550   4.889  11.761  0.1781 -0.1934  0.2623
13936W        W34216  15.685  10.791   3.265  0.4296  0.0278  0.2344
13937W        W34217  16.222   0.449   0.450  0.0405 -0.3018  0.0682
13938W        W34218  18.560   5.350   2.246  0.3619 -0.2593  0.3077
13939W        W34219   1.618   9.426  12.948 -0.2735 -0.0819 -0.2082
13940W        W34220  16.872  13.226   3.375  0.1934 -0.0153 -0.0936
13941W        W34221  11.419  11.045   1.930  0.0072 -0.0811 -0.1906
13942W        W34222  12.664  14.848  12.489  0.4254 -0.1180  0.2054
13943W        W34223   9.898  16.302  13.427  0.1080 -0.0840 -0.0901
13944W        W34224  19.165   0.978   0.599 -0.2692  0.0969  0.1268
13945W        W34225  11.008   0.139  10.412 -0.2328  0.1336 -0.0011
13946W        W34226  18.590  14.829  13.244 -0.1870 -0.3498  0.2443
13947W        W34227   3.018   5.342   1.738  0.0027  0.2984  0.1772
13948W        W34228   4.352   2.331  10.690 -0.2222  0.1001  0.2560
13949W        W34229   2.101  15.049   2.969 -0.0338 -0.0548  0.1021
13950W        W34230  14.796  19.411  13.585 -0.2772 -0.0224 -0.3528
13951W        W34231  15.823   5.952  13.708 -0.0402 -0.0276 -0.0904
13952W        W34232   0.729   1.547   3.354 -0.2016  0.4201  0.0424
13953W        W34233   4.836   5.778   2.528  0.1784 -0.0086  0.0923
13954W        W34234  19.671   3.290   2.673 -0.2152  0.1229 -0.1487
13955W        W34235   5.026   6.646  13.961  0.0900  0.2703 -0.0384
13956W        W34236   5.702  11.334  12.303 -0.0100 -0.4731  0.0080
13957W        W34237   5.734   4.617   1.028  0.3573 -0.2549 -0.0381
13958W        W34238  11.085   2.938   1.602 -0.2148  0.1109  0.3106
13959W        W34239   7.122  19.140   3.280  0.0800 -0.0474 -0.1821
13960W        W34240  10.183   5.889  11.925  0.0645 -0.0556 -0.2495
13961W        W34241  16.709  17.596  12.175  0.0197 -0.0465  0.2836
13962W        W34242  15.958  18.112  12.962 -0.1715 -0.0734  0.1058
13963W        W34243   5.431  14.110  13.465 -0.0145  0.0278 -0.2254
13964W        W34244   9.597  12.748   0.116  0.0211 -0.1721  0.0573
13965W        W34245  10.064  14.901   3.951 -0.1220 -0.0098  0.1215
13966W        W34246   3.637   7.836  12.886  0.3479 -0.2711 -0.1406
13967W        W34247  12.827  15.359   1.818 -0.0402 -0.2216 -0.0166
13968W        W34248  17.048   7.709   2.490 -0.2071 -0.0111 -0.2626
13969W        W34249  10.598  18.341   0.408 -0.1675  0.0942 -0.1108
13970W        W34250  18.281  12.913   2.103 -0.1410 -0.0123 -0.1500
13971W        W34251  12.084  10.772  11.524 -0.1524 -0.0175 -0.0026
13972W        W34252   1.358   4.926  11.690  0.2907 -0.1091 -0.1174
13973W        W34253   4.707   5.827   0.126  0.3604 -0.4138 -0.1040
13974W        W34254   3.510   3.167  13.343 -0.0300  0.1019 -0.1067
13975W        W34255   8.283  19.319  12.503 -0.0124  0.1675  0.0685
13976W        W34256   3.855  13.742  10.684  0.1710  0.2065  0.1400
13977W        W34257   1.701  19.423  11.534 -0.1748  0.0182 -0.0104
13978W        W34258   4.240   8.313  11.522  0.1466  0.1899  0.1702
13979W        W34259   1.096   3.604  12.678 -0.0640  0.1276  0.4354
13980W        W34260   7.668  13.070   2.331  0.1065  0.3802  0.1703
13981W        W34261   7.522   6.639  11.104  0.2287 -0.2835 -0.0181
13982W        W34262   2.264   3.622  11.365 -0.0941 -0.0610 -0.2513
13983W        W34263  10.503   1.204   1.031  0.1838  0.0423 -0.0171
13984W        W34264  18.181  19.030   0.141 -0.1384  0.0469 -0.0232
13985W        W34265   1.034  17.215   3.032  0.0207 -0.2146  0.1494
13986W        W34266   2.579  12.652   4.341 -0.3029  0.3241 -0.0928
13987W        W34267  11.155  11.227  12.704  0.0099 -0.0406 -0.1343
13988W        W34268   7.934  17.408   0.319  0.0515  0.1570  0.2196
13989W        W34269   4.316  10.864  10.979 -0.3382  0.2959  0.1404
13990W        W34270   5.929   5.576   2.238 -0.0027 -0.0865  0.4959
13991W        W34271  10.109   6.593   5.352 -0.0998 -0.1783  0.2198
13992W        W34272   9.620  14.513  13.805 -0.1661  0.1957  0.1854
13993W        W34273   0.797   5.106   1.418  0.1225  0.1308 -0.1135
13994W        W34274   8.986  16.712   4.628  0.2602  0.3142  0.0242
13995W        W34275   8.041   2.821   3.223  0.1735 -0.1125  0.3491
13996W        W34276   8.188  15.562   3.510  0.3469  0.1653  0.1569
13997W        W34277   1.093  15.693   1.532  0.3452 -0.0582 -0.3630
13998W        W34278   5.766   7.313  10.834 -0.0548 -0.2361  0.0261
13999W        W34279  13.387  16.945   0.886 -0.0838 -0.1097 -0.2361
14000W        W34280  11.529  16.097   0.605 -0.1125  0.0452  0.0585
14001W        W34281  14.024   1.855   3.098 -0.1735 -0.1161  0.1022
14002W        W34282   0.002   2.684  10.274 -0.0648  0.0507  0.1161
14003W        W34283   6.171   8.346   3.436 -0.1098  0.2387 -0.0728
14004W        W34284   6.813   0.346  10.200 -0.3325 -0.0598  0.1045
14005W        W34285  13.352   6.095  12.835 -0.1371  0.0395  0.3665
14006W        W34286   6.806   6.034   2.288 -0.0617  0.0584 -0.2340
14007W        W34287   5.456  15.429  14.038 -0.2525 -0.1991 -0.2595
14008W        W34288   7.709  11.707  10.556  0.5335 -0.1261  0.5556
14009W        W34289  10.156  16.973   0.945 -0.2767  0.0067 -0.3323
14010W        W34290  17.113   2.158  13.112 -0.0887  0.2370  0.1189
14011W        W34291   1.501  15.952  11.615 -0.0279 -0.3008 -0.0222
14012W        W34292  10.271  13.509   2.982 -0.1016 -0.1318 -0.0175
14013W        W34293  19.687   4.177  12.478  0.1806  0.3368 -0.2050
14014W        W34294   3.817  16.436   2.342 -0.1068 -0.0554 -0.2055
14015W        W34295   9.389   7.863   0.761 -0.0950  0.0200  0.1889
14016W        W34296  11.456  10.539   1.857 -0.1292  0.1988  0.3007
14017W        W34297  17.892  18.584   3.500  0.0620  0.2207 -0.1722
14018W        W34298   8.354   3.179  12.358  0.0182  0.0143 -0.0291
14019W        W34299   6.483  13.810   0.888 -0.1611  0.1576  0.3118
14020W        W34300   8.023   9.477   2.830 -0.2004  0.0383  0.1324
14021W        W34301   2.070  11.332   3.645  0.3939  0.5471  0.0339
14022W        W34302  17.467  16.086   0.555 -0.0435  0.0685 -0.1430
14023W        W34303   8.818  16.432   0.625 -0.0699 -0.1516  0.1106
14024W        W34304  18.925  14.107  13.370  0.2178  0.4031 -0.1565
14025W        W34305  17.996   5.148   0.236 -0.0278  0.1795  0.0792
14026W        W34306  17.664   0.849   3.056  0.0580  0.1484  0.2629
14027W        W34307  13.321  13.873   1.066 -0.2962 -0.3029  0.1489
14028W        W34308   7.459   9.743  12.432  0.2152  0.0386  0.0505
14029W        W34309  19.706  14.175  11.368  0.0628  0.1869 -0.1196
14030W        W34310   3.081   7.237   1.741 -0.2185 -0.3579  0.1980
14031W        W34311   9.002  17.845  10.609  0.0390  0.0551 -0.0692
14032W        W34312  18.466   8.933   2.245 -0.2683 -0.2362 -0.0289
14033W        W34313   0.855   6.795  11.863 -0.1642 -0.1243  0.0958
14034W        W34314   6.468   8.036  11.703 -0.1873 -0.0389 -0.1313
14035W        W34315   1.300  11.043  10.305 -0.1717  0.0627  0.1176
14036W        W34316  17.963  16.634  10.193  0.3002 -0.0544  0.0332
14037W        W34317   8.138  13.550   0.308  0.2030 -0.0079  0.1297
14038W        W34318   5.580  13.583   1.032 -0.0502 -0.3156 -0.1326
14039W        W34319  10.812  16.750   1.635 -0.1146 -0.0202 -0.0087
14040W        W34320  17.017   8.111   3.714 -0.1735 -0.2273 -0.3245
14041W        W34321  13.775  10.239   4.307  0.0932  0.0442 -0.1857
14042W        W34322   4.525  12.021  11.155  0.2156 -0.1356  0.2281
14043W        W34323   1.734  16.769  11.393  0.1538  0.0382 -0.1693
14044W        W34324   9.915   1.966  10.115 -0.1344 -0.0387  0.0523
14045W        W34325  10.929  14.357   1.375  0.2034 -0.4407 -0.0485
14046W        W34326   2.435  18.208  13.882  0.1107  0.2339  0.1122
14047W        W34327   0.087  10.364  12.357 -0.2173  0.0701  0.2000
14048W        W34328  19.287  12.162   3.619  0.1058 -0.0705 -0.1695
14049W        W34329   5.736  16.349  13.879  0.3626  0.1147  0.1374
14050W        W34330  19.009   3.006  12.115 -0.0551  0.3617 -0.1133
14051W        W34331   0.460   4.272   0.138  0.4103 -0.1500  0.1317
14052W        W34332   5.714   6.773  12.036  0.0961  0.0610  0.0823
14053W        W34333  10.475   4.959  12.955 -0.0797  0.0807 -0.0514
14054W        W34334   4.788  11.472  12.884 -0.0645  0.0258  0.0381
14055W        W34335   5.486   1.784  11.227 -0.3370 -0.0001  0.2434
14056W        W34336   0.525  17.159   2.697  0.0674  0.2982 -0.0787
14057W        W34337  12.839   5.229  10.970 -0.3033  0.3857 -0.1113
14058W        W34338   2.534  13.342  13.230 -0.0134  0.1928  0.2388
14059W        W34339  18.974  17.597   1.528 -0.0827  0.0908 -0.1424
14060W        W34340  14.670  16.734  13.214  0.3561 -0.3277  0.2448
14061W        W34341   3.800   5.546   2.886 -0.0155 -0.2515 -0.1808
14062W        W34342  10.071  12.883   3.706  0.2574 -0.1375 -0.0271
14063W        W34343  10.535  16.939  11.655 -0.2824 -0.2039  0.0686
14064W        W34344  11.895  17.675   2.121  0.1415 -0.0206 -0.1168
14065W        W34345  12.711   6.913  11.685  0.1436  0.0712 -0.0401
14066W        W34346   0.042  15.919  13.535  0.0490  0.1590 -0.1009
14067W        W34347  18.192   2.247   1.273 -0.0270 -0.1579 -0.0476
14068W        W34348  16.055   4.167   1.802  0.0207 -0.0348 -0.2398
14069W        W34349  12.402   4.105   1.167  0.0081 -0.2547  0.0067
14070W        W34350  12.997  11.835  13.692  0.0714 -0.1083 -0.0874
14071W        W34351   7.190   8.779   0.258 -0.0046 -0.2069  0.0483
14072W        W34352  10.794   2.292   0.132  0.2000 -0.1514 -0.4178
14073W        W34353  18.665  15.334  13.424  0.1934 -0.1697 -0.2950
14074W        W34354   2.383   5.284   3.533 -0.0622  0.0545 -0.0735
14075W        W34355   4.687   9.992  10.659 -0.1601  0.0725 -0.0450
14076W        W34356   4.150  19.552  13.143 -0.1875 -0.1213 -0.0493
14077W        W34357  13.091  17.210   3.661  0.1980  0.2226 -0.0594
14078W        W34358   0.941   0.927  13.171 -0.1041 -0.0249 -0.3085
14079W        W34359   0.802  16.644   0.503  0.3341  0.1579 -0.1787
14080W        W34360  16.202   4.239   0.348  0.0587  0.2496  0.1478
14081W        W34361  13.079   9.309   0.333  0.0428  0.0438 -0.0182
14082W        W34362   8.179  19.626  11.203  0.1979  0.3461 -0.0813
14083W        W34363  10.189  14.756  11.597  0.2389  0.3516 -0.2823
14084W        W34364   2.956  13.821  14.012  0.0718 -0.0993 -0.1884
14085W        W34365   8.180  10.926   1.795  0.1235 -0.1726  0.1839
14086W        W34366  12.616   5.713   3.483 -0.0300 -0.3338  0.0566
14087W        W34367   7.920   2.941  12.431 -0.2652  0.1461  0.2901
14088W        W34368  17.824   8.330  10.200  0.2635 -0.2099 -0.0378
14089W        W34369   1.790  15.287   5.048 -0.0188 -0.0818 -0.0977
14090W        W34370   5.362  11.900   2.327  0.0375  0.0118  0.4246
14091W        W34371   7.727   5.995  10.624  0.0704 -0.0581  0.2367
14092W        W34372  10.664   9.090  10.352  0.2064 -0.3382 -0.1863
14093W        W34373   3.878  15.731  13.363 -0.1008  0.2138 -0.1473
14094W        W34374  19.575   3.694  12.223  0.1513 -0.2258 -0.0546
14095W        W34375  19.559   4.231   0.548 -0.0497 -0.1776  0.0355
14096W        W34376   9.483   5.642   0.295  0.0578  0.1000  0.0475
14097W        W34377   5.799   6.687   1.230 -0.1462  0.1086  0.1258
14098W        W34378   4.094  17.211  10.137 -0.0082  0.2728 -0.3502
14099W        W34379   7.467   3.319  13.300 -0.0015 -0.2923  0.2362
14100W        W34380   2.738  11.151  14.061 -0.1361  0.2515 -0.0606
14101W        W34381   0.998  14.018   1.474  0.4312 -0.1424 -0.0225
14102W        W34382   7.950  12.044  11.745 -0.2696 -0.0112 -0.0027
14103W        W34383  10.401  11.201   2.351  0.2338 -0.3211  0.2108
14104W        W34384   4.734   3.058  10.755  0.1256 -0.1375  0.0869
14105W        W34385  10.383   9.671   2.895  0.0049  0.0307 -0.2260
14106W        W34386  17.076  16.427   0.310 -0.1493  0.1443  0.1098
14107W        W34387   6.408   0.062  11.908 -0.0549 -0.1451 -0.2143
14108W        W34388   6.812   8.694   0.573  0.1877 -0.0183  0.1883
14109W        W34389   8.086  16.489   2.997  0.1602 -0.0421  0.1022
14110W        W34390   9.446   2.019  10.724 -0.3780  0.1610 -0.0937
14111W        W34391  12.310   4.071  10.684 -0.2041 -0.0379  0.2677
14112W        W34392   6.728   7.311  13.226  0.0624  0.0627 -0.0413
14113W        W34393  12.329  11.177  12.833 -0.1072 -0.0772 -0.1829
14114W        W34394   1.568  12.143   2.654 -0.0379  0.0165 -0.2243
14115W        W34395  14.114  19.667  11.894  0.0165  0.0851  0.4740
14116W        W34396  19.280   2.061   2.891  0.0511 -0.0428  0.0804
14117W        W34397   9.314   9.637   3.795 -0.1509  0.1536  0.0913
14118W        W34398   7.996   4.521  11.995  0.2807 -0.3339 -0.2370
14119W        W34399  12.280   4.424   9.996  0.1053 -0.0770 -0.1379
14120W        W34400  17.720   5.897   9.720 -0.0537  0.1483 -0.2038
14121W        W34401  12.334  18.444  12.697  0.0707  0.0507 -0.1753
14122W        W34402   5.074  16.260  10.661  0.0736 -0.0016 -0.0405
14123W        W34403   1.356  15.655   0.575  0.2132 -0.0179 -0.0384
14124W        W34404  19.248  14.570   9.040  0.0003 -0.0354  0.1332
14125W        W34405   5.709   0.344   0.088 -0.2166  0.0616 -0.0343
14126W        W34406   2.559   2.197  10.249 -0.4060  0.0342  0.0532
14127W        W34407  11.500  18.874  12.379 -0.0065  0.1630 -0.0920
14128W        W34408   9.544  10.658  11.528  0.1315 -0.1308 -0.0029
14129W        W34409   8.741  15.865  12.253 -0.1183  0.1364 -0.1168
14130W        W34410  13.935  13.780  11.314  0.0200 -0.0482 -0.2260
14131W        W34411   1.194  16.121   9.735 -0.2033  0.1687 -0.0953
14132W        W34412  12.757   5.243   3.571 -0.1197 -0.0508 -0.2197
14133W        W34413   6.225  11.046   1.072 -0.0763  0.0556 -0.0578
14134W        W34414  17.265   8.359  13.455 -0.2090  0.0284 -0.3051
14135W        W34415   4.721   9.245   2.179  0.1489  0.2993  0.2966
14136W        W34416   2.345  17.290  12.564  0.0467  0.4554 -0.1454
14137W        W34417  15.248   2.613   9.910  0.1146  0.2175 -0.2240
14138W        W34418   0.171  11.231   1.431 -0.2374  0.1162  0.1772
14139W        W34419  15.125   3.368   1.823 -0.1600  0.0005 -0.1257
14140W        W34420   0.299  10.846   2.106 -0.1094  0.0439 -0.1377
14141W        W34421  15.441  15.272   2.552 -0.0673  0.0150  0.2574
14142W        W34422   8.616   3.048  11.885 -0.0387 -0.0866  0.0013
14143W        W34423  14.066   5.608   1.747 -0.1982 -0.0251 -0.2124
14144W        W34424  16.032   1.936  11.749  0.0553  0.1421 -0.0724
14145W        W34425  13.996  15.965  12.793 -0.1229  0.0906 -0.1316
14146W        W34426  12.259   8.205   0.147 -0.0143 -0.1917  0.0313
14147W        W34427   3.031   4.199  11.378  0.0234  0.2857  0.2213
14148W        W34428  14.802   4.099   2.241  0.0763  0.0015  0.1123
14149W        W34429   6.792  17.184   2.971 -0.0117  0.4973 -0.3730
14150W        W34430   5.085   7.743  10.121 -0.2552  0.0877  0.0711
14151W        W34431  10.847  14.504   0.350 -0.2910 -0.0393  0.1586
14152W        W34432  18.569  14.937   3.045 -0.1353 -0.1210 -0.0710
14153W        W34433  13.713   9.860  12.010  0.1210 -0.2048 -0.3711
14154W        W34434  19.621  16.293  11.028  0.0014  0.1074 -0.1628
14155W        W34435   4.539   2.013  12.212  0.1840 -0.0467 -0.3320
14156W        W34436  16.605  19.567   1.770  0.0956  0.2056  0.1311
14157W        W34437   0.942   7.133   9.768 -0.1173  0.0919  0.3935
14158W        W34438  11.029   2.597   0.871  0.2700  0.1118 -0.0143
14159W        W34439   7.330   2.480   3.524  0.1493 -0.0165 -0.2746
14160W        W34440   3.621   3.474  11.735 -0.0125 -0.0418 -0.1293
14161W        W34441  10.981  12.785   0.314  0.1570 -0.2294 -0.0090
14162W        W34442   3.625  17.649  11.549 -0.1223 -0.1860 -0.0771
14163W        W34443  13.774  12.231  12.362  0.0784  0.0949  0.0278
14164W        W34444   3.460   3.894   1.098  0.2568  0.3660  0.3467
14165W        W34445  17.309   3.730  10.471  0.0243 -0.0968  0.2280
14166W        W34446   4.616   3.418  11.589  0.3484  0.4194  0.0557
14167W        W34447  19.524   8.797   0.399  0.1852 -0.3734  0.2196
14168W        W34448  10.687  19.063  10.161  0.4240  0.1467  0.0294
14169W        W34449   7.989   9.670   1.852  0.0587  0.4205  0.1411
14170W        W34450   5.894  18.793   2.204 -0.0916  0.1242 -0.2748
14171W        W34451   0.176   5.151   1.141  0.2128 -0.1737 -0.1709
14172W        W34452   6.424   0.489   1.204  0.1527  0.0828 -0.0797
14173W        W34453   7.188   1.805   1.139  0.1017  0.1052 -0.3658
14174W        W34454   8.990  12.855  11.677 -0.0003  0.3169 -0.0332
14175W        W34455   1.507  17.728   2.366  0.0746 -0.1581  0.1890
14176W        W34456  18.410  18.071   9.092  0.0915  0.1563  0.2781
14177W        W34457   3.639   4.303  11.299  0.0000  0.0350 -0.0722
14178W        W34458  11.868   5.864  10.829 -0.0225  0.3325  0.1694
14179W        W34459  14.426   3.899   3.017  0.1056  0.1834 -0.0641
14180W        W34460   6.764   5.097  13.619 -0.1251 -0.1130 -0.2396
14181W        W34461  13.086  18.625  10.673  0.1697 -0.0200  0.2117
14182W        W34462  15.813  19.268   3.459  0.3774  0.0000 -0.0018
14183W        W34463  16.263  17.435  14.014  0.2540  0.0530  0.2112
14184W        W34464   8.666   1.371  10.638 -0.1107 -0.0918 -0.2322
14185W        W34465  17.518   9.157   0.790  0.0222 -0.0780  0.1936
14186W        W34466   6.309  12.790   2.076 -0.2943 -0.0437  0.1087
14187W        W34467   0.869  14.539  12.264  0.2785 -0.0006  0.2369
14188W        W34468   8.011  17.978  13.747  0.1809  0.2793  0.5806
14189W        W34469  12.178  19.204   0.197 -0.0838  0.0376  0.2291
14190W        W34470  11.212   3.945   0.031 -0.4538  0.0247 -0.0413
14191W        W34471   2.343  18.289   1.414  0.0669 -0.1322 -0.0641
14192W        W34472   3.233  16.107  13.452  0.3287  0.0318  0.2886
14193W        W34473  11.423   3.397  12.067  0.2197  0.0532  0.2583
14194W        W34474   1.393  17.314  11.580 -0.2330  0.2134  0.1270
14195W        W34475  16.708   5.513   0.191 -0.1013  0.2642 -0.2453
14196W        W34476  18.293   2.922  11.771 -0.5686  0.1105  0.2535
14197W        W34477  15.527   8.177  12.845  0.0705 -0.1736 -0.1346
14198W        W34478   7.995  16.656  12.948  0.0182  0.4528  0.3175
14199W        W34479   2.965   7.905   0.588  0.1966 -0.5812  0.0801
14200W        W34480  13.323  16.028   2.071  0.0852 -0.2026  0.1086
14201W        W34481  14.847   1.296   1.153  0.0902 -0.0313 -0.0178
14202W        W34482   6.457   2.387  10.745 -0.2656 -0.3266 -0.1247
14203W        W34483  13.947  16.863  12.194  0.1593  0.0916 -0.0209
14204W        W34484  17.898  18.729  12.697 -0.0981 -0.2728 -0.2436
14205W        W34485  13.171  15.719   2.934  0.1425  0.1308  0.2349
14206W        W34486   3.836  11.108   3.901  0.2121  0.0804  0.2283
14207W        W34487   0.467   9.268  13.442  0.1196  0.1427 -0.1367
14208W        W34488  14.988   4.901  13.002 -0.1960 -0.2494 -0.2691
14209W        W34489   1.068   3.292  13.393  0.2203  0.0289  0.0441
14210W        W34490   1.671  10.331  12.570  0.4145  0.2460 -0.0365
14211W        W34491  15.753  14.125  12.539  0.1525 -0.3096  0.3534
14212W        W34492   4.780   0.639   2.960  0.0191 -0.0296 -0.4628
14213W        W34493  18.268   6.104  11.139 -0.0946  0.0306  0.3512
14214W        W34494   3.666   9.567   0.686  0.0211 -0.4001  0.1357
14215W        W34495   5.666  15.230   3.300  0.0211  0.1216  0.2684
14216W        W34496   9.012  11.868   0.159  0.1451  0.0505  0.2460
14217W        W34497  18.436  11.275  11.746  0.1066 -0.0080 -0.0729
14218W        W34498  13.927  10.725  13.794  0.1405  0.0776 -0.1023
14219W        W34499  15.495   7.123  13.067 -0.2459 -0.0327 -0.1883
14220W        W34500   7.510   5.498   0.346 -0.0970  0.0690 -0.0825
14221W        W34501  16.716   0.907  10.628  0.2011  0.0312 -0.1582
14222W        W34502  10.849   0.133  10.948  0.1002 -0.0024 -0.0085
14223W        W34503  10.688   9.130   3.808  0.2063  0.2189 -0.0863
14224W        W34504   6.936   7.351  12.298  0.0305  0.0677  0.2730
14225W        W34505  12.185  16.594   2.841 -0.2401 -0.0855 -0.0002
14226W        W34506  13.524  19.097   0.221 -0.0170 -0.0762 -0.3377
14227W        W34507   4.457   9.674  12.294  0.3601  0.0793  0.3719
14228W        W34508  19.330   9.501  11.287 -0.1419 -0.1914  0.3670
14229W        W34509  13.418  18.887   1.877 -0.1340 -0.0445  0.0197
14230W        W34510  16.510   0.146  12.494  0.2887  0.4029 -0.0915
14231W        W34511   0.804  17.101  11.669 -0.1480 -0.0121 -0.0257
14232W        W34512   8.604   1.568  12.255  0.2062  0.2183  0.0356
14233W        W34513   0.593   3.653  11.929 -0.1591 -0.4704  0.0890
14234W        W34514  14.181  14.480  12.579 -0.2058  0.1458  0.2050
14235W        W34515  13.666  10.116   4.884  0.1340 -0.1399  0.1231
14236W        W34516  13.645   0.938  11.440 -0.1051 -0.0414 -0.1496
14237W        W34517  14.276   3.605   9.908  0.1192  0.1000  0.1637
14238W        W34518   9.191  18.166  12.342 -0.0396 -0.0911 -0.1233
14239W        W34519   5.935   7.059   4.194 -0.0372  0.0518 -0.0718
14240W        W34520  12.263  17.194   3.546 -0.0494  0.1570 -0.0180
14241W        W34521  12.393  11.103  11.828 -0.3856 -0.1938 -0.0435
14242W        W34522   1.995  19.536  12.907 -0.0444  0.1182  0.2976
14243W        W34523   9.361  18.407   2.691  0.1711  0.0318 -0.1323
14244W        W34524   7.964  18.789   1.669 -0.1187  0.0631  0.0261
14245W        W34525  10.975  18.411   2.150  0.1545  0.0324 -0.1699
14246W        W34526   2.448  12.760  13.037 -0.1415 -0.1724 -0.1493
14247W        W34527   6.120  14.415  13.594 -0.0147 -0.0029  0.3255
14248W        W34528  19.260  16.841   2.600 -0.3448  0.2474 -0.5267
14249W        W34529   4.731   7.600   3.118  0.1282  0.2821 -0.0079
14250W        W34530  13.597  13.542  10.867  0.3682 -0.4383  0.0392
14251W        W34531  16.540   2.337   0.856  0.0788  0.0766  0.4120
14252W        W34532   5.981   4.004  10.867  0.0884 -0.0297 -0.0862
14253W        W34533  14.558   6.872  13.835  0.0112  0.1520 -0.0622
14254W        W34534   9.276  14.592  10.518  0.0867 -0.0622 -0.1886
14255W        W34535  18.933  13.408   4.089  0.1596  0.0160 -0.1498
14256W        W34536   2.713  14.304  14.076  0.1172  0.1370  0.0565
14257W        W34537   5.638   1.985   9.977 -0.0019  0.3272 -0.0886
14258W        W34538  18.007   9.345   1.288  0.3953 -0.1441 -0.1590
14259W        W34539   8.111  12.448   5.280  0.2899  0.1548  0.4276
14260W        W34540  13.551  12.789   3.861 -0.0822 -0.0186  0.0682
14261W        W34541  10.015  17.230  13.365 -0.2766  0.0311  0.1808
14262W        W34542  14.530  14.168  10.435 -0.0870 -0.0377 -0.0253
14263W        W34543  14.021   4.651   3.487  0.1210  0.0284 -0.1794
14264W        W34544   2.891   2.001  12.974  0.0500  0.0558  0.2699
14265W        W34545   2.573   8.537  13.614  0.0277  0.1221 -0.0715
14266W        W34546  19.764  19.097  13.127  0.1305 -0.0616  0.3013
14267W        W34547   0.631  10.563   3.760 -0.0597 -0.0474 -0.0333
14268W        W34548   5.925   0.636  10.182 -0.4114 -0.0380 -0.2862
14269W        W34549   3.044   4.425   5.299 -0.3436 -0.2643  0.1916
14270W        W34550  14.435   4.629   0.581 -0.1137 -0.2062  0.2561
14271W        W34551   6.270   7.451  10.741  0.0363 -0.0405  0.0019
14272W        W34552   7.240  14.154  11.069  0.1357  0.4377 -0.3581
14273W        W34553   8.636  10.535  13.293  0.0795 -0.1075  0.2515
14274W        W34554   1.819   2.545   9.071 -0.3774  0.1086 -0.2945
14275W        W34555   7.851  18.912   1.020 -0.0629 -0.0067 -0.1271
14276W        W34556   8.491  17.927   1.301 -0.2218 -0.1678 -0.1243
14277W        W34557   2.363  11.837   1.640  0.1479 -0.0684 -0.0471
14278W        W34558   3.261   8.756  13.100 -0.1359  0.3068  0.1596
14279W        W34559  13.994   9.029  12.635  0.1957  0.3220  0.2803
14280W        W34560  11.648   0.460  10.964  0.0356 -0.1448  0.1592
14281W        W34561   5.825   6.653   0.225 -0.1997 -0.1692 -0.2818
14282W        W34562   7.156  15.484   1.857 -0.0468 -0.2747 -0.5092
14283W        W34563  11.343  16.757  13.240  0.1646 -0.0575 -0.2595
14284W        W34564   3.118   1.884   2.201  0.2622 -0.0638  0.2169
14285W        W34565   1.488  14.139  13.177 -0.0315 -0.0032  0.0763
14286W        W34566  18.827  17.276   2.291  0.1074 -0.1764  0.0159
14287W        W34567   4.912  11.468   4.460  0.0719  0.2247 -0.3257
14288W        W34568  13.363  17.615   0.259  0.1690  0.1361  0.1823
14289W        W34569  17.454   7.280   1.247 -0.0573  0.3096 -0.0496
14290W        W34570  15.997   2.707   1.497  0.1640  0.2894 -0.2471
14291W        W34571  15.129   2.924  13.970  0.1512  0.0056 -0.0532
14292W        W34572   6.653   5.634   3.737 -0.1723  0.0976  0.0845
14293W        W34573  16.570   3.868   0.166 -0.0352  0.0979  0.1145
14294W        W34574   7.300  13.590  12.694 -0.1427  0.0281 -0.1625
14295W        W34575   0.814  19.667  12.336 -0.2058 -0.1393 -0.1991
14296W        W34576  18.428  17.609   2.649  0.0756 -0.1183  0.1655
14297W        W34577  15.276   1.936  10.450  0.0347 -0.2953 -0.0506
14298W        W34578   9.919  10.938   3.239  0.2157  0.2890  0.0982
14299W        W34579   2.672   5.874  12.823  0.0711 -0.2453 -0.0002
14300W        W34580   1.302   1.389  11.555  0.0343 -0.4167  0.2114
14301W        W34581   5.188   0.502   2.677  0.2487 -0.0913 -0.1920
14302W        W34582   2.668  16.865  11.099 -0.0946 -0.4588  0.1610
14303W        W34583   5.756   6.113  11.475  0.1403  0.0496  0.1990
14304W        W34584   8.268   0.578   0.536 -0.0178  0.3270  0.0507
14305W        W34585  13.399   1.764   0.069 -0.3514  0.1340 -0.3499
14306W        W34586  14.486  15.565   0.661  0.1103 -0.1864 -0.1142
14307W        W34587   8.726   3.367   1.984  0.1406 -0.0870  0.1051
14308W        W34588  13.852   3.674  11.515 -0.0929 -0.0253 -0.2241
14309W        W34589   6.393  15.806   0.352 -0.1602 -0.0040  0.2969
14310W        W34590   6.974   8.818  10.592  0.1130  0.1277 -0.3245
14311W        W34591   8.998  14.462   3.898 -0.2211  0.1137 -0.5997
14312W        W34592  14.969  11.867  12.840  0.1443 -0.2211  0.1447
14313W        W34593  11.449  10.397   4.246  0.0699  0.0171  0.1222
14314W        W34594  11.037   4.916   1.274 -0.1812  0.1413  0.1122
14315W        W34595   1.389  17.287   2.677 -0.2882 -0.0286  0.0459
14316W        W34596  19.361   4.694  11.885 -0.3656  0.1039  0.1982
14317W        W34597   2.558  18.659  12.526 -0.3391 -0.1230 -0.1171
14318W        W34598  15.860  15.325   1.642 -0.1492 -0.0691 -0.3449
14319W        W34599  12.716   6.989  10.533  0.0145 -0.0924  0.1542
14320W        W34600   8.269  13.620   3.386 -0.2523  0.1004 -0.0314
14321W        W34601   6.181  19.258  11.087 -0.0450 -0.1035 -0.1411
14322W        W34602  17.561  10.437  12.039  0.0319 -0.0726 -0.0470
14323W        W34603   9.136   6.635  11.072  0.1474 -0.2240 -0.2988
14324W        W34604  10.980  16.748   2.163  0.1482 -0.2170  0.1236
14325W        W34605   3.725  11.529  11.166  0.0083 -0.1926  0.0052
14326W        W34606   2.363   9.014   9.954  0.0387  0.1447 -0.0250
14327W        W34607   0.420  13.669  10.577  0.2787  0.1820 -0.1784
14328W        W34608  14.714   5.346  13.920  0.1400  0.1003 -0.0039
14329W        W34609   9.485   8.604  11.516 -0.0926  0.0234 -0.1961
14330W        W34610  12.841  11.663   2.975  0.1193 -0.5091  0.2146
14331W        W34611   3.702  18.719   0.178 -0.3387 -0.0609 -0.1266
14332W        W34612   6.150   1.102  12.241 -0.1550  0.0218 -0.2006
14333W        W34613   1.874  12.795  10.504 -0.1343 -0.0177  0.1382
14334W        W34614   7.464  17.995   3.840  0.2803 -0.1800  0.3106
14335W        W34615  10.558  15.566  13.563  0.1168  0.0218  0.0087
14336W        W34616   5.342   8.408   1.771 -0.0821 -0.0544  0.1124
14337W        W34617   8.733  15.563  13.849 -0.0497  0.3164  0.0103
14338W        W34618  17.909  18.154   1.415  0.2330  0.2067 -0.2184
14339W        W34619   1.487   5.916  12.869 -0.2289  0.1384  0.2459
14340W        W34620  12.161  15.110  10.764  0.0107  0.0586 -0.2774
14341W        W34621   1.970   0.167   4.684  0.1963 -0.3551 -0.2186
14342W        W34622  19.766   1.676  13.566  0.1733 -0.1047  0.1228
14343W        W34623   9.109   7.263   1.374 -0.2825  0.3066  0.1086
14344W        W34624  17.798   5.989   0.535 -0.1767  0.0929 -0.3224
14345W        W34625   6.687   7.367  12.723 -0.1959  0.1220  0.2787
14346W        W34626   8.059  14.630  13.227  0.2289  0.0510  0.0677
14347W        W34627   9.905  14.130  12.618  0.0155 -0.0968  0.0945
14348W        W34628   5.793  11.347   0.215  0.0217  0.1234  0.0980
14349W        W34629   5.947  10.047  11.097  0.0774  0.2422  0.3943
14350W        W34630   4.587   6.190  11.840  0.0836  0.0377  0.0136
14351W        W34631  10.523   0.005  13.210  0.0574  0.1558  0.1136
14352W        W34632   9.154  15.833   3.523 -0.0734  0.1048  0.2587
14353W        W34633  11.734  11.112   1.013  0.0494  0.0371 -0.0016
14354W        W34634  17.842   5.141   1.582  0.0864  0.1869 -0.1637
14355W        W34635   4.544  16.381   1.434 -0.2678 -0.1160 -0.0110
14356W        W34636   9.690   1.553  13.978  0.1844 -0.1562 -0.2329
14357W        W34637  11.769  14.030   2.061  0.5125  0.2810  0.2328
14358W        W34638   6.338   2.173  11.253  0.0575 -0.1731  0.3060
14359W        W34639  17.468  16.268   3.531  0.0433  0.1112 -0.0146
14360W        W34640   2.957  12.075   0.033 -0.3452  0.0998 -0.0799
14361W        W34641   9.881  10.974  11.338 -0.1341  0.2013 -0.0234
14362W        W34642   6.970  11.945   0.950 -0.1236 -0.2016  0.0878
14363W        W34643  18.490   9.300  12.507 -0.1410  0.0668 -0.1418
14364W        W34644   1.144   8.578   5.157 -0.0434 -0.1092  0.2447
14365W        W34645   1.781   8.180  12.552  0.1550 -0.2773  0.2255
14366W        W34646  17.755  11.317  12.456 -0.1924 -0.0911  0.1625
14367W        W34647  16.452  19.437   0.766  0.0481 -0.3454 -0.1713
14368W        W34648  12.240  15.472  10.453  0.1864  0.2910 -0.0223
14369W        W34649  14.961  15.535   0.820 -0.1928 -0.1256 -0.0535
14370W        W34650  10.594  17.140   2.350 -0.0745 -0.1494  0.3320
14371W        W34651   9.806   1.344  12.041 -0.0843 -0.0724 -0.0535
14372W        W34652   9.213   4.082   0.693  0.0373 -0.0200  0.0966
14373W        W34653   1.199   8.141  11.253 -0.0376  0.2377  0.1610
14374W        W34654  18.905  17.614  11.563 -0.0918 -0.1320 -0.1199
14375W        W34655  16.880   7.371  12.703  0.3073 -0.2682  0.0049
14376W        W34656  14.667  14.904   0.681 -0.0108  0.0358 -0.3937
14377W        W34657   9.158   2.050  11.739 -0.2335 -0.2388 -0.1322
14378W        W34658   2.744   3.847  13.914 -0.0317 -0.0593 -0.0848
14379W        W34659   3.938   4.543  12.464  0.1629  0.1744 -0.3164
14380W        W34660   4.257  11.300   9.678 -0.3310  0.0076  0.0517
14381W        W34661   0.911   6.373   4.151 -0.0993  0.0006  0.1376
14382W        W34662  10.032   0.656  11.423 -0.0031  0.0767  0.0599
14383W        W34663   5.337  15.482  10.857 -0.0601  0.5314  0.2923
14384W        W34664  16.992   4.222  11.685  0.2602  0.3628 -0.1092
14385W        W34665   7.320  15.524   3.773  0.2686  0.2462 -0.1122
14386W        W34666   0.919  18.434   3.621  0.0591 -0.2323 -0.0355
14387W        W34667   2.341  16.206   0.646  0.1617 -0.1456 -0.0524
14388W        W34668   6.253  11.837  12.786  0.2980  0.0102 -0.3360
14389W        W34669  13.009  12.637   3.821 -0.2096 -0.4528 -0.0743
14390W        W34670  17.906  17.835   4.461 -0.0967  0.2064 -0.0067
14391W        W34671  17.645  17.457   0.598  0.0943  0.1546  0.0596
14392W        W34672   2.382  13.413   0.632  0.1633 -0.0373  0.0251
14393W        W34673  15.175  14.015  10.154 -0.1597 -0.1334  0.0588
14394W        W34674  11.218  19.259   2.938  0.2459 -0.1020  0.4125
14395W        W34675   2.933   9.786  13.548 -0.1121  0.0162 -0.2088
14396W        W34676  11.428   1.970  13.581  0.0868  0.1045  0.2984
14397W        W34677  17.686   5.311  11.928  0.1414  0.0229 -0.0220
14398W        W34678  12.153  17.085  11.137 -0.0600  0.0618 -0.2399
14399W        W34679  14.634   6.819   9.936 -0.2320  0.2735  0.1830
14400W        W34680   4.264   9.719   2.843  0.1523  0.1216  0.1157
14401W        W34681  11.239   2.150  10.700  0.2371  0.0051  0.2384
14402W        W34682  19.300   1.687  13.383 -0.2743  0.1535 -0.1797
14403W        W34683  19.157  12.998   0.904  0.1246 -0.3148  0.1537
14404W        W34684  16.786  15.557  12.730  0.0904 -0.0548 -0.1746
14405W        W34685   9.811   0.597   2.479 -0.1368  0.0392 -0.3162
14406W        W34686   3.087   8.512  10.901  0.2968 -0.3939 -0.0717
14407W        W34687  12.626   4.455  11.433  0.1889  0.5872  0.4260
14408W        W34688   8.468   3.823  10.843  0.0115  0.0207 -0.3824
14409W        W34689   0.522   6.482   2.206 -0.1718 -0.2139  0.0187
14410W        W34690   3.782   5.045  12.558 -0.0294 -0.1960 -0.2297
14411W        W34691  10.568  13.620   0.104 -0.0593  0.2062  0.1387
14412W        W34692   4.694   7.619   0.101  0.1202  0.1797 -0.1359
14413W        W34693  17.197   8.951   1.157 -0.0878 -0.2311 -0.2328
14414W        W34694   3.198   2.201   2.652 -0.0721 -0.0724  0.1305
14415W        W34695   4.067   7.274  10.937 -0.3869 -0.3939 -0.2442
14416W        W34696   1.273   6.768  13.279 -0.0211 -0.0621  0.4165
14417W        W34697  19.514   0.813   2.700 -0.0660 -0.1882  0.1229
14418W        W34698  16.856   1.723  12.876 -0.3822 -0.2416 -0.2580
14419W        W34699  12.838  19.629  10.913  0.0340 -0.1817  0.1865
14420W        W34700   8.909   0.872   3.267 -0.2363  0.2655  0.0452
14421W        W34701  19.057   5.362   0.857 -0.0264  0.1909 -0.1517
14422W        W34702   9.204   6.998   3.757  0.1944  0.0432  0.1179
14423W        W34703   2.653  11.103   2.350  0.1135 -0.0933  0.0778
14424W        W34704  16.750   2.322   2.210 -0.0192 -0.0618 -0.3403
14425W        W34705  10.428  11.348  11.368  0.1006  0.0130 -0.0544
14426W        W34706  10.059   6.461   0.580  0.1511 -0.2989 -0.1905
14427W        W34707   2.437  15.187  10.870 -0.0671 -0.2290  0.3066
14428W        W34708   8.734  17.149   4.637 -0.0893  0.1637  0.1985
14429W        W34709   5.902  13.766  12.729 -0.1171  0.3171  0.4747
14430W        W34710  19.645   4.660   0.351 -0.1563  0.0455  0.1420
14431W        W34711   2.528  11.256   2.797 -0.0448 -0.2292  0.1629
14432W        W34712   8.010   7.364   3.135 -0.1138 -0.1308  0.0842
14433W        W34713   0.269  13.700   2.258  0.2182  0.0087  0.0443
14434W        W34714  15.393  13.125   2.762 -0.3072 -0.1067 -0.1106
14435W        W34715   8.187   3.135  11.429  0.0172  0.1440  0.3629
14436W        W34716   3.132  10.853  11.526  0.2355 -0.0927 -0.1174
14437W        W34717  16.287  14.344   3.379  0.0023  0.0659  0.0222
14438W        W34718   2.635   1.158  13.862 -0.0954 -0.0168 -0.0588
14439W        W34719   2.124  17.478  12.145 -0.0092  0.0125  0.2681
14440W        W34720  17.583  13.913  10.521 -0.0882 -0.0513 -0.1291
14441W        W34721  11.561  14.898   3.913 -0.0459  0.4939 -0.0013
14442W        W34722  13.676   1.523  11.445  0.0889 -0.1047  0.0607
14443W        W34723  17.428  16.365  10.973 -0.1101 -0.0463  0.0732
14444W        W34724  19.063   9.524  10.841  0.2405  0.2888  0.0671
14445W        W34725   8.952   7.698   1.007 -0.1618 -0.2172  0.0034
14446W        W34726  19.506   5.243   0.607  0.2414 -0.1769 -0.0464
14447W        W34727   0.138   5.117   2.504  0.0789 -0.4384 -0.3723
14448W        W34728   1.880  13.332  13.208 -0.3369  0.2083  0.1192
14449W        W34729   5.836  12.771  11.874  0.3440 -0.2747  0.0292
14450W        W34730  12.330   3.904   3.048  0.2160 -0.2740 -0.2028
14451W        W34731   5.589   1.783   0.789  0.1702 -0.0593  0.0649
14452W        W34732   0.346  10.938   0.340  0.0465 -0.0395  0.1184
14453W        W34733   8.488   2.037  10.062  0.2695 -0.1095 -0.2976
14454W        W34734   4.985  15.507  14.006  0.1003 -0.4670  0.1193
14455W        W34735  12.946  10.601   2.937  0.0552 -0.2209  0.1779
14456W        W34736   8.367   0.558  10.732 -0.0573  0.1270  0.0887
14457W        W34737   9.346   9.783  11.909  0.0699  0.2264  0.2889
14458W        W34738  11.863   0.781  10.714 -0.1200 -0.1352  0.0094
14459W        W34739   9.632   4.387   3.997 -0.1456 -0.1204 -0.2497
14460W        W34740  14.419  14.500   0.961  0.0386 -0.2240 -0.3005
14461W        W34741   7.529   9.235   9.908  0.1058  0.1037 -0.0693
14462W        W34742  15.156  13.209  10.827 -0.0504 -0.0131  0.1762
14463W        W34743  12.109   7.548   0.681 -0.2996  0.0118  0.2925
14464W        W34744  11.534  17.602  13.974 -0.2193 -0.0663  0.3731
14465W        W34745   5.801  11.935   1.962  0.2246  0.0329  0.1476
14466W        W34746   0.572   7.791   5.360 -0.0336  0.0713 -0.1010
14467W        W34747  19.642  17.926   3.731 -0.0884  0.0846 -0.0384
14468W        W34748   2.344   7.032   2.931 -0.2370  0.0407 -0.1164
14469W        W34749   9.858  16.282  13.912  0.0362  0.3416 -0.0999
14470W        W34750   8.025   3.854   3.129  0.3311  0.0077  0.3254
14471W        W34751  19.114  10.487   2.111 -0.0567 -0.2222 -0.0918
14472W        W34752   4.093  18.131  12.778 -0.0615 -0.1338 -0.2732
14473W        W34753   2.169  10.324  10.317  0.0440  0.0897  0.2201
14474W        W34754   4.327   3.121   0.873  0.2093  0.1856  0.0337
14475W        W34755   7.679  11.984   1.466  0.2922  0.0217  0.2190
14476W        W34756  18.519   6.776  10.760 -0.0846 -0.1468 -0.2772
14477W        W34757  11.497   5.634   1.418 -0.1637 -0.3807 -0.1477
14478W        W34758  10.754  18.160   1.752  0.1227 -0.2836 -0.0823
14479W        W34759  15.223  11.146   3.387  0.3590 -0.1037 -0.1349
14480W        W34760  16.148  11.861  11.784  0.3094 -0.0083  0.1430
14481W        W34761   6.940   0.564  11.212  0.2234 -0.0347  0.3164
14482W        W34762  13.436   7.002  12.234 -0.0343 -0.2134 -0.2704
14483W        W34763   5.261   1.047  10.453  0.1429 -0.1302  0.0006
14484W        W34764  10.826   7.658   0.249 -0.0864 -0.0770  0.2527
14485W        W34765  14.848   9.310   3.032  0.0008  0.3632 -0.1085
14486W        W34766  16.031   7.743   1.043 -0.2410 -0.0977 -0.0656
14487W        W34767  13.512  12.715  10.441  0.1017 -0.1228  0.2545
14488W        W34768   0.325  19.094   2.770  0.0105  0.1531  0.0199
14489W        W34769  11.626   5.509  13.436 -0.2391  0.1632 -0.0353
14490W        W34770  11.298  16.861   0.922 -0.1962  0.2278 -0.0824
14491W        W34771   0.642   8.152   3.931  0.1501 -0.3382  0.2995
14492W        W34772   1.861   3.960   2.713  0.3479  0.0029 -0.1630
14493W        W34773  13.556  15.769   0.441  0.2722 -0.0330  0.1323
14494W        W34774   0.181   4.299   2.056  0.0866 -0.1955 -0.0622
14495W        W34775  17.939   8.760  11.662 -0.0268 -0.0048  0.2109
14496W        W34776  18.628  11.545  12.212 -0.2092 -0.1774  0.2010
14497W        W34777  11.076  13.699   1.897 -0.0027  0.1315  0.2846
14498W        W34778   8.144   1.918  13.591 -0.1378  0.0732 -0.0700
14499W        W34779   2.650  11.045  11.672  0.2816 -0.1074  0.1258
14500W        W34780  16.716  14.029   2.555 -0.1015  0.0270 -0.0687
14501W        W34781  13.370   8.599   2.697 -0.2282 -0.1969  0.2029
14502W        W34782   3.980   4.126  10.489 -0.0365 -0.0204  0.3794
14503W        W34783   1.364  15.627  10.410 -0.0730 -0.0987  0.3716
14504W        W34784  10.611   2.512   9.485  0.0960  0.0659 -0.0218
14505W        W34785   3.974   9.793   3.233  0.0112  0.1910 -0.3119
14506W        W34786  10.333  17.601   1.124  0.0348 -0.0145  0.1513
14507W        W34787   3.677   5.638  13.234  0.0297 -0.1262  0.0313
14508W        W34788  10.015   4.724   9.780 -0.0251 -0.3451  0.2635
14509W        W34789   9.207   9.101   2.719  0.2283  0.0980  0.3776
14510W        W34790   7.878  12.283   9.880 -0.3030 -0.0754 -0.2544
14511W        W34791  13.066   2.013  10.354  0.2690 -0.3261  0.0087
14512W        W34792   6.720   2.794   1.383 -0.0192 -0.0731  0.1171
14513W        W34793  12.315  10.194  10.741 -0.0659  0.3980 -0.0327
14514W        W34794   6.003  17.028   0.470 -0.1648 -0.0735  0.4846
14515W        W34795  15.716   3.579   3.389 -0.1761 -0.0306  0.0780
14516W        W34796  19.168   2.890  12.746 -0.0726 -0.3607  0.1162
14517W        W34797  12.797  15.124  10.701  0.2981 -0.0945 -0.2023
14518W        W34798   7.345  10.812   0.642  0.0819 -0.2447 -0.1694
14519W        W34799  12.307  10.926   3.715  0.0436 -0.0792 -0.0382
14520W        W34800   6.418   7.386  11.401 -0.1373  0.3179  0.3430
14521W        W34801   1.025  13.586  12.089  0.2532  0.2509 -0.0661
14522W        W34802  12.660   5.472  11.375 -0.2448  0.0391  0.1039
14523W        W34803  19.214  18.325   4.854 -0.0084 -0.2125  0.3540
14524W        W34804   1.400  11.037  11.825 -0.0958  0.1024  0.0622
14525W        W34805   3.870   0.536   2.452 -0.1587  0.0186 -0.0976
14526W        W34806   0.709   6.773   0.381  0.0228  0.1476 -0.2099
14527W        W34807  17.681   6.031  10.196  0.3444 -0.1196 -0.2468
14528W        W34808   2.611  16.461  10.525 -0.1303  0.1424 -0.1707
14529W        W34809   6.431   7.208   2.977 -0.0717  0.0917 -0.1630
14530W        W34810   1.741   9.996   0.082  0.1464 -0.1326 -0.4007
14531W        W34811  19.713  13.221  13.988  0.2041  0.3448 -0.2235
14532W        W34812  10.035  13.552  12.586  0.3393 -0.0904  0.1905
14533W        W34813   6.210  15.014   0.205  0.0678 -0.0927  0.1992
14534W        W34814  15.152   3.895  10.018 -0.4143  0.0737 -0.1343
14535W        W34815  19.325  15.668   9.799 -0.0404  0.0668  0.1346
14536W        W34816   3.505   1.393   0.562 -0.0552 -0.1224  0.0274
14537W        W34817   5.903  18.303  10.712  0.1292  0.1679 -0.2847
14538W        W34818   0.649  11.931  12.731 -0.1267 -0.0914 -0.0334
14539W        W34819   8.095   2.719  11.076  0.0580 -0.0213  0.1223
14540W        W34820   1.115   9.565   4.146  0.1004 -0.0397  0.0214
14541W        W34821  14.202   9.423  13.561  0.1098  0.1038 -0.0550
14542W        W34822   1.438  14.313   1.569  0.0741 -0.0159  0.0494
14543W        W34823  14.727  18.542  13.635 -0.0212 -0.0129  0.0455
14544W        W34824   8.785   8.594  12.586 -0.1643 -0.1801  0.2796
14545W        W34825  15.747  14.659  11.803 -0.3558  0.3181 -0.0614
14546W        W34826   1.953   7.045   0.371 -0.4190  0.0709 -0.1037
14547W        W34827  10.546  18.508  11.011 -0.1720 -0.1063  0.2420
14548W        W34828  11.458  12.073   1.053  0.0459 -0.0402  0.0084
14549W        W34829   4.684   1.045  13.016 -0.2592 -0.1468 -0.0652
14550W        W34830   8.941  16.551  10.882  0.1790  0.1057  0.1965
14551W        W34831   6.792   3.292   3.146 -0.2718  0.0414  0.3151
14552W        W34832   6.080  10.792  11.519 -0.3639  0.4345 -0.1857
14553W        W34833  18.311  13.910   2.004 -0.0924 -0.0834  0.1888
14554W        W34834  16.185   4.533  10.461 -0.2565  0.2796  0.1683
14555W        W34835   5.763   6.233  12.789  0.2385 -0.3181  0.0815
14556W        W34836  16.519  18.848   2.920 -0.0018 -0.1423  0.0155
14557W        W34837  11.927  10.054  13.255  0.1577  0.1258 -0.0397
14558W        W34838  11.754  14.804   1.403  0.0378 -0.0522 -0.3053
14559W        W34839   8.696  15.739   3.348 -0.2182 -0.0943 -0.1154
14560W        W34840   9.241   9.166   2.230 -0.0982 -0.1015 -0.0542
14561W        W34841   8.644   5.316   9.913 -0.2113 -0.0762  0.0764
14562W        W34842   3.116   7.823   9.397  0.3097  0.0790 -0.2421
14563W        W34843   5.068  12.884   2.197 -0.2025 -0.0090 -0.2239
14564W        W34844   0.932   9.360  11.942 -0.0472 -0.1839 -0.4264
14565W        W34845   9.420   1.378  10.032  0.0200 -0.2728 -0.4625
14566W        W34846  12.773  19.302  12.559 -0.0599  0.2364  0.0058
14567W        W34847  16.442  18.675  11.402  0.1629  0.1145  0.0785
14568W        W34848  19.251   7.434   3.764  0.0321 -0.2627  0.3099
14569W        W34849   9.840  11.236  13.241  0.0676 -0.0165  0.2982
14570W        W34850   8.851   7.209  12.168  0.0994 -0.1497 -0.0831
14571W        W34851  16.422   6.274  10.627  0.3371 -0.0297  0.0032
14572W        W34852  11.331   0.236  13.766  0.3277 -0.0492 -0.1976
14573W        W34853  17.272  18.391   3.744 -0.2187  0.2897 -0.0434
14574W        W34854   8.740   4.544   1.601  0.1531  0.0128  0.1641
14575W        W34855   7.745   6.687  13.551  0.1207  0.1316  0.2372
14576W        W34856  18.167   7.928   1.081  0.1666  0.0053  0.1034
14577W        W34857  17.584  17.017  13.879  0.0310 -0.2430  0.1186
14578W        W34858   2.932   1.602  11.523  0.0928  0.0140  0.1481
14579W        W34859  19.039   0.283  12.904 -0.3718 -0.1715  0.2743
14580W        W34860   0.286   4.752  10.925  0.2463  0.1127 -0.0100
14581W        W34861   0.443   2.037   4.638  0.0489 -0.0232 -0.2693
14582W        W34862   7.055  18.425   1.070  0.1816  0.0866 -0.1817
14583W        W34863   2.818  16.137   1.445 -0.1167  0.0402  0.0111
14584W        W34864   6.835  15.745   1.527  0.0167  0.1239 -0.3726
14585W        W34865  15.322   7.677  11.233 -0.1390  0.1734  0.1357
14586W        W34866   1.727  13.852   3.361 -0.0721 -0.1382  0.1983
14587W        W34867   8.581   2.406  11.191  0.2372  0.1994 -0.1838
14588W        W34868  15.792  12.389   1.598  0.1972  0.2658  0.0667
14589W        W34869  11.112   5.363   1.216 -0.0217 -0.0708  0.1159
14590W        W34870   4.760  17.682  12.587  0.3022 -0.0117  0.3377
14591W        W34871  11.008   0.577   1.077  0.0201  0.1464  0.2021
14592W        W34872  14.269  10.038   3.090 -0.1581 -0.1125 -0.0775
14593W        W34873   5.883   8.684   0.481 -0.1834 -0.0847 -0.1805
14594W        W34874  11.074   4.220   1.171  0.4531 -0.1187  0.0237
14595W        W34875  15.935   4.918  10.708 -0.0902  0.0045  0.3356
14596W        W34876   7.678  14.251  13.313  0.1063 -0.2387  0.0695
14597W        W34877  16.634  14.707   0.306  0.1753 -0.0079  0.0453
14598W        W34878  19.592  11.971  10.589  0.1303  0.1178  0.0643
14599W        W34879   2.936   5.785  11.861 -0.0190 -0.0757  0.3316
14600W        W34880   1.145  17.687   1.943  0.2618 -0.1297  0.0327
14601W        W34881  10.932  18.926  11.148 -0.1965 -0.2495 -0.0692
14602W        W34882  19.053   4.195   2.409  0.0286 -0.0125  0.1595
14603W        W34883   7.258  15.548  10.384  0.1616 -0.1157  0.2653
14604W        W34884   2.638   8.379   4.057 -0.2580  0.0739 -0.0098
14605W        W34885   5.314  17.829  13.375 -0.2867 -0.0786  0.0715
14606W        W34886   5.959  18.270  11.218  0.0309  0.1961  0.1298
14607W        W34887   1.570  13.558   3.922  0.2563 -0.1010 -0.0467
14608W        W34888  12.365  17.920   2.269 -0.3649 -0.2008  0.3177
14609W        W34889   8.794  19.002  13.971  0.2179  0.0964 -0.0371
14610W        W34890  16.576   9.474   0.167  0.0282  0.2364 -0.3217
14611W        W34891   4.952  11.241  13.452  0.1499  0.1283 -0.0599
14612W        W34892   1.276   6.971   3.489  0.1771 -0.2170  0.4421
14613W        W34893  19.630   7.415   3.063 -0.5219 -0.2762  0.2872
14614W        W34894  17.647  19.307  13.435  0.2315  0.1187  0.2797
14615W        W34895  11.979  11.871   1.625 -0.1529 -0.0020  0.1603
14616W        W34896  19.503   8.497   3.662  0.0491  0.0038  0.1624
14617W        W34897  18.722  12.943   1.173  0.1332  0.0111 -0.2028
14618W        W34898   9.753  17.282  11.910 -0.2358  0.0149 -0.3146
14619W        W34899  11.851   2.058   1.100  0.1179 -0.0544 -0.0677
14620W        W34900  10.976   1.090  12.261 -0.0302  0.3299  0.0709
14621W        W34901  11.212   6.878   1.544 -0.1182  0.0210  0.2690
14622W        W34902  16.968  14.954   1.634  0.0088 -0.1587 -0.2943
14623W        W34903   7.395   9.259   3.257  0.1428  0.0717 -0.3136
14624W        W34904   1.718   7.311   3.055 -0.0440  0.0908  0.3810
14625W        W34905   8.337  10.083  13.418  0.1174 -0.1747  0.2868
14626W        W34906  18.754  14.638  11.191 -0.2610 -0.1634 -0.4637
14627W        W34907  18.525   6.693  11.617  0.1146 -0.0364 -0.1009
14628W        W34908   8.161   2.216   1.368  0.0642  0.0130  0.4168
14629W        W34909  12.372  16.543  11.330 -0.0902 -0.3879  0.0032
14630W        W34910  12.493  12.124   0.277  0.0377  0.2042 -0.2069
14631W        W34911   3.817  17.312   2.855  0.0591  0.0086 -0.0875
14632W        W34912   0.171   6.309   3.756 -0.2913  0.1591  0.0009
14633W        W34913   9.026  10.545  13.993 -0.0277  0.1144 -0.0859
14634W        W34914  16.221   0.766   1.861 -0.2582  0.0069  0.2201
14635W        W34915  12.747  10.913   0.360  0.2279  0.0563  0.1564
14636W        W34916  13.567  14.436   2.787 -0.0864  0.3215  0.2394
14637W        W34917  17.185  14.866  12.201 -0.0213 -0.1480  0.1058
14638W        W34918  19.737  11.487  10.858 -0.1142 -0.2112 -0.1754
14639W        W34919   5.998   7.474   0.762 -0.0636  0.1291  0.2597
14640W        W34920  19.705   9.959  12.587 -0.3015 -0.2640 -0.3778
14641W        W34921  13.706   8.384   1.827 -0.0736  0.1724 -0.0124
14642W        W34922  14.642   1.354   0.655  0.1630  0.4740 -0.1246
14643W        W34923  19.091  14.265  10.115 -0.1797  0.0319  0.3343
14644W        W34924   2.940   5.232  10.628  0.2354  0.1526 -0.0288
14645W        W34925  11.576  11.327  10.299 -0.2568  0.0499  0.0848
14646W        W34926  13.559   0.362   0.627 -0.1193 -0.1190 -0.0989
14647W        W34927   0.999  15.005   2.663  0.1469 -0.0140  0.1291
14648W        W34928   5.093  16.732   3.025  0.0161 -0.2592  0.1134
14649W        W34929   0.321   1.541  11.682 -0.1762  0.1402  0.0613
14650W        W34930   8.428   7.551   2.240  0.0360  0.0127 -0.3549
14651W        W34931   3.289  12.666  10.950 -0.0673 -0.1286  0.0829
14652W        W34932   9.422   4.397  14.035 -0.3482  0.1930 -0.0301
14653W        W34933  14.583  12.447   2.087  0.0047  0.0128  0.0345
14654W        W34934  16.062   4.755  11.772 -0.0580 -0.1812 -0.0919
14655W        W34935  10.374  16.440   3.004  0.0056 -0.1497  0.0222
14656W        W34936   4.074   7.873  10.779 -0.2623  0.1707 -0.1959
14657W        W34937  13.951  13.546   3.075  0.0722  0.0646  0.1137
14658W        W34938   6.938   2.305   0.082  0.0096  0.0249  0.2842
14659W        W34939  12.969   8.688   2.408 -0.0382  0.1099  0.1399
14660W        W34940   6.886   6.734  11.601  0.2546  0.0306 -0.0555
14661W        W34941   2.095  18.052  10.307 -0.0022 -0.2989  0.0398
14662W        W34942   1.125  18.875   1.769 -0.1268  0.2893  0.2139
14663W        W34943  12.909   5.726   0.266 -0.0827  0.1074  0.1725
14664W        W34944  14.143  13.387   1.890 -0.0154  0.0397 -0.2427
14665W        W34945  18.916   1.737  11.088  0.0329  0.3838  0.3990
14666W        W34946   8.909  14.259  11.474  0.0748 -0.1512 -0.0265
14667W        W34947  14.557  12.582  13.576  0.4499 -0.0145  0.0328
14668W        W34948  12.345  15.715   4.725 -0.1339 -0.0991 -0.2225
14669W        W34949  15.364   7.442  14.040 -0.1461  0.0418 -0.0391
14670W        W34950   1.301  18.414  11.515 -0.0602 -0.1445 -0.0051
14671W        W34951   7.844   0.173  12.221 -0.0306  0.0967  0.0011
14672W        W34952   4.699   9.707  11.747  0.0409 -0.0950 -0.1707
14673W        W34953   7.161  10.787  12.322 -0.1548  0.0041  0.0523
14674W        W34954  14.559   2.895  13.071  0.2617  0.2012 -0.0834
14675W        W34955   2.789   6.436  12.012 -0.1224  0.0365  0.0486
14676W        W34956  16.228  14.468  11.022  0.3254  0.0990  0.0208
14677W        W34957  16.389   4.820  10.091  0.2367  0.2522  0.1438
14678W        W34958   2.140  13.790   1.205 -0.0841 -0.0748 -0.0934
14679W        W34959  12.246  19.322  12.725  0.1259 -0.0486 -0.0476
14680W        W34960  18.088  14.181  12.723 -0.0567  0.2673  0.2207
14681W        W34961  11.112  19.553  11.963  0.3313 -0.0393 -0.1455
14682W        W34962  15.512  11.069  13.982 -0.0683  0.1327 -0.4253
14683W        W34963  10.441   8.058   3.436  0.0002 -0.0160  0.1513
14684W        W34964   9.469  12.031  12.704 -0.0690 -0.1009 -0.0407
14685W        W34965   8.982   2.099   2.097 -0.2357  0.1271  0.1751
14686W        W34966  10.653  19.515  12.412  0.4447 -0.1672  0.0325
14687W        W34967   9.690  17.941  13.805 -0.0381  0.1079  0.0598
14688W        W34968  17.075  10.150   3.936  0.0325  0.5193 -0.2213
14689W        W34969   0.966  12.022  13.896  0.2749 -0.0459  0.1918
14690W        W34970   0.677  12.939  13.407 -0.0813  0.0351  0.1139
14691W        W34971   5.577  15.047  12.187  0.0518  0.0527 -0.1113
14692W        W34972   3.656  14.623  10.438 -0.0123  0.0663 -0.0656
14693W        W34973   6.641  19.512  10.939  0.1583 -0.0830 -0.3163
14694W        W34974  18.496  17.902   2.231  0.0174 -0.0315 -0.0277
14695W        W34975   0.020  16.536  11.940  0.0536 -0.0575  0.1792
14696W        W34976  14.779  15.001   8.874 -0.2156  0.0414 -0.0814
14697W        W34977   5.532   1.679   2.686 -0.0096 -0.2404 -0.1106
14698W        W34978   9.999  13.141  12.935 -0.0237 -0.2500 -0.5775
14699W        W34979  10.340  10.792  10.455 -0.1462 -0.0089  0.1343
14700W        W34980  14.698  12.639   1.023 -0.1457  0.0337 -0.0047
14701W        W34981   0.197  10.985   0.876 -0.1986  0.2843 -0.4743
14702W        W34982  11.510  12.647   2.643 -0.2791  0.0161  0.2489
14703W        W34983  10.598  16.489  12.116  0.3225  0.3668  0.1727
14704W        W34984  15.793   1.074  11.572 -0.3055 -0.1374 -0.1696
14705W        W34985  15.017   8.764  11.281 -0.1355  0.0269  0.3985
14706W        W34986  11.327   1.778  10.388  0.0130 -0.1004 -0.1187
14707W        W34987  17.064  16.577   0.929  0.4731  0.1015 -0.1296
14708W        W34988   5.512  17.847   3.126 -0.0457 -0.1446  0.0313
14709W        W34989   2.054   4.757  10.847  0.1396  0.3314  0.0706
14710W        W34990  18.707  10.072   0.003  0.0740  0.0184 -0.0755
14711W        W34991   3.439  17.256  10.894  0.1521  0.4489  0.0543
14712W        W34992  18.267  11.346  10.934  0.1535 -0.0075 -0.1582
14713W        W34993  14.539  11.137  13.877 -0.0958  0.1909  0.1791
14714W        W34994   6.185  11.588   2.665 -0.2386  0.1728  0.0409
14715W        W34995   8.103  12.964   0.318 -0.4201 -0.0014 -0.1685
14716W        W34996  10.922  14.546  11.799  0.1242  0.1503 -0.2566
14717W        W34997   8.398  15.505  11.033 -0.0484  0.1519 -0.2469
14718W        W34998   7.777  17.394  12.178 -0.0708 -0.1380 -0.5305
14719W        W34999   0.013   6.541  11.619  0.2866  0.0576 -0.0601
14720W        W35000  13.876   4.014   0.836 -0.3614  0.0362  0.2460
14721W        W35001  13.846  18.970   2.159 -0.2814  0.1604  0.1221
14722W        W35002   5.516  16.658  10.675  0.1204 -0.2928 -0.0367
14723W        W35003   7.409  10.122  10.599  0.0905  0.1130  0.4863
14724W        W35004  15.437   6.295   3.894 -0.1053 -0.1080  0.0526
14725W        W35005   7.701   6.159  13.500 -0.0946  0.2581  0.0528
14726W        W35006   9.884  14.379  11.754  0.3261 -0.0174  0.1331
14727W        W35007  19.220   4.400   0.202 -0.0080  0.1676  0.1275
14728W        W35008  15.949  17.175   9.821  0.0132  0.1875 -0.1362
14729W        W35009   3.224   4.983   0.827  0.2613  0.0689  0.1984
14730W        W35010  16.704   6.899   0.051 -0.0872 -0.1539  0.3506
14731W        W35011  18.025   4.831  10.772 -0.0479 -0.2437  0.0486
14732W        W35012   4.533  16.804  13.166 -0.0683 -0.1212 -0.2571
14733W        W35013  16.520   9.982   3.713  0.0509 -0.2581 -0.0669
14734W        W35014   8.961  10.001   2.763  0.0072  0.1927  0.0739
14735W        W35015  15.601  14.958   2.906  0.1314  0.0218 -0.1986
14736W        W35016  18.926   2.774   1.036  0.2461 -0.0876 -0.0659
14737W        W35017  15.271  15.982   2.255 -0.0139  0.0616  0.0992
14738W        W35018   4.423   8.346   0.445 -0.0323  0.3277 -0.1333
14739W        W35019   2.680   8.727  13.142  0.3992  0.0588 -0.2304
14740W        W35020   8.085   9.169   0.937 -0.2598  0.0138  0.1383
14741W        W35021   3.201   2.665  13.500  0.0229  0.0430  0.1257
14742W        W35022  19.583  10.980   2.940 -0.2597  0.2160 -0.0742
14743W        W35023  10.321   2.562  10.966 -0.1499  0.3156 -0.1072
14744W        W35024  15.927  12.729   1.948 -0.2196 -0.3026 -0.4749
14745W        W35025   6.529  17.080  11.452  0.0402 -0.0967 -0.2295
14746W        W35026   1.305   0.009  11.614  0.0326 -0.0742  0.2498
14747W        W35027   4.134   2.009   0.248 -0.0678 -0.0670  0.0138
14748W        W35028   4.858   4.579  11.137 -0.0551 -0.0731  0.3453
14749W        W35029  14.439   1.501  11.841  0.0872  0.2536 -0.0780
14750W        W35030   1.528  10.207   3.058 -0.1612 -0.1154 -0.2603
14751W        W35031  17.035  17.340   0.379  0.4955 -0.3419 -0.0778
14752W        W35032  19.110   7.859  10.533 -0.2403  0.0285 -0.0052
14753W        W35033   3.331   2.439   3.748  0.0329 -0.2577 -0.0972
14754W        W35034  17.726  11.896   0.520 -0.0029 -0.3149  0.1919
14755W        W35035   6.238  10.133  13.531  0.1950 -0.0014 -0.0959
14756W        W35036   6.155  13.247   3.355  0.1975 -0.0720  0.2308
14757W        W35037  11.773  10.101   2.449  0.1960 -0.4111  0.1759
14758W        W35038   4.283   8.821  11.008  0.0689  0.0839  0.1239
14759W        W35039  10.433   3.768   9.973  0.0697 -0.1426 -0.0033
14760W        W35040   7.251   5.765  10.696  0.1523 -0.3271 -0.2090
14761W        W35041   9.066  16.958  13.003 -0.0830  0.1524  0.0362
14762W        W35042  17.210   7.126   1.668 -0.0308 -0.1924 -0.2492
14763W        W35043  18.716   8.578   0.459  0.0072  0.0217 -0.0792
14764W        W35044   4.943   5.074  11.059 -0.2717 -0.0819 -0.0558
14765W        W35045   5.351   6.929  12.434 -0.0889 -0.3437 -0.0010
14766W        W35046  12.355   8.993  12.967 -0.1363 -0.0106 -0.2188
14767W        W35047   9.136   1.051  11.139 -0.1533 -0.2767  0.2250
14768W        W35048   5.365   4.177   3.949  0.0560 -0.1239 -0.0865
14769W        W35049   7.910  18.746   3.223 -0.0452 -0.0377 -0.7330
14770W        W35050  19.407  15.048   1.147  0.1294 -0.0488 -0.0125
14771W        W35051  13.316   9.799  10.419  0.3324 -0.4314  0.1522
14772W        W35052  12.896  18.571  11.721 -0.0451  0.1037  0.1146
14773W        W35053   4.126  18.105  10.421 -0.1578  0.0805 -0.0221
14774W        W35054   6.877  16.884   2.552  0.3639 -0.2620  0.1653
14775W        W35055   6.551   5.166  12.442  0.3338  0.3864 -0.0183
14776W        W35056   0.618   9.904  10.363 -0.1000  0.2924 -0.0457
14777W        W35057  12.540  16.192  12.702 -0.0603 -0.0359  0.3137
14778W        W35058  19.594  11.408  10.417 -0.2014 -0.1878 -0.4414
14779W        W35059  10.863  15.272   2.991  0.0834 -0.0519 -0.0315
14780W        W35060   3.864   0.163   0.392 -0.0083 -0.1834 -0.0201
14781W        W35061   0.408  17.022   1.707 -0.1943 -0.1291 -0.1384
14782W        W35062  15.938   0.220   3.073 -0.3732  0.1535  0.2738
14783W        W35063   6.935   0.313  13.503 -0.1703  0.1256  0.1037
14784W        W35064  19.000  12.973   2.630 -0.0815  0.0484  0.4840
14785W        W35065  10.953  19.522   1.573 -0.4959 -0.0186 -0.1963
14786W        W35066   2.215   8.194  12.707 -0.2038  0.1765  0.0279
14787W        W35067  19.296  15.130  12.689  0.0682 -0.0195  0.3115
14788W        W35068  10.589   9.656   3.747  0.2297  0.0572  0.0196
14789W        W35069  11.915  11.327  12.156  0.1553  0.0799  0.1607
14790W        W35070   7.216  14.901   0.981 -0.0043  0.0708 -0.0715
14791W        W35071   0.243   0.798   0.476  0.2375  0.1156 -0.1976
14792W        W35072  13.092   2.451  12.993 -0.0971  0.2252 -0.4253
14793W        W35073  16.517   0.809   2.200  0.0651 -0.3599 -0.0654
14794W        W35074   0.308   3.969   0.541  0.0305  0.0477  0.1155
14795W        W35075   6.907  18.972  10.355  0.0526 -0.1427  0.0472
14796W        W35076   8.030  11.391   3.209 -0.0742  0.0525 -0.2777
14797W        W35077  13.909   4.592  10.167 -0.1016 -0.0051  0.1461
14798W        W35078   5.437   6.432  12.359 -0.3136 -0.0904 -0.1003
14799W        W35079  19.501  10.021   3.933  0.1144 -0.1605  0.2696
14800W        W35080  13.726   2.460   2.586 -0.1203 -0.0893 -0.2022
14801W        W35081   9.244  16.886  13.982  0.1222 -0.0364  0.2040
14802W        W35082   4.873   4.598  13.427 -0.1602 -0.1333  0.2996
14803W        W35083  18.995   8.649  11.759 -0.2069  0.2476  0.2242
14804W        W35084   2.859   4.717  14.053 -0.2506 -0.1688  0.0129
14805W        W35085  12.231  12.204   4.278  0.2955 -0.0292  0.3291
14806W        W35086  13.742  11.464   9.842 -0.1360  0.0721 -0.1347
14807W        W35087   2.692  18.309   3.624  0.2745  0.1631 -0.1741
14808W        W35088  17.584  15.181   0.458 -0.0229 -0.1560  0.0230
14809W        W35089  19.030   9.653  13.201 -0.0065 -0.1470 -0.1848
14810W        W35090  12.006  18.414  12.327  0.1384 -0.2144 -0.3975
14811W        W35091   1.028   8.945   2.982 -0.2658  0.1246 -0.2916
14812W        W35092  14.698  19.291   0.960 -0.1069  0.1217 -0.2651
14813W        W35093  10.850  12.000   3.520 -0.0731  0.0571  0.1740
14814W        W35094  11.137  14.492  12.870  0.3488 -0.1691  0.0553
14815W        W35095  19.348   8.107  13.923  0.1285  0.2294  0.0328
14816W        W35096   9.896   3.950  11.563  0.0246  0.2710 -0.1717
14817W        W35097   1.349  17.835  12.456  0.3588  0.1141  0.2389
14818W        W35098  18.110   8.673  10.799 -0.2613 -0.0591 -0.1746
14819W        W35099  15.664   1.709   1.438  0.5462  0.2258  0.1755
14820W        W35100   5.755   1.470  12.132 -0.3125  0.3138 -0.2844
14821W        W35101   3.714  12.390   1.458 -0.1875  0.4847  0.3922
14822W        W35102   8.024   5.571   0.713 -0.2218  0.1155 -0.2173
14823W        W35103  10.281  19.475   4.295 -0.2642 -0.1774 -0.3367
14824W        W35104  10.311  14.726  10.949  0.0786  0.0565  0.1059
14825W        W35105  17.792  13.141   2.223  0.0318 -0.3656  0.0011
14826W        W35106   9.484   2.884  10.378 -0.1015 -0.0110 -0.0717
14827W        W35107   4.531   5.057   0.685  0.2530  0.0885 -0.2438
14828W        W35108   1.642  14.382  13.583 -0.1077  0.1049 -0.1597
14829W        W35109   2.868   7.991  11.436 -0.0879 -0.0021  0.1495
14830W        W35110  18.223  12.757   3.865  0.0441 -0.1016  0.1822
14831W        W35111  14.898  13.072   0.803  0.1616 -0.0707  0.0520
14832W        W35112   0.743   1.712  11.906  0.2549  0.3620  0.1094
14833W        W35113   6.632  14.352  13.649 -0.0358 -0.2101 -0.1545
14834W        W35114  18.116  14.890   3.905  0.0621 -0.1682 -0.0149
14835W        W35115   7.850  15.763   1.198  0.0509  0.1917 -0.2209
14836W        W35116  13.410   8.814   2.145 -0.1788  0.1660  0.3918
14837W        W35117   6.190   5.750   3.604  0.1201  0.0276  0.1298
14838W        W35118   9.057  11.562  12.357  0.0322 -0.0189 -0.3074
14839W        W35119   8.126   1.928   2.798 -0.1440  0.1389 -0.0307
14840W        W35120   7.792   5.033  10.718  0.1058  0.1307 -0.2054
14841W        W35121   2.104   9.817   1.876  0.1846 -0.0883  0.0919
14842W        W35122  11.355  15.678   0.269 -0.5760 -0.0315 -0.1353
14843W        W35123   7.775   7.064   1.854 -0.1021 -0.0066 -0.1680
14844W        W35124  18.646  10.822   3.003 -0.3109 -0.2526 -0.4397
14845W        W35125  16.029   5.443   3.573 -0.1724 -0.0447  0.0226
14846W        W35126  15.787  13.483  10.899  0.1555 -0.0030  0.1946
14847W        W35127  10.067  16.722  13.121 -0.0116  0.4315 -0.2452
14848W        W35128   1.032   6.543  13.667  0.0917  0.3332  0.2029
14849W        W35129   9.321   5.343   0.660 -0.2184 -0.0331  0.5863
14850W        W35130   9.052  11.296  13.663  0.2145 -0.0514  0.1471
14851W        W35131  18.589  14.633  10.694 -0.0798  0.0098  0.2955
14852W        W35132   2.642   3.807   0.663  0.0535 -0.2419  0.2355
14853W        W35133  17.498   3.005   4.824 -0.3004 -0.1681  0.1683
14854W        W35134  12.903  13.811   0.296  0.0929 -0.0736 -0.0352
14855W        W35135  15.369   1.193  11.840  0.0214 -0.2587  0.0520
14856W        W35136  12.953  17.451   1.734  0.1380  0.1500 -0.0010
14857W        W35137  13.627   3.137   2.521 -0.4392  0.2353 -0.1619
14858W        W35138  15.990   6.678   3.341  0.0948  0.1464  0.1715
14859W        W35139  14.263   0.683   9.985  0.1988  0.4731  0.0899
14860W        W35140  10.237  19.017  12.223 -0.0104 -0.0699  0.0763
14861W        W35141  14.108  12.724   2.531 -0.3000 -0.2751  0.0114
14862W        W35142   1.394   1.237  13.075 -0.0902  0.3581 -0.1510
14863W        W35143   9.798  12.742  11.466 -0.0798 -0.0253  0.1031
14864W        W35144   9.125   7.994   3.474  0.1946 -0.2942 -0.0418
14865W        W35145   6.035  16.083   2.306 -0.2912  0.1277 -0.1880
14866W        W35146   0.408  13.632  12.984 -0.4661 -0.0356 -0.1831
14867W        W35147   8.078  13.951   9.512 -0.0872  0.3226  0.0173
14868W        W35148   4.957   9.796  12.286  0.1280 -0.2661 -0.2333
14869W        W35149  18.686  14.759   1.407  0.1389  0.0215  0.2268
14870W        W35150   5.020   3.967   3.693  0.0977 -0.1239  0.3241
14871W        W35151   5.885   9.480   9.849 -0.2678 -0.0690  0.1692
14872W        W35152  17.447   9.232  11.539 -0.0393 -0.0105 -0.2742
14873W        W35153   2.315  13.940  12.124  0.0448 -0.0340  0.0723
14874W        W35154  15.112   5.019  13.936 -0.1075 -0.1113  0.0197
14875W        W35155   2.310   3.090  11.411 -0.2424 -0.2049 -0.0681
14876W        W35156   1.665   0.310   1.891  0.2122  0.0245 -0.0046
14877W        W35157   3.407  18.917  11.786 -0.0196  0.2649  0.1262
14878W        W35158  12.606  16.965   2.742 -0.5585  0.0824 -0.0207
14879W        W35159   8.516   1.232   0.608  0.0174 -0.0312 -0.0971
14880W        W35160  18.244   6.629  13.443 -0.0856  0.0613  0.1855
14881W        W35161  17.204  13.272   2.321 -0.1139 -0.1779  0.0330
14882W        W35162   4.669  11.594  11.480  0.0460  0.0613 -0.1137
14883W        W35163   9.774  15.943  10.918 -0.0685 -0.1381 -0.2814
14884W        W35164  18.587   5.168   3.090 -0.1206 -0.0884  0.0354
14885W        W35165   1.548   0.675   2.518  0.2893 -0.2152 -0.1536
14886W        W35166   8.599   4.188   3.814  0.6539  0.1546  0.2071
14887W        W35167   7.478   5.238  13.758 -0.1817  0.0335 -0.0771
14888W        W35168  17.592  10.056   3.764 -0.0895  0.0342 -0.1401
14889W        W35169  13.917  11.288  12.914  0.2044 -0.2393  0.0220
14890W        W35170   8.115   4.200   0.310 -0.0455  0.2963  0.2207
14891W        W35171   1.859   6.576   4.190  0.1782 -0.2080 -0.1102
14892W        W35172  19.292  12.797   2.269 -0.2051 -0.0815 -0.2511
14893W        W35173  10.125  16.753   2.255  0.4382  0.0685  0.3102
14894W        W35174   2.374  15.874  12.347 -0.2247  0.0117 -0.1577
14895W        W35175   1.355  13.981   0.293  0.1448  0.4671 -0.0030
14896W        W35176   0.589   2.266   0.719 -0.1847 -0.0303  0.1906
14897W        W35177  14.040   5.097  11.823 -0.4031 -0.0245 -0.0096
14898W        W35178   3.119   5.805  11.387  0.0612  0.0474 -0.0973
14899W        W35179   7.760  11.640  13.986 -0.1364 -0.1739  0.1319
14900W        W35180  14.420   0.832   1.966  0.0059  0.3058 -0.3039
14901W        W35181   5.836   8.421   1.938  0.0196 -0.3545 -0.0596
14902W        W35182   7.198   0.051   2.602  0.1015  0.1283  0.2189
14903W        W35183  15.004  18.527  12.530 -0.0460  0.3283 -0.0037
14904W        W35184   1.325   0.091  13.335 -0.3273 -0.4641 -0.0988
14905W        W35185   5.596   0.156  10.566  0.0218 -0.2748 -0.1490
14906W        W35186   4.593  16.121   0.183  0.0683 -0.2065 -0.0096
14907W        W35187   0.024  17.100   1.074 -0.2379 -0.2559  0.0902
14908W        W35188  17.595   8.631  13.739 -0.1995  0.3509  0.1013
14909W        W35189   3.008   2.761   1.346  0.2663 -0.3189  0.0257
14910W        W35190  16.901   2.300   1.742  0.1857  0.0041 -0.3902
14911W        W35191   8.682   3.995  13.347 -0.0842 -0.0358  0.1988
14912W        W35192  19.283  18.862  12.951  0.0909  0.1526 -0.0375
14913W        W35193   0.208   0.490   2.433  0.1410  0.0639 -0.2861
14914W        W35194  12.418  11.591  10.976  0.0290  0.2080 -0.4354
14915W        W35195  13.953  19.741  10.583  0.2322  0.1027  0.1120
14916W        W35196  13.664   4.276  10.978  0.1975 -0.3726 -0.0162
14917W        W35197   1.206  11.864   0.903 -0.3856  0.0253 -0.0765
14918W        W35198  14.388  18.439   0.283 -0.1835 -0.2032  0.2750
14919W        W35199  11.102  16.852   0.345 -0.0463 -0.0038 -0.0976
14920W        W35200   0.218   4.192   4.015 -0.1106  0.0933 -0.2541
14921W        W35201  17.580   7.523   1.692 -0.1512  0.0941 -0.0503
14922W        W35202   4.963  18.280   3.391 -0.1406 -0.3826 -0.2541
14923W        W35203   9.953   0.382  12.183 -0.1825 -0.0009  0.2165
14924W        W35204   4.894  17.966  11.085 -0.0957 -0.0093  0.1524
14925W        W35205   7.736   4.781  12.421  0.1556 -0.1168  0.0723
14926W        W35206   5.733  15.179   3.823  0.0088 -0.1847  0.2913
14927W        W35207  10.897  19.734  13.855  0.4455  0.0480  0.0961
14928W        W35208  14.916   9.240  14.029  0.1610  0.2055  0.3634
14929W        W35209  15.000  15.957   1.330  0.2161 -0.2874  0.0675
14930W        W35210  18.209  13.430  11.128  0.2697  0.0698  0.2348
14931W        W35211   0.805   6.413  11.480  0.0226 -0.0562  0.0736
14932W        W35212   5.514   7.886  11.324  0.0535  0.1159  0.0104
14933W        W35213   5.599   5.083  11.421  0.0018  0.0105  0.1030
14934W        W35214   0.994   1.804  13.179  0.1582  0.0291  0.4091
14935W        W35215   8.000   1.106   2.281 -0.1374 -0.2193  0.0427
14936W        W35216   7.169   0.089  13.043 -0.2266  0.0074  0.1248
14937W        W35217   3.188   7.556   2.156 -0.1818  0.1431 -0.0903
14938W        W35218   6.899   8.264   0.895  0.1392 -0.0096 -0.3919
14939W        W35219  12.757   8.081  12.707 -0.0842  0.3416 -0.5930
14940W        W35220   6.038  16.221   1.629 -0.0472  0.1004 -0.2756
14941W        W35221   4.811   0.620   2.355  0.2904  0.4142  0.1520
14942W        W35222  11.111   3.766  11.294  0.1286 -0.3505  0.2977
14943W        W35223   6.341  14.623  12.121  0.0385 -0.1410 -0.0398
14944W        W35224  15.490  12.074   1.844 -0.2004  0.0511  0.2195
14945W        W35225  13.530   5.092   0.709  0.0498 -0.1083 -0.1747
14946W        W35226   2.383  19.706  13.203  0.0932  0.2109 -0.1792
14947W        W35227  15.627   7.457  11.597  0.1148 -0.2045 -0.1715
14948W        W35228  14.884   1.792   0.783 -0.0937  0.2678 -0.0827
14949W        W35229  12.250   4.832   3.088 -0.1172  0.2934  0.1596
14950W        W35230  15.385  17.846   2.190  0.0626  0.0362  0.0253
14951W        W35231   1.041   7.967   2.989 -0.2095  0.1078 -0.1658
14952W        W35232   3.071  18.023   3.604  0.0545 -0.0437 -0.3413
14953W        W35233  19.741   9.755  11.593 -0.2898  0.0136  0.0778
14954W        W35234   5.165   4.400   2.419  0.1013 -0.0762 -0.0588
14955W        W35235  17.104  13.648   3.686  0.2529  0.3451  0.3283
14956W        W35236  10.388   5.555   0.065  0.0792 -0.0222 -0.1547
14957W        W35237  17.160   2.788   3.995 -0.1843 -0.0911 -0.0202
14958W        W35238  17.563   1.223  10.367  0.0632  0.1681 -0.0259
14959W        W35239   3.994  14.746  12.335  0.2300  0.1653 -0.1141
14960W        W35240   7.199  12.960   2.484  0.2025  0.2906  0.0356
14961W        W35241  11.926  16.421   4.018  0.0440 -0.1393 -0.0244
14962W        W35242   0.336  19.466  12.538  0.1317  0.1853 -0.0976
14963W        W35243   6.250  17.950  10.963  0.1432  0.0334  0.0023
14964W        W35244   3.700   7.211   0.133  0.1700  0.1850  0.2542
14965W        W35245   0.169   3.038   3.541  0.1040  0.1347 -0.2627
14966W        W35246  10.445   0.587  13.028 -0.2567  0.0301 -0.3128
14967W        W35247   7.278   7.501  14.033 -0.0202  0.1383  0.1695
14968W        W35248   8.469   0.958  10.496  0.0452 -0.0191  0.5070
14969W        W35249  14.693   9.511   4.438 -0.2985 -0.0901  0.0847
14970W        W35250   0.541   3.021   1.781  0.3461  0.2382 -0.1135
14971W        W35251  17.497  14.821  11.704  0.3407 -0.2669  0.0524
14972W        W35252  15.540  17.352  13.554 -0.1593  0.0897  0.0846
14973W        W35253  18.527  11.074  10.519 -0.1707  0.1781  0.3694
14974W        W35254   0.203   7.471  10.563 -0.1885 -0.0899  0.0353
14975W        W35255  19.223   2.978   3.099 -0.0463  0.3610 -0.1189
14976W        W35256   1.550  19.458   3.221 -0.0151 -0.1630 -0.0944
14977W        W35257  15.545  11.006   2.172 -0.0240  0.1347  0.0288
14978W        W35258  17.061   1.511   0.508 -0.0837  0.1335 -0.2291
14979W        W35259   4.882   1.893  11.854 -0.3031  0.1694 -0.0241
14980W        W35260  13.091  15.809   4.255  0.0062 -0.0959  0.0530
14981W        W35261  18.236  17.488   3.736  0.1521 -0.1928  0.3056
14982W        W35262  12.358  11.933  11.516 -0.0812  0.0607  0.0582
14983W        W35263  19.783   4.415   1.495 -0.1914  0.1721 -0.2784
14984W        W35264  19.751   3.644   3.250 -0.3293 -0.3032  0.0070
14985W        W35265   3.559   3.487  12.846 -0.1204 -0.0063 -0.0904
14986W        W35266  16.631  16.167   0.404  0.0990 -0.0499  0.4610
14987W        W35267   1.620   4.121   3.528  0.1994 -0.1157 -0.1767
14988W        W35268   8.521  11.106   1.031  0.0783  0.2660  0.2475
14989W        W35269   7.705   2.124  12.570 -0.0760  0.1653  0.1778
14990W        W35270   8.080   7.916   1.465 -0.0724  0.1956  0.0714
14991W        W35271   8.015  19.522  12.080 -0.1664 -0.0696  0.1893
14992W        W35272   9.032   1.861   2.751 -0.0956 -0.0725  0.0722
14993W        W35273  11.955   1.230   1.543  0.0851  0.2138 -0.2973
14994W        W35274   8.686   3.608   2.624  0.3042  0.0276  0.0066
14995W        W35275   5.199  15.894  11.065  0.0361  0.2461 -0.4577
14996W        W35276   4.204   4.857  12.894  0.1206  0.3127  0.0328
14997W        W35277   2.075  14.140   2.104  0.1958  0.0358 -0.2825
14998W        W35278   8.924   9.435   1.887  0.1269  0.1922 -0.1002
14999W        W35279   7.399   3.621   1.331  0.0694 -0.1896 -0.0756
15000W        W35280  13.080  10.142   0.680 -0.2657 -0.0367 -0.0559
15001W        W35281   5.475   8.046   2.102  0.0046  0.1214 -0.2596
15002W        W35282  16.871   8.931  11.782  0.1098  0.0487  0.1120
15003W        W35283  14.779   9.332  12.688 -0.0764 -0.2407 -0.0603
15004W        W35284   9.470   8.761   0.950 -0.1061 -0.0031  0.1158
15005W        W35285  17.953  16.445  10.691 -0.2622  0.3701  0.2892
15006W        W35286   9.614   0.424   1.582 -0.0591 -0.3282 -0.0342
15007W        W35287  13.530  19.364  13.255 -0.0244 -0.0825 -0.1466
15008W        W35288   8.990  14.485   0.999  0.3851 -0.2715 -0.2838
15009W        W35289  17.564   0.178   1.947  0.2795 -0.3451  0.0580
15010W        W35290  10.295  14.266   2.392 -0.0752  0.0336 -0.1065
15011W        W35291   4.985   9.747   3.386  0.0590 -0.0467  0.1983
15012W        W35292  13.882   3.710   2.285  0.2021  0.0121  0.5639
15013W        W35293   9.124   1.276   3.512 -0.2179  0.1474  0.0177
15014W        W35294  10.479   2.587   9.029 -0.2934  0.2657 -0.0580
15015W        W35295   7.840   1.004  13.715 -0.1362  0.0418  0.2609
15016W        W35296  10.993   4.735   1.715 -0.0926  0.1343  0.3625
15017W        W35297   7.316  13.904  10.608 -0.1854  0.2010 -0.0987
15018W        W35298   2.791   2.792   4.317 -0.3542  0.0133  0.1391
15019W        W35299  14.220   7.397   3.728  0.0002 -0.0803  0.0074
15020W        W35300  17.876  17.217   0.187  0.0519 -0.0092 -0.2276
15021W        W35301  15.279   9.620  12.216  0.2499 -0.2825 -0.1653
15022W        W35302   2.222   8.981   0.032 -0.3544  0.2531  0.3405
15023W        W35303  14.188   6.103   2.054 -0.0518  0.5067 -0.2631
15024W        W35304  13.046  15.001  13.950 -0.2009  0.0961 -0.0559
15025W        W35305   6.785  15.172   4.066 -0.1987  0.1674 -0.1273
15026W        W35306  15.069   1.543  13.684 -0.0762 -0.0953  0.1064
15027W        W35307  14.478  15.824  12.713 -0.0733  0.1058  0.1501
15028W        W35308   6.495  16.230   0.043  0.0448 -0.0590  0.1873
15029W        W35309   5.051   6.229  11.990  0.2510  0.1265 -0.1142
15030W        W35310  12.855   8.238   9.857  0.0863 -0.1741 -0.0015
15031W        W35311   8.106   0.811  11.040  0.3723 -0.0830  0.0253
15032W        W35312  15.001   1.825  14.054 -0.1141 -0.3521  0.0022
15033W        W35313  11.922   3.907   1.184  0.0509  0.5087  0.0794
15034W        W35314   8.870   2.660   3.773 -0.1634  0.0408  0.4171
15035W        W35315   2.233   1.779   0.819 -0.0981 -0.2134  0.2085
15036W        W35316  11.838   6.608   1.388  0.0939 -0.0104  0.1271
15037W        W35317   1.427  16.261   2.390 -0.1257 -0.1713  0.1599
15038W        W35318   3.329   8.791  12.578 -0.2858 -0.0643 -0.0560
15039W        W35319   3.989   4.110   1.563 -0.1740  0.0525 -0.1709
15040W        W35320   0.558   5.742   0.321  0.0549  0.1359 -0.0252
15041W        W35321  12.401  17.037   2.237  0.2700  0.2986  0.2025
15042W        W35322   4.325   9.294   2.525  0.0926  0.0156 -0.1323
15043W        W35323  14.282  16.730  12.517  0.1233  0.3102 -0.1403
15044W        W35324   2.632  19.524   2.535  0.3314 -0.0426  0.2990
15045W        W35325   9.798   9.697   3.049 -0.2792  0.0176 -0.0747
15046W        W35326   9.335  18.379   3.582  0.0999  0.0998 -0.1780
15047W        W35327   1.341  19.079   2.874 -0.1784  0.1042  0.1414
15048W        W35328   5.538  14.915  11.628 -0.0091 -0.1334  0.0368
15049W        W35329  17.710  16.960  11.914 -0.2317 -0.0633 -0.2251
15050W        W35330  17.544  12.786   0.620  0.3207  0.0247  0.2077
15051W        W35331  15.990   3.297   3.677  0.2888 -0.0966  0.1769
15052W        W35332  18.782   7.866   3.328  0.0521 -0.0297 -0.0846
15053W        W35333   3.368   8.270  12.958 -0.0473  0.1646 -0.1760
15054W        W35334  11.121   8.835   9.798  0.1400  0.0145 -0.3871
15055W        W35335   7.407  10.435   4.107  0.0840  0.2233 -0.2447
15056W        W35336  18.812  12.576  12.310 -0.0812  0.2860 -0.3480
15057W        W35337   2.349   7.546   4.296  0.4068  0.2637  0.0548
15058W        W35338  15.103   5.528   2.589  0.3151 -0.2010  0.0356
15059W        W35339   5.312   0.103  11.979  0.0095 -0.0105  0.2256
15060W        W35340  15.563  16.768  13.136 -0.0980  0.0058  0.0594
15061W        W35341   6.291   4.491   4.051  0.0897 -0.2853  0.2272
15062W        W35342   8.466  14.325   3.929  0.0984 -0.1831 -0.1459
15063W        W35343   6.222   2.043  11.705 -0.1589 -0.2049  0.1029
15064W        W35344   4.912  19.578  11.189 -0.0556 -0.0189  0.0962
15065W        W35345  14.985  18.422  13.238  0.3691 -0.1855  0.0681
15066W        W35346  19.210  16.874   0.923  0.0947  0.0973  0.0287
15067W        W35347   0.977   0.423  12.867  0.0239  0.0574  0.0958
15068W        W35348  19.504   7.170  12.674  0.1738  0.0762  0.1889
15069W        W35349  11.772  15.145   1.767  0.0915 -0.2881 -0.0056
15070W        W35350  18.413  15.424   2.209 -0.1269 -0.0795 -0.1908
15071W        W35351   8.516  13.968  11.375  0.1701  0.3402  0.1635
15072W        W35352   9.707   6.249  11.370 -0.0152 -0.2968 -0.3336
15073W        W35353  16.936  19.436   0.953 -0.3000  0.1124  0.2958
15074W        W35354  15.004  12.349  12.674 -0.1571  0.2400  0.1858
15075W        W35355  14.538   5.034  10.982  0.0725  0.1503 -0.2228
15076W        W35356  17.382  19.247   1.191 -0.0685 -0.1150 -0.0997
15077W        W35357   3.247   6.457  12.229  0.1885 -0.0690  0.1743
15078W        W35358   4.118   9.434   0.494 -0.1548  0.0663  0.0608
15079W        W35359  10.540   8.655  14.029 -0.3027 -0.0197 -0.1095
15080W        W35360  15.979   9.624  11.246 -0.1254  0.2959  0.3906
15081W        W35361  14.992  19.642   2.918 -0.0115  0.1120  0.0715
15082W        W35362  17.752   1.028   2.428 -0.1093 -0.0253 -0.0478
15083W        W35363   7.699  18.244   2.422  0.0437 -0.0711 -0.1761
15084W        W35364   3.084  15.530  10.204  0.2405 -0.2300  0.3079
15085W        W35365  12.993  10.712   3.737  0.1341  0.1543 -0.2123
15086W        W35366  13.399   1.110   0.509 -0.1724 -0.0423 -0.0794
15087W        W35367  10.871   4.512  12.062  0.1707 -0.0004  0.5043
15088W        W35368   9.500  16.806   2.401  0.0243  0.0620 -0.0345
15089W        W35369  12.447  11.859   0.904  0.1596  0.0073 -0.1112
15090W        W35370   2.075  18.746   1.413 -0.1646 -0.0668 -0.2691
15091W        W35371  14.457  14.971   2.086 -0.0172 -0.3408  0.1902
15092W        W35372  18.523  18.726  13.572  0.1272 -0.4914 -0.2637
15093W        W35373   2.540   6.291  11.021 -0.2442 -0.3741  0.1180
15094W        W35374  18.105  19.092  11.511  0.1108  0.0911 -0.1382
15095W        W35375   4.222  11.509  14.050 -0.0573  0.3343  0.0570
15096W        W35376   0.330   0.845  10.656  0.4281 -0.0245 -0.1396
15097W        W35377   3.800  15.721   2.839 -0.0896  0.6248  0.0485
15098W        W35378  10.341  15.469   1.762  0.0812  0.1994  0.1472
15099W        W35379   4.530  11.671  10.392  0.3486 -0.2418  0.2402
15100W        W35380   2.532   7.791  11.928  0.3211  0.3715 -0.1662
15101W        W35381   4.201   8.455   2.197  0.2073  0.1473  0.1396
15102W        W35382   7.426   2.219   0.196  0.1819  0.0999 -0.2613
15103W        W35383   3.085   6.384   2.030 -0.3307  0.0548  0.1617
15104W        W35384  13.242  19.014  10.324  0.0754 -0.0941 -0.0416
15105W        W35385  19.507  18.451   3.686  0.0532  0.1145 -0.1630
15106W        W35386  14.558   4.881  13.700  0.0345 -0.2027  0.2120
15107W        W35387  16.557  10.211  13.648 -0.0393 -0.2065 -0.2071
15108W        W35388  15.420  12.669   4.292 -0.1137 -0.1048 -0.0739
15109W        W35389   0.129   7.071   5.076 -0.3243  0.1936 -0.0078
15110W        W35390   6.206   1.445  10.505  0.3837  0.2433  0.0524
15111W        W35391  10.802  10.781  12.243 -0.1975 -0.1152  0.5328
15112W        W35392   2.789  10.999   5.037 -0.1334  0.0945 -0.4268
15113W        W35393  18.888  17.305  12.627  0.0936 -0.2076 -0.0717
15114W        W35394   9.222   9.033   0.020 -0.1239  0.0329  0.2492
15115W        W35395   9.463  18.108   1.282 -0.0223 -0.0887  0.0897
15116W        W35396  10.097   1.867  12.613 -0.0109  0.2745  0.2081
15117W        W35397   8.012   3.279  13.204 -0.3377 -0.0308 -0.3178
15118W        W35398  13.679  19.497   1.671 -0.1682  0.4698  0.2690
15119W        W35399  12.764   4.575   2.817  0.0775  0.0467 -0.1919
15120W        W35400  19.145   4.982   3.113  0.0564  0.0681 -0.1139
15121W        W35401  18.772   9.727  11.153 -0.1404 -0.0597 -0.0227
15122W        W35402   5.407   2.161   9.045  0.0834  0.0727  0.0641
15123W        W35403   2.740   4.613  12.214 -0.0438 -0.3486 -0.3221
15124W        W35404   6.883   6.906  10.266  0.3061 -0.0082 -0.0630
15125W        W35405   1.682  11.577   3.941 -0.6116 -0.4765  0.1812
15126W        W35406   0.124  14.738  10.207  0.1745 -0.1089  0.2490
15127W        W35407   2.416  13.162  13.825 -0.1847 -0.0260 -0.0428
15128W        W35408   5.580  14.649  10.936  0.3390  0.4744 -0.2068
15129W        W35409   8.497   1.940  11.111 -0.1143  0.0060 -0.0669
15130W        W35410   2.928   8.175   2.890 -0.3322  0.2956 -0.0968
15131W        W35411   8.720  19.052  12.304 -0.4435 -0.1898  0.2129
15132W        W35412  11.003  10.026   0.421  0.3206  0.1049 -0.0738
15133W        W35413   1.298   0.090  11.104 -0.3490  0.3040 -0.0247
15134W        W35414  13.574  14.377   3.346 -0.3621  0.1884 -0.0210
15135W        W35415  18.637  10.813   1.033 -0.2668 -0.1928 -0.2229
15136W        W35416   1.373   7.104  10.677  0.1422  0.2352 -0.1462
15137W        W35417  16.355  18.444  13.053  0.1270  0.2887 -0.0813
15138W        W35418   5.817   4.903  11.981  0.0688 -0.3015  0.0977
15139W        W35419  14.880  13.886  11.317 -0.1912  0.0057  0.0510
15140W        W35420   2.962   8.498  12.149  0.1079 -0.1613  0.2105
15141W        W35421   8.022   3.459   0.720  0.1052  0.3567  0.1192
15142W        W35422  15.494  13.889  10.860 -0.0168 -0.1312  0.2334
15143W        W35423  15.817   7.247   0.108 -0.3576 -0.0362  0.0419
15144W        W35424  14.826   0.925  11.179  0.0609  0.2582 -0.0194
15145W        W35425   8.224   8.536  13.918  0.2784  0.1770 -0.3764
15146W        W35426  11.891  18.793  12.074  0.1918  0.0518  0.0328
15147W        W35427  11.695  14.893  12.185 -0.2149  0.1341  0.0502
15148W        W35428  11.013   8.364  10.979 -0.0942  0.0026 -0.0404
15149W        W35429  11.108   5.199  13.507  0.0134 -0.3849 -0.0036
15150W        W35430  17.709  14.739   9.714  0.1624 -0.0397  0.0952
15151W        W35431   0.145  16.505  12.764  0.0897 -0.1226  0.1552
15152W        W35432   8.519  10.877  11.898 -0.4056  0.0209  0.0540
15153W        W35433   1.395   1.242  12.561 -0.1836 -0.0560  0.0062
15154W        W35434   3.965  12.781   4.191  0.1518  0.2499 -0.3251
15155W        W35435  11.176  10.215  11.591  0.0319  0.1191  0.2316
15156W        W35436   1.956   7.732   3.330  0.1993  0.1078  0.2009
15157W        W35437   8.855   7.600   0.335  0.1481  0.2401  0.1131
15158W        W35438   1.234  11.691   0.403 -0.0026 -0.0321  0.1015
15159W        W35439  19.661  10.239  10.752 -0.0043 -0.0954  0.0871
15160W        W35440  13.631   5.763   3.101 -0.1498 -0.1190 -0.1697
15161W        W35441   3.412   8.449   3.013  0.1552 -0.1444  0.3284
15162W        W35442  17.345   1.622  13.804 -0.0191 -0.0679  0.1309
15163W        W35443   0.019  18.791   3.377 -0.0958  0.4243  0.0574
15164W        W35444   2.125  16.282   3.475  0.2412  0.0865 -0.2375
15165W        W35445   1.789  16.266  13.443 -0.1253 -0.0245  0.2877
15166W        W35446  15.229  19.219   2.066 -0.2952  0.1307  0.3501
15167W        W35447   3.286   2.855  12.975  0.0865  0.0438  0.1189
15168W        W35448  18.293   9.409  13.442  0.0921 -0.3163 -0.1313
15169W        W35449  14.135  10.699   0.121 -0.3219 -0.2792 -0.1481
15170W        W35450  15.867   7.083  10.201  0.2453  0.0151 -0.0313
15171W        W35451   4.461   5.302  12.997  0.0705  0.0082  0.4255
15172W        W35452  10.651   8.015  13.394 -0.1024  0.2599  0.0606
15173W        W35453  12.601   5.421  12.333 -0.0433  0.2442 -0.2124
15174W        W35454  12.091   8.114   4.124  0.3064 -0.0011 -0.0875
15175W        W35455  10.720   3.403  11.278  0.0793  0.0731  0.1929
15176W        W35456  18.674   9.528   0.284 -0.1394 -0.3769  0.0396
15177W        W35457  18.319  10.534   1.671  0.4027 -0.0669  0.0794
15178W        W35458   3.531   8.354   4.342  0.2974 -0.2185 -0.2587
15179W        W35459   2.044  15.044   4.668  0.1549  0.3912 -0.1933
15180W        W35460   0.749  17.730   2.276 -0.1703  0.2808 -0.2458
15181W        W35461  15.416  17.096  10.786 -0.1225 -0.1484  0.2813
15182W        W35462   8.244  18.595   0.680  0.0991 -0.3174  0.1364
15183W        W35463  18.733  16.538   3.166  0.0751  0.1549  0.4250
15184W        W35464   8.134  10.523  13.251  0.5166  0.0307 -0.2465
15185W        W35465  17.332  13.348  12.140 -0.3421 -0.0499 -0.1988
15186W        W35466   4.242   9.420  11.913  0.1149  0.1155  0.2475
15187W        W35467  18.080  10.879  10.443  0.0705  0.0198 -0.2529
15188W        W35468  12.101   6.285  14.047 -0.2437 -0.2764  0.0905
15189W        W35469  10.078   6.880  10.852  0.0405 -0.3019 -0.0434
15190W        W35470   7.364  12.546  11.427  0.2037 -0.1697 -0.0224
15191W        W35471  18.161  16.292  12.507  0.1261 -0.1625  0.2649
15192W        W35472   5.904   1.424   2.924 -0.1572 -0.1148  0.0357
15193W        W35473  18.711   0.350  13.290 -0.1411  0.0576  0.1048
15194W        W35474  11.335  19.776  12.925 -0.0591  0.2736  0.1707
15195W        W35475  13.085  18.024  12.941 -0.1444  0.1963 -0.1469
15196W        W35476   4.404   0.713   8.936 -0.1846  0.0611 -0.0331
15197W        W35477  14.812   2.683  13.599 -0.0921  0.2115 -0.1816
15198W        W35478   3.722  14.558   1.606 -0.0619 -0.0049 -0.0649
15199W        W35479   4.102  14.822   2.464  0.1256  0.1455  0.1905
15200W        W35480   9.311  12.261  13.524  0.1449 -0.2590  0.1608
15201W        W35481   7.278  16.013   3.575  0.1172 -0.0170  0.5930
15202W        W35482   0.341   1.900   2.749 -0.0509  0.0096 -0.1201
15203W        W35483   9.633   2.130   1.257 -0.0188  0.0918 -0.0294
15204W        W35484  18.387   4.842   1.510 -0.1194 -0.2046 -0.3553
15205W        W35485  11.812  17.915   3.126  0.0236 -0.0803  0.2146
15206W        W35486   0.871  19.028   2.165 -0.0539 -0.0586  0.0030
15207W        W35487  19.434   4.706  13.945 -0.3249 -0.1434 -0.1622
15208W        W35488  12.446  10.859   0.822  0.0334  0.0791 -0.0090
15209W        W35489   5.355   4.302  10.802  0.2410  0.2377  0.2753
15210W        W35490   6.114  11.448  13.747 -0.0570 -0.3010 -0.2059
15211W        W35491  19.623  14.940  10.993  0.1004 -0.3730  0.0575
15212W        W35492  14.919   4.393  13.121  0.3300 -0.0322 -0.1410
15213W        W35493  13.147  14.537   3.654 -0.1288  0.1460 -0.1166
15214W        W35494   3.371   7.925   2.955 -0.1428 -0.0673 -0.0814
15215W        W35495   2.052   3.447   1.846  0.0361 -0.2895  0.1088
15216W        W35496   0.360   8.348   1.987 -0.2232 -0.0984 -0.2449
15217W        W35497   0.252  12.019  12.327  0.0120 -0.1883 -0.1676
15218W        W35498   9.101   7.396   2.360  0.1054  0.1110 -0.0324
15219W        W35499  15.528   1.628   2.562 -0.2897  0.1494 -0.4019
15220W        W35500   2.411   2.683   2.615 -0.0930  0.0938 -0.4452
15221W        W35501  12.664   0.286   0.051  0.1144  0.0055 -0.0006
15222W        W35502   8.350   6.937   3.065  0.4450 -0.1161  0.4196
15223W        W35503   8.704  19.114  11.168 -0.1350 -0.1380 -0.1908
15224W        W35504  17.749  14.825   3.485 -0.2126 -0.2459 -0.4047
15225W        W35505   8.199   6.082  10.768  0.3803 -0.1815 -0.1009
15226W        W35506   6.407  13.829  12.897 -0.0594  0.0362  0.1148
15227W        W35507  18.075   3.566   3.728  0.0848  0.3083  0.0320
15228W        W35508   4.042  16.288   1.343  0.1904 -0.3104  0.5273
15229W        W35509   6.550   2.644   2.470 -0.4075  0.0421 -0.2859
15230W        W35510  17.622   4.488   2.150  0.1043  0.3743 -0.2934
15231W        W35511  15.827  18.895  12.184 -0.0789  0.2085  0.1451
15232W        W35512  13.650  17.522   2.893  0.1413 -0.0547 -0.0354
15233W        W35513   3.662  15.858   1.485  0.0510  0.0042  0.0506
15234W        W35514   8.361  11.987   0.751  0.0206 -0.0848  0.4932
15235W        W35515   8.887   1.610   3.748  0.1603  0.0968  0.2179
15236W        W35516   5.678  13.337   0.098  0.3167  0.0783  0.1114
15237W        W35517  13.885  18.725  12.141 -0.0174 -0.1224 -0.3830
15238W        W35518   4.154  11.400  12.785  0.0896  0.0023 -0.1083
15239W        W35519  13.281  13.873   1.564 -0.2717 -0.1699 -0.0296
15240W        W35520  19.468   5.974   1.964  0.2289  0.0774 -0.1382
15241W        W35521   0.140   8.724   3.382  0.1437  0.2389 -0.1390
15242W        W35522   8.974  10.003   3.900 -0.0492 -0.1726 -0.0223
15243W        W35523   5.703  19.601   1.172 -0.0488  0.1300  0.2239
15244W        W35524  18.888   4.727   3.480  0.0886  0.2464 -0.0151
15245W        W35525   8.962   4.934   0.993 -0.1623 -0.0901  0.0277
15246W        W35526   5.770   9.180  10.935  0.2036 -0.0413 -0.0729
15247W        W35527   3.978  12.737  12.662 -0.1916 -0.1091  0.4428
15248W        W35528  12.115   3.330  10.157 -0.0561 -0.1462  0.0135
15249W        W35529   2.638   9.015  13.665  0.0416  0.0376 -0.0190
15250W        W35530  16.401  16.368  10.141  0.0397 -0.1051 -0.2225
15251W        W35531   6.865  17.643   3.684 -0.1887 -0.3108  0.0157
15252W        W35532  12.820   6.698  13.392 -0.2153  0.0162 -0.3110
15253W        W35533  15.332   9.888  13.737  0.1188  0.2169 -0.1010
15254W        W35534   3.368   0.318  13.087  0.3343 -0.1730 -0.0841
15255W        W35535  19.444   9.608   4.169 -0.0761  0.1439  0.0468
15256W        W35536   8.798  17.640   3.414  0.0443  0.2905  0.3971
15257W        W35537   1.508  11.036   1.482 -0.1988 -0.1632 -0.1070
15258W        W35538   3.253  19.502  10.810  0.0284  0.0752 -0.0707
15259W        W35539  18.273   7.207  10.690  0.3228 -0.0843  0.0575
15260W        W35540  17.851  17.455  11.785  0.0742 -0.2967 -0.0262
15261W        W35541  11.734  12.608  11.012 -0.1754  0.0605 -0.5948
15262W        W35542  13.562  16.499   2.667 -0.3976 -0.1762  0.1507
15263W        W35543  12.599  19.032  13.995 -0.0761  0.0958  0.0895
15264W        W35544   4.349  19.647   1.919 -0.2726 -0.0275  0.0020
15265W        W35545  19.397  13.722   3.047 -0.1345  0.0105 -0.1956
15266W        W35546  16.379  19.158   3.347  0.0703  0.0682 -0.2837
15267W        W35547  11.985   7.589  13.091 -0.0306 -0.0041 -0.1059
15268W        W35548  12.684   3.020   9.675 -0.0828 -0.1238  0.2546
15269W        W35549   2.676   0.626  13.969 -0.0516 -0.1829 -0.3292
15270W        W35550   1.303  18.546   2.191 -0.1965  0.0986  0.0461
15271W        W35551   8.443   4.524   0.002  0.0919  0.1146  0.4070
15272W        W35552  16.295   0.370  11.519  0.2617 -0.2839 -0.0215
15273W        W35553   8.602  18.647   2.856 -0.0433 -0.1030  0.2032
15274W        W35554   0.221   5.458  12.765  0.1324 -0.1231  0.2506
15275W        W35555   8.400  14.964  11.762  0.2573  0.1250 -0.0310
15276W        W35556   7.961  13.112  11.342 -0.0130  0.1312 -0.0621
15277W        W35557   6.251  17.277  13.464  0.1087  0.0681  0.0968
15278W        W35558  19.104  13.288   2.233  0.3517 -0.0763 -0.0158
15279W        W35559  14.651  17.543  10.989  0.0080 -0.1017  0.2211
15280W        W35560  18.138   8.533  13.866 -0.1930  0.4165 -0.2043
15281W        W35561  16.443  16.692  12.732 -0.0321 -0.0447  0.0588
15282W        W35562   7.946  14.278   1.495  0.1799 -0.1133 -0.0271
15283W        W35563  13.183   8.511   9.579 -0.1102  0.1319  0.1305
15284W        W35564   8.180  18.571  10.430 -0.2311  0.0143  0.0291
15285W        W35565   3.571  17.699   3.065 -0.0434 -0.0803 -0.2435
15286W        W35566  13.200  10.387   3.294 -0.0430 -0.2596 -0.0582
15287W        W35567  14.966  14.320   3.396  0.1108 -0.0852 -0.2041
15288W        W35568   2.866   4.015  10.834  0.2364 -0.1313 -0.0254
15289W        W35569   3.921   7.867  11.718  0.0880 -0.3758  0.1389
15290W        W35570  15.470   8.647  13.075  0.1267  0.2010  0.3125
15291W        W35571  12.252  13.574  13.898 -0.1654 -0.1230  0.1145
15292W        W35572   4.763   0.174   2.045 -0.0377  0.0117 -0.1785
15293W        W35573   7.186   3.996   3.647  0.0330  0.4130 -0.1941
15294W        W35574   2.236  12.538  10.184 -0.0407 -0.2587 -0.1135
15295W        W35575   8.450  18.833   9.129 -0.1831 -0.0970  0.1922
15296W        W35576  17.615   8.335  11.517 -0.1523  0.0704  0.0030
15297W        W35577  13.604  15.080   4.665  0.2205 -0.1229  0.0881
15298W        W35578  18.872   7.931  13.810  0.4852  0.0848 -0.0348
15299W        W35579   5.711   0.736   1.704 -0.1889  0.1944 -0.0617
15300W        W35580  14.110   3.444  10.318  0.2063  0.0357 -0.0539
15301W        W35581  15.658  15.558   0.078 -0.1219 -0.0753 -0.0171
15302W        W35582  18.107  15.810   2.956  0.0654  0.0828  0.1457
15303W        W35583  15.204   0.992  10.820  0.3110  0.0568  0.0360
15304W        W35584   7.870  14.875  10.938  0.0843 -0.0015  0.3444
15305W        W35585  16.372  11.732   2.232  0.0037 -0.0975 -0.2645
15306W        W35586   2.999  12.932  12.544  0.1925 -0.3069 -0.0942
15307W        W35587   4.430  11.880   2.802 -0.0428 -0.0514 -0.0726
15308W        W35588  10.033  18.416   3.034 -0.2749 -0.3167  0.0703
15309W        W35589  13.763   8.903   2.471 -0.2648  0.0057  0.0504
15310W        W35590  10.447   6.508   2.760 -0.0436 -0.2642 -0.0129
15311W        W35591  15.928   7.501   3.588  0.3747 -0.4409 -0.0372
15312W        W35592  15.545  13.474   3.128  0.3731  0.1201  0.1698
15313W        W35593  11.240  13.449   3.721  0.1815 -0.1318  0.1037
15314W        W35594  13.153  14.110   4.121 -0.1933 -0.3443  0.1845
15315W        W35595   3.178  10.318  13.962 -0.0619 -0.1267  0.1738
15316W        W35596   4.199  16.126  13.316  0.0758  0.0905  0.0275
15317W        W35597   8.649  14.741   3.666 -0.2854  0.1785 -0.0547
15318W        W35598   2.819   7.341   3.833  0.4770 -0.2249 -0.1631
15319W        W35599   2.523  19.428  12.855  0.1432  0.4858  0.2667
15320W        W35600  19.154  10.806   3.203 -0.2365 -0.2006  0.0953
15321W        W35601   6.248  17.109   3.180 -0.1865  0.1222  0.0621
15322W        W35602   2.368  12.781  10.719  0.0999  0.2313  0.0229
15323W        W35603  18.526  11.842   1.111 -0.1306 -0.2644  0.0467
15324W        W35604   2.075   2.266  12.480 -0.0867 -0.0758  0.0834
15325W        W35605   8.071  16.878   2.680 -0.1528  0.2914 -0.2998
15326W        W35606  17.993   9.336   2.613 -0.1225 -0.0321  0.2723
15327W        W35607  10.432  17.068  12.856 -0.0706  0.3336  0.0324
15328W        W35608   5.808   5.258  13.986  0.0945 -0.0365  0.3601
15329W        W35609   6.319   8.978   0.383  0.0223 -0.0961  0.2178
15330W        W35610   5.331  11.831  12.725  0.0473  0.1093  0.1339
15331W        W35611  14.939   0.629  11.638  0.1039 -0.2014  0.2836
15332W        W35612  13.038   8.083  11.737 -0.0043  0.0443 -0.1009
15333W        W35613   6.753   5.001   2.342 -0.1260 -0.3530  0.0507
15334W        W35614  16.132   7.864  12.255 -0.1299  0.1810 -0.4412
15335W        W35615  16.905   3.529   2.810  0.0750 -0.0299  0.0267
15336W        W35616  11.509  12.429  11.522  0.1189 -0.0862 -0.0503
15337W        W35617   0.321  17.726   3.389  0.3114  0.2761 -0.0650
15338W        W35618  15.443   7.490   0.493 -0.1804 -0.0227 -0.0429
15339W        W35619   8.336  19.578   1.970 -0.0106 -0.1303 -0.0203
15340W        W35620   1.736   3.976  13.916 -0.2026  0.4886  0.0432
15341W        W35621  18.173   3.608  12.610 -0.3060 -0.0620  0.3697
15342W        W35622  17.478   3.123   3.708 -0.1437 -0.1732  0.0626
15343W        W35623   4.252   2.944  10.841  0.2439 -0.1168 -0.1768
15344W        W35624  14.377  12.641  10.551  0.0487 -0.2597  0.1881
15345W        W35625   0.915  10.117  11.897  0.2493 -0.0291  0.1759
15346W        W35626   2.558  13.596  11.850 -0.6022  0.0595 -0.3367
15347W        W35627  10.315   1.691   1.154  0.2496  0.2438  0.0905
15348W        W35628  10.417  13.995  13.888 -0.0320  0.0091  0.0795
15349W        W35629   9.266   8.677   2.326 -0.1640 -0.0152 -0.0705
15350W        W35630   3.143  14.471   2.497  0.1598 -0.0300 -0.1618
15351W        W35631   0.468  17.071  13.288  0.0812 -0.2130  0.0065
15352W        W35632   2.329  11.999  12.412 -0.1019  0.0079 -0.2888
15353W        W35633  18.621  19.404   3.275  0.0150 -0.1425 -0.0649
15354W        W35634   7.666   8.902   2.220 -0.0532 -0.0951  0.1750
15355W        W35635   6.526   8.810  10.378  0.0299  0.0493 -0.1721
15356W        W35636  18.770   5.856   1.548  0.1139 -0.0403 -0.2491
15357W        W35637   9.509  17.604  12.179  0.2960 -0.0293 -0.0780
15358W        W35638   1.119  15.482   3.809  0.0083  0.2957  0.0007
15359W        W35639   5.280  15.688   3.882  0.0620  0.0270  0.1446
15360W        W35640  17.411   6.835   2.634 -0.0210 -0.2248  0.0922
15361W        W35641  10.183  16.116  11.199 -0.3680  0.1387  0.0011
15362W        W35642  13.924  16.350  12.471 -0.4108 -0.1249  0.1296
15363W        W35643  16.279  13.592   2.712  0.0185 -0.1444 -0.0974
15364W        W35644   0.192  11.856  11.200 -0.0014 -0.0617  0.1550
15365W        W35645  16.950   9.743   2.076 -0.2476 -0.4520 -0.0923
15366W        W35646  10.485  18.214  11.442 -0.0103  0.0756  0.0490
15367W        W35647   4.088  11.798  10.932  0.2350  0.0202 -0.0109
15368W        W35648  11.222   2.728  12.096 -0.0827  0.0357  0.1960
15369W        W35649   7.081   9.680   3.149 -0.1192 -0.1436  0.0921
15370W        W35650  12.929  18.174  11.398  0.1060 -0.0219 -0.0296
15371W        W35651   0.719   8.206   4.476 -0.2361  0.1021  0.2332
15372W        W35652  19.266  12.512   0.922 -0.0616 -0.3087 -0.2154
15373W        W35653  10.224   4.080   3.293 -0.2860  0.1649 -0.3402
15374W        W35654  17.487  11.552  11.271 -0.1922 -0.1039  0.0421
15375W        W35655   7.813  15.213  12.601 -0.3442  0.2919  0.1548
15376W        W35656  18.314   8.712   3.614 -0.1023  0.0395  0.0093
15377W        W35657  11.072  19.284  12.569 -0.1397 -0.0260 -0.1488
15378W        W35658   0.457  16.086  12.417 -0.1481 -0.0288  0.1918
15379W        W35659  11.169  11.425  10.633 -0.2157  0.1909  0.0183
15380W        W35660   4.114  13.167   3.860  0.2934  0.0923 -0.1733
15381W        W35661   4.269   6.435  12.777 -0.1084  0.0668  0.1985
15382W        W35662  10.358   6.623   1.085 -0.0601 -0.0660  0.2158
15383W        W35663  18.051   9.773  13.166  0.2808 -0.1189  0.3803
15384W        W35664   5.262   1.098  11.288 -0.0836  0.2050 -0.0070
15385W        W35665   1.113  15.419   4.328  0.3663  0.0367  0.3068
15386W        W35666   1.966  13.812   3.814 -0.2084 -0.1535 -0.1209
15387W        W35667   2.195   5.105   3.113  0.2208  0.0472  0.1469
15388W        W35668   9.432  14.637  11.878 -0.0234 -0.1867  0.0677
15389W        W35669   0.913  14.973  12.561 -0.0035  0.0560 -0.3343
15390W        W35670  13.754   6.060   1.765 -0.1872 -0.1064 -0.1001
15391W        W35671   4.138   3.261   2.017  0.1053 -0.0153 -0.1105
15392W        W35672   4.443  12.812  12.805 -0.0274 -0.3903 -0.0831
15393W        W35673   8.504   7.817   3.545  0.0033 -0.0351  0.0727
15394W        W35674  19.241  14.486  11.462 -0.1521  0.4028  0.3431
15395W        W35675  12.376   7.040   0.752  0.0409  0.1464  0.0740
15396W        W35676   2.055  17.665   3.669 -0.0447  0.1084 -0.1099
15397W        W35677  14.720   0.070   0.641 -0.1995  0.1315 -0.1404
15398W        W35678  16.641   1.957  11.844  0.2174  0.3658 -0.2636
15399W        W35679   7.075   1.078   2.177  0.2800  0.1275 -0.2123
15400W        W35680   3.206  16.721  12.070  0.1736  0.1789 -0.1643
15401W        W35681   2.825  17.534   1.186  0.1909 -0.1689 -0.0155
15402W        W35682  17.756   5.566   3.791  0.0840  0.0441 -0.0830
15403W        W35683   6.778   5.920  13.213  0.0917 -0.0759 -0.0112
15404W        W35684   7.220   4.785  10.940 -0.1352  0.0113  0.0928
15405W        W35685  14.718  11.930  13.315 -0.0079  0.0122  0.2320
15406W        W35686  12.334  10.666   0.325  0.0070  0.3165  0.1527
15407W        W35687  16.300   7.441  12.651 -0.1083 -0.2047  0.1122
15408W        W35688  13.521  17.468   0.693  0.2675 -0.1977  0.1217
15409W        W35689   8.024  11.292   0.431  0.2308 -0.1537  0.0717
15410W        W35690  16.787  14.365   3.094 -0.0073 -0.1100 -0.0513
15411W        W35691   5.363  16.730   2.563  0.4688 -0.0367  0.2984
15412W        W35692  16.738   4.619  13.793 -0.0458  0.2899  0.0572
15413W        W35693   4.092  10.895  10.335 -0.1097 -0.1938 -0.0240
15414W        W35694  14.175   0.056   1.433  0.1393 -0.1124  0.1485
15415W        W35695  14.684   0.769  13.896  0.2819 -0.1733 -0.0166
15416W        W35696   0.314   6.511   0.242 -0.1481  0.1439 -0.1426
15417W        W35697   9.994   7.042   3.484 -0.2357 -0.0726  0.1297
15418W        W35698   4.327  15.628  12.295 -0.1402 -0.0213 -0.1512
15419W        W35699   5.103  14.365  13.091  0.1981  0.2658  0.1510
15420W        W35700   1.409  13.400  13.344  0.2579  0.4667 -0.2888
15421W        W35701  16.000  11.522   3.529 -0.1602  0.2166  0.0174
15422W        W35702   4.544   2.317   3.030 -0.0155 -0.1277 -0.1256
15423W        W35703   7.754  12.615   2.720 -0.3431 -0.0041 -0.2316
15424W        W35704  14.162  19.131  11.998  0.0974 -0.0163  0.3084
15425W        W35705  17.453   2.274  12.227  0.0649  0.2302  0.1275
15426W        W35706  13.192  12.527  11.990  0.2361 -0.1799 -0.0517
15427W        W35707   6.747   2.433   2.878 -0.1751  0.1972  0.1867
15428W        W35708   3.852   3.028  13.012  0.0840 -0.0685 -0.2215
15429W        W35709   9.401  19.255  11.884  0.0112  0.2447 -0.1354
15430W        W35710  13.889  16.485  11.531 -0.1216  0.1961 -0.0619
15431W        W35711  10.196  14.225  10.820 -0.1164 -0.5302 -0.0306
15432W        W35712   3.043   6.288  13.507 -0.1477 -0.0213  0.0708
15433W        W35713   2.778   2.059   0.609 -0.1992 -0.0165 -0.1282
15434W        W35714   9.962  17.882   0.754 -0.2266 -0.3361  0.0079
15435W        W35715  17.129  12.283  10.429 -0.0811 -0.0559  0.0068
15436W        W35716   4.137   6.454   1.603  0.0018  0.0116  0.1790
15437W        W35717   0.456  18.163   3.682 -0.0137 -0.3079  0.1564
15438W        W35718   0.102   3.996  10.803  0.0263  0.0981  0.0803
15439W        W35719  16.522  10.854   3.286  0.1971  0.0435  0.0223
15440W        W35720   8.831  12.800  10.961  0.1476  0.2086 -0.0338
15441W        W35721  11.673  16.311   3.549  0.1449  0.3540 -0.1271
15442W        W35722  17.233   6.934  10.389  0.1011  0.0357  0.1165
15443W        W35723   7.852   2.280  13.145 -0.2264  0.3021  0.1905
15444W        W35724  12.028   8.108   2.463  0.3766  0.1113 -0.2089
15445W        W35725  10.258  11.255  10.733  0.3273 -0.3850  0.1415
15446W        W35726   3.491  15.968   2.375 -0.2319 -0.0406  0.1233
15447W        W35727   5.753  17.581  12.328 -0.4307 -0.1951 -0.0086
15448W        W35728  18.880   1.732  13.080  0.0200  0.2049 -0.1630
15449W        W35729   3.375   3.442   5.166  0.0499 -0.0155  0.1074
15450W        W35730   0.724   2.313  10.835 -0.3821  0.5313  0.2355
15451W        W35731   3.895  15.442   9.245 -0.0638  0.2185  0.1595
15452W        W35732  10.124  13.433   3.862  0.0566  0.2606  0.0413
15453W        W35733  18.484   8.806  12.690  0.1298 -0.2030 -0.0857
15454W        W35734  12.649   6.382  11.759 -0.4206 -0.1997 -0.4155
15455W        W35735  11.791  15.370   2.569 -0.0023  0.2704  0.0703
15456W        W35736  13.922  11.308   2.541  0.2055 -0.0627 -0.1594
15457W        W35737   3.836   8.073   3.000  0.0697  0.0413  0.0506
15458W        W35738  12.867  10.448   1.029 -0.0224 -0.0452 -0.2650
15459W        W35739  17.925  14.852   2.466  0.1228 -0.2268  0.0235
15460W        W35740   5.272   8.969   9.761  0.0851 -0.2288  0.1301
15461W        W35741  16.437   2.442   3.908  0.0768  0.2371  0.4316
15462W        W35742   7.421  14.546   3.037 -0.1994 -0.1625 -0.0630
15463W        W35743  13.927   1.091  13.240 -0.1947 -0.2351 -0.1530
15464W        W35744  14.162   6.926   0.138 -0.2796  0.1686 -0.1490
15465W        W35745   9.123  13.199   1.477  0.0653 -0.3612 -0.0315
15466W        W35746  11.526  18.360   9.604  0.0806 -0.4736  0.0554
15467W        W35747   6.196   1.334  14.000 -0.1300  0.1659  0.0646
15468W        W35748   7.996  11.797  11.165  0.0931  0.2549  0.3101
15469W        W35749   4.156   7.131   4.453  0.2112 -0.1455  0.0166
15470W        W35750  11.589   2.680  13.997  0.2318  0.1079  0.0535
15471W        W35751   0.356  10.095   0.849 -0.0366  0.0301  0.2600
15472W        W35752   7.904  15.709  12.717  0.0326  0.0102 -0.7312
15473W        W35753  13.241  12.438   3.434  0.1330 -0.1279 -0.0480
15474W        W35754  16.240  19.162  12.367 -0.1263 -0.0205 -0.1327
15475W        W35755   8.471  12.437   3.295 -0.1957  0.1026 -0.0704
15476W        W35756  19.656   1.149   0.587  0.4295  0.3410 -0.1726
15477W        W35757  15.543   5.719   2.745  0.1177 -0.3051  0.0619
15478W        W35758   5.416  12.000  10.895 -0.2184 -0.0245  0.2067
15479W        W35759  11.284  18.089  11.012 -0.1596 -0.1368  0.3473
15480W        W35760   9.660   8.831   0.281  0.0541 -0.2450 -0.3090
15481W        W35761   6.550   6.512   1.552  0.0005  0.2979  0.3199
15482W        W35762  17.870  13.503   1.342  0.2195 -0.2988  0.0616
15483W        W35763  14.356  13.386   2.928  0.2245 -0.3219 -0.0316
15484W        W35764  15.879  10.909   1.141 -0.0382 -0.0381 -0.2000
15485W        W35765  19.656   3.482  10.798  0.0540 -0.2392 -0.1220
15486W        W35766  12.957  10.211   1.877  0.0514  0.2111 -0.0387
15487W        W35767   7.814   1.423  13.160 -0.0751 -0.0552 -0.0593
15488W        W35768  10.061  15.654   3.123  0.3802  0.5406 -0.0894
15489W        W35769   4.394  15.101   3.768  0.0499  0.0820 -0.0376
15490W        W35770  12.128  17.911  13.122  0.0833  0.4999 -0.2128
15491W        W35771   1.681   7.502   2.388 -0.2584 -0.1599  0.1877
15492W        W35772   9.733  15.323  12.285  0.1301 -0.1172 -0.1117
15493W        W35773  12.535  18.940  13.446  0.2275 -0.1312  0.0151
15494W        W35774   7.939  17.862   1.283  0.0703  0.2800  0.3705
15495W        W35775   2.311   4.941  12.202  0.0247  0.0275 -0.1971
15496W        W35776  13.400   1.222  14.090 -0.0442  0.0660 -0.0058
15497W        W35777  10.157   2.213   0.662  0.0974 -0.0210 -0.1027
15498W        W35778   9.919  10.936   4.585 -0.0564  0.0141  0.1817
15499W        W35779  19.777  15.860  12.667 -0.2066 -0.3674 -0.2138
15500W        W35780   3.161  16.582   1.528  0.0717 -0.2083 -0.1619
15501W        W35781   4.501  14.852  11.450 -0.1357  0.0228 -0.2483
15502W        W35782  16.821  13.257   1.251 -0.3413  0.1529 -0.2280
15503W        W35783  12.835  12.615   0.483 -0.0795  0.1367 -0.0800
15504W        W35784   6.067   1.627   3.874 -0.3470  0.0127  0.0133
15505W        W35785   3.483   3.529   1.420  0.0455 -0.0171  0.4501
15506W        W35786   6.414  16.911   2.717 -0.3137  0.0485 -0.1861
15507W        W35787  17.922   9.216  13.735  0.0619  0.0191  0.0987
15508W        W35788  18.762  17.360   3.726  0.0620 -0.0139 -0.1938
15509W        W35789  18.828   1.379  12.780  0.0511  0.0205 -0.1291
15510W        W35790   9.902   4.529  10.833  0.2824 -0.1124  0.0058
15511W        W35791  17.226   6.071   2.350  0.6054  0.0300  0.4855
15512W        W35792  17.906  11.223   4.208 -0.1658  0.2147 -0.0008
15513W        W35793  13.654  17.468  12.337 -0.1754 -0.1299 -0.0959
15514W        W35794   5.542  16.059  10.744  0.1897 -0.2602  0.3226
15515W        W35795  13.786   9.267  13.952 -0.1098  0.2629  0.1301
15516W        W35796  12.404   9.965   2.399  0.1306  0.3008  0.0788
15517W        W35797   8.344  12.766   4.731 -0.2282  0.1784 -0.1852
15518W        W35798   1.633   3.374   0.613  0.2159  0.2426  0.0793
15519W        W35799  10.642   7.586   3.561  0.0701 -0.1983  0.1215
15520W        W35800  11.903  14.257   2.848  0.0957  0.1081 -0.0571
15521W        W35801   9.695  13.428   1.954 -0.0263 -0.2591  0.1760
15522W        W35802  10.572   3.131   9.959  0.2763  0.1239  0.0919
15523W        W35803  18.262  14.131   9.430 -0.1916 -0.0291 -0.1288
15524W        W35804  16.685   8.865  10.670 -0.1661  0.3581 -0.0295
15525W        W35805  17.996   0.540   2.600  0.1006  0.1060 -0.2576
15526W        W35806   5.794  16.848   2.986 -0.0741 -0.2919  0.0713
15527W        W35807   1.565   9.186   2.738  0.1561 -0.3578  0.1339
15528W        W35808  11.986  16.780  11.704  0.1558  0.0083  0.1942
15529W        W35809  17.461  18.595   2.691 -0.1764  0.3019  0.0216
15530W        W35810  14.891   6.167   1.329  0.1024 -0.1617  0.1058
15531W        W35811   1.448  13.509  13.959  0.0107 -0.0524  0.4419
15532W        W35812   6.630   9.331  11.524 -0.0522 -0.5723 -0.0601
15533W        W35813   6.898  14.970  11.185 -0.2256 -0.0147  0.1761
15534W        W35814   1.879  18.898  10.705  0.0003  0.0839  0.2505
15535W        W35815   0.135   1.795   1.146 -0.1291  0.2081 -0.2050
15536W        W35816   0.329   9.081  10.963 -0.0159 -0.1828 -0.1931
15537W        W35817   1.729   9.024  13.229  0.1348  0.1551 -0.1765
15538W        W35818   1.465  18.664  13.815 -0.2507  0.3085  0.1495
15539W        W35819  12.163   4.203  12.690 -0.0442  0.0295 -0.0186
15540W        W35820  14.594   8.064   1.599 -0.0451  0.0657 -0.2483
15541W        W35821  18.325  15.003  11.029 -0.1192  0.3714 -0.0544
15542W        W35822  16.143  18.815   1.994  0.1040  0.0504  0.1908
15543W        W35823   8.465  15.435  11.999 -0.4915 -0.1333 -0.0045
15544W        W35824  11.783  10.658   2.736 -0.1159 -0.0860  0.1999
15545W        W35825  17.699   7.537   0.651 -0.0437 -0.0487 -0.1103
15546W        W35826  17.698  10.195   2.339 -0.1049 -0.1075 -0.1047
15547W        W35827   7.816   3.140   2.331  0.3083  0.0429 -0.2087
15548W        W35828  18.294  10.786   0.053 -0.1662 -0.2240  0.2628
15549W        W35829  14.689   5.104  11.471  0.2810  0.0574  0.2107
15550W        W35830   2.719  13.145   2.389  0.0171 -0.1061  0.0316
15551W        W35831  18.497   6.306   1.525 -0.1428 -0.0754  0.1428
15552W        W35832  18.588  13.810   3.984 -0.0931  0.0074  0.1001
15553W        W35833   8.473   9.573   2.096 -0.1836 -0.1005 -0.0481
15554W        W35834   8.010  15.760  13.560  0.0716  0.0183 -0.1072
15555W        W35835   2.744  14.751  10.874  0.1393 -0.0917  0.0833
15556W        W35836  17.642  19.418   1.771  0.1034 -0.0155  0.1886
15557W        W35837  18.116   6.830   3.229  0.0638  0.0804  0.2726
15558W        W35838   2.334   9.526  10.683 -0.0211 -0.1418 -0.3476
15559W        W35839  14.079   3.081   3.203 -0.2333 -0.1836 -0.0690
15560W        W35840   3.501  12.671  13.790  0.2132  0.1021 -0.0345
15561W        W35841   3.005   8.496   0.536  0.2252  0.2499  0.0071
15562W        W35842  11.416   4.534   1.431  0.1645  0.1953  0.0747
15563W        W35843  18.991   7.486  11.054 -0.1905  0.0494  0.1365
15564W        W35844   6.635   3.201   0.937  0.1032 -0.1573 -0.2165
15565W        W35845   7.909   6.119   3.461  0.1110  0.0284  0.0962
15566W        W35846   3.369  11.705  11.470  0.3983  0.1053  0.2168
15567W        W35847  17.212   4.717   3.666  0.0198  0.1353  0.0746
15568W        W35848  12.601   3.400   2.599 -0.2870 -0.3371  0.0703
15569W        W35849   0.246  11.928   0.588 -0.2465 -0.2144  0.3243
15570W        W35850  11.862   4.053  11.798 -0.0861  0.3839 -0.0090
15571W        W35851  14.771   6.678   0.138 -0.1185 -0.0386 -0.0311
15572W        W35852  17.119   7.194  11.447  0.4474  0.2915  0.2416
15573W        W35853  13.671   4.753  10.570  0.0216  0.2306  0.1559
15574W        W35854   7.730   1.319  10.590 -0.0775 -0.0686  0.2127
15575W        W35855  18.791  17.178   1.793 -0.4952 -0.0241  0.0560
15576W        W35856   6.673  16.696   3.065 -0.2282  0.0852  0.0101
15577W        W35857  12.378   0.934   0.638  0.1229 -0.4730 -0.0339
15578W        W35858  10.183   6.958   3.025 -0.0215 -0.1983 -0.1216
15579W        W35859  16.773  11.997  13.316 -0.1399  0.2284  0.3343
15580W        W35860  18.409   3.746  11.220  0.2923  0.1725 -0.2030
15581W        W35861  13.168  19.104  10.919 -0.1155  0.0738 -0.0307
15582W        W35862   7.926  13.134   0.801 -0.0550 -0.0892  0.0034
15583W        W35863  18.537  10.192  11.154 -0.0324 -0.5780 -0.1628
15584W        W35864   1.901  16.516  12.814  0.2434  0.1650 -0.2823
15585W        W35865   6.261   9.132  10.042 -0.0948 -0.1124 -0.1191
15586W        W35866  14.419  12.054   0.820 -0.3968 -0.1389  0.3059
15587W        W35867  18.137  14.518  12.332  0.0327  0.1373  0.2674
15588W        W35868   4.744  16.555   3.827  0.1397  0.3773 -0.0425
15589W        W35869  15.787  17.585   9.631  0.1032  0.2591 -0.0602
15590W        W35870  10.493   8.163  12.735 -0.4760 -0.0622 -0.1809
15591W        W35871  17.604   3.683   1.605  0.2376 -0.0997  0.1121
15592W        W35872   1.583   8.000   2.482  0.0382  0.3997 -0.1140
15593W        W35873  16.972  16.593   1.582 -0.0573 -0.0975  0.0466
15594W        W35874   4.896  17.855  12.088 -0.0226 -0.2056 -0.0002
15595W        W35875  19.176   9.626   2.967  0.0328 -0.1219 -0.0816
15596W        W35876  10.782  13.934  12.191  0.0459 -0.1231 -0.3030
15597W        W35877  19.509  13.162   2.536  0.3742 -0.0148  0.2450
15598W        W35878  19.484   8.214   9.973 -0.3071  0.1855 -0.0920
15599W        W35879  19.264  16.102   1.346 -0.3485 -0.1250 -0.2952
15600W        W35880  15.696   0.212  10.932  0.1625 -0.0184 -0.1120
15601W        W35881  19.402  13.742  12.126  0.0143 -0.3901 -0.0769
15602W        W35882   8.851   4.819  12.325  0.0232 -0.3356  0.2575
15603W        W35883  14.891   8.693  12.189 -0.2337  0.1272  0.1935
15604W        W35884   2.962  14.506  11.505  0.2897 -0.0441 -0.4559
15605W        W35885  11.148   9.201  11.313  0.1921  0.2164 -0.1341
15606W        W35886   2.573  18.877  11.832  0.1699 -0.2741 -0.0624
15607W        W35887   7.109   5.439  12.922  0.2552  0.2990 -0.0438
15608W        W35888  15.954   2.998  14.040  0.1249  0.0770  0.0015
15609W        W35889  19.532  15.396   3.467  0.0162 -0.0040 -0.2406
15610W        W35890  13.343  16.650   1.356 -0.0470 -0.2076 -0.0520
15611W        W35891   9.929   8.637  11.886 -0.0364 -0.0707 -0.0848
15612W        W35892   6.727   6.922  12.381 -0.1420 -0.1356  0.0698
15613W        W35893  12.180  12.620   0.983 -0.2104 -0.1045  0.2035
15614W        W35894   5.077   7.881  13.971  0.0225  0.2471  0.0853
15615W        W35895  15.693   8.011  10.969 -0.1191 -0.1837 -0.0992
15616W        W35896   6.317   5.300   3.429  0.0624 -0.5694  0.1138
15617W        W35897   5.637   1.421   0.291  0.2037 -0.0200 -0.2205
15618W        W35898  11.913  11.188   1.554 -0.0756  0.1196  0.2297
15619W        W35899  13.492  14.060   3.753 -0.0244 -0.2140  0.1675
15620W        W35900   5.648   1.206  10.058 -0.0161  0.1225  0.0587
15621W        W35901  13.485  11.595  10.310 -0.1402  0.1253  0.0815
15622W        W35902   7.086  12.589   4.205 -0.2348  0.4436 -0.0899
15623W        W35903  16.099   7.308  11.506 -0.2176  0.2087  0.4323
15624W        W35904   1.826  17.994  13.414 -0.0538 -0.1047  0.0968
15625W        W35905  13.946  12.843  10.755  0.1635 -0.2056  0.4180
15626W        W35906   2.021  18.575  12.770 -0.1602  0.0655 -0.1496
15627W        W35907   6.115   3.160  10.468  0.1246  0.2300  0.2552
15628W        W35908  15.734   3.187  13.029 -0.1367 -0.1505 -0.1139
15629W        W35909  16.773  18.788  10.396  0.1894  0.1802  0.1628
15630W        W35910  17.896   2.900   2.034  0.0580 -0.3412  0.0893
15631W        W35911  19.551  14.521  13.979  0.0573 -0.1682  0.0479
15632W        W35912  14.069  15.316   3.737  0.3210  0.1381  0.1361
15633W        W35913  13.560   1.406   0.894  0.1541 -0.0468 -0.1771
15634W        W35914   8.282  17.275   4.471  0.2308 -0.2917  0.2362
15635W        W35915  13.640   0.197   2.457  0.1659  0.0962  0.1230
15636W        W35916   2.142  12.474   0.202 -0.3106  0.2103 -0.1931
15637W        W35917   1.027  15.715  10.025 -0.1909  0.2583  0.1206
15638W        W35918   0.227  15.244   3.377  0.0474  0.0818  0.1870
15639W        W35919   8.805  14.525  11.889 -0.4590 -0.2352 -0.1882
15640W        W35920  19.200  10.376  11.251 -0.2687 -0.3373  0.0901
15641W        W35921   2.404   8.860  12.128  0.2667 -0.0750 -0.4167
15642W        W35922   4.343  18.570  12.824 -0.0739 -0.2097 -0.0445
15643W        W35923  11.674  16.941  10.626  0.3665 -0.3491 -0.0612
15644W        W35924   7.678  10.759   0.989 -0.0130 -0.2556  0.2343
15645W        W35925  11.880   0.205   1.647  0.1216 -0.1160  0.0570
15646W        W35926   9.350   9.263   0.890  0.1811 -0.3313 -0.0307
15647W        W35927  15.780   0.829   2.076 -0.0640  0.1806 -0.0340
15648W        W35928   6.195   2.674   1.712  0.2555 -0.1148  0.2156
15649W        W35929  15.179   3.647  11.807 -0.3489 -0.2019 -0.0944
15650W        W35930  12.989   0.554  10.207 -0.4154 -0.0855 -0.0995
15651W        W35931   1.621  17.639  10.743  0.0665  0.4984  0.4177
15652W        W35932  15.682  11.776  13.460  0.1699 -0.0657  0.0045
15653W        W35933  14.114   9.682   1.816  0.2394  0.0961  0.0981
15654W        W35934  16.087  13.895  10.850  0.0947 -0.1538  0.0722
15655W        W35935   0.440   6.257  13.130  0.2154  0.2806  0.1957
15656W        W35936   7.919  14.732   2.656 -0.0006 -0.1220 -0.0546
15657W        W35937   2.876   7.904   1.721  0.1184 -0.2473  0.2592
15658W        W35938   5.255  17.524  12.304  0.0002  0.1279  0.2510
15659W        W35939  11.374   6.004  10.798  0.0147 -0.1644  0.1692
15660W        W35940  18.586  13.157   2.443  0.3766 -0.0568 -0.2657
15661W        W35941  12.617  13.615  11.707 -0.0259 -0.3355 -0.4090
15662W        W35942  15.479   4.758  13.129  0.1013 -0.0752 -0.3480
15663W        W35943  13.538  12.754  12.214 -0.0173 -0.2190 -0.0843
15664W        W35944  12.338  13.137   3.182 -0.0697 -0.4035 -0.1592
15665W        W35945  19.565  14.578   1.190  0.1437 -0.2101 -0.0981
15666W        W35946   3.202  15.002  10.216  0.2463  0.1593 -0.1471
15667W        W35947  14.964   2.286  10.644 -0.0170  0.0704 -0.1474
15668W        W35948   7.645   6.674  14.035 -0.1361 -0.0031 -0.1433
15669W        W35949   6.985   9.158   1.920  0.3059  0.0772 -0.1859
15670W        W35950  19.079   6.322   1.625  0.0113  0.0337 -0.0981
15671W        W35951  16.423  13.553   4.615 -0.4202 -0.2510  0.0203
15672W        W35952   9.910  15.509   2.624  0.0865 -0.0854  0.0081
15673W        W35953   8.026  17.273   2.280 -0.0444 -0.0945 -0.1090
15674W        W35954  11.893   5.365  14.039  0.0565 -0.1681  0.1515
15675W        W35955   8.453  19.038   0.682 -0.0725 -0.0454 -0.1374
15676W        W35956   9.306   6.902  11.852 -0.1109 -0.6307  0.2890
15677W        W35957  16.021  19.713  11.165 -0.1022 -0.0967 -0.0650
15678W        W35958  16.717   3.117   2.560 -0.0355 -0.0016 -0.2566
15679W        W35959  10.675   9.664   1.576  0.0045  0.2026 -0.2345
15680W        W35960   7.880   3.291   9.397 -0.1569  0.0933  0.0063
15681W        W35961   1.814  17.089   0.864  0.0814 -0.0656  0.1786
15682W        W35962  13.130  10.496  11.575 -0.0637 -0.1819  0.1376
15683W        W35963   6.112   3.054  13.964 -0.1337  0.0971 -0.0754
15684W        W35964  16.235  15.177   0.895 -0.3062  0.1835  0.1288
15685W        W35965   4.492  16.762   0.122  0.0678 -0.3595 -0.0253
15686W        W35966   2.406  16.823  11.543  0.1900 -0.1967  0.1039
15687W        W35967  14.796  13.596   1.393 -0.2544 -0.2094 -0.3190
15688W        W35968   8.501  11.680   9.471  0.1431  0.1084  0.0102
15689W        W35969  11.698  11.919  12.830 -0.0391  0.1068 -0.0420
15690W        W35970  13.585  12.474  13.571  0.0067 -0.0733  0.1650
15691W        W35971  10.665   0.156   4.005  0.0192  0.0057 -0.2027
15692W        W35972  13.432   5.927   2.153  0.1470 -0.1115 -0.0732
15693W        W35973  12.897  16.925   2.157  0.0003  0.0090 -0.3211
15694W        W35974   1.323   6.451  12.233 -0.0579  0.1511  0.1221
15695W        W35975   6.332   9.807   3.819 -0.1948  0.0897  0.0186
15696W        W35976   4.640  17.376  14.074 -0.0035  0.0195 -0.4195
15697W        W35977   3.617  10.239   3.343 -0.2709  0.3785 -0.2216
15698W        W35978  18.145   9.932   1.378  0.1190 -0.4059  0.1948
15699W        W35979   4.028  16.617  13.185 -0.1319  0.5271  0.1493
15700W        W35980  19.613   1.675   2.953  0.1128  0.1194  0.1129
15701W        W35981  11.683   7.545   9.390  0.0492  0.0185  0.4115
15702W        W35982   1.240   8.769   2.587 -0.0851 -0.1851  0.1891
15703W        W35983   2.914   2.189   3.620 -0.2006  0.0480 -0.0871
15704W        W35984  12.194  17.428   2.448 -0.3078  0.0182  0.1913
15705W        W35985   5.362   4.320  13.358  0.3661 -0.3204 -0.0502
15706W        W35986   2.491  17.972   0.266  0.0918  0.0305  0.0382
15707W        W35987   6.003  13.825   0.612  0.5029  0.3312 -0.0204
15708W        W35988  16.281  12.024   1.005  0.0872  0.0553  0.1767
15709W        W35989   7.512  19.132   1.953  0.3198 -0.4054 -0.2233
15710W        W35990   4.840   3.427   1.850 -0.4692  0.4909 -0.1185
15711W        W35991  18.900  16.610   0.562 -0.0648 -0.0435  0.2098
15712W        W35992  14.058  13.384  12.193 -0.2849  0.1987 -0.0607
15713W        W35993   0.710  12.716  12.257  0.2037  0.1076  0.0209
15714W        W35994  12.345   9.036   3.207 -0.0130 -0.0024 -0.0500
15715W        W35995  16.957   9.975   1.616  0.0077 -0.1646  0.1954
15716W        W35996  13.303  15.333  10.178  0.0407  0.1142 -0.0835
15717W        W35997  18.443  11.352   2.095 -0.0860  0.0523 -0.0444
15718W        W35998  12.376  16.145   0.440  0.0865 -0.0591 -0.0574
15719W        W35999  11.726  13.869  11.987 -0.0289 -0.0925  0.3005
15720W        W36000  18.743  19.609  12.845 -0.0993 -0.0043  0.0123
15721W        W36001  11.902   1.499   3.583  0.4325  0.0250  0.0155
15722W        W36002   0.107   7.874   1.800 -0.0035  0.1925 -0.0746
15723W        W36003   0.380  13.611   1.347  0.1143 -0.3414  0.1587
15724W        W36004   7.313   2.389  12.312 -0.0400 -0.1165 -0.2476
15725W        W36005   4.622   4.082   1.145 -0.2642 -0.1472 -0.0953
15726W        W36006   9.106  10.979   2.417 -0.1340 -0.3154  0.0613
15727W        W36007   0.690   4.587  13.941  0.4043 -0.0881  0.3382
15728W        W36008   8.013   3.375  13.911  0.0060 -0.0776  0.0168
15729W        W36009   9.451  10.093   2.970  0.0220  0.3299  0.1910
15730W        W36010  15.343   6.753  10.177 -0.0948  0.1889 -0.2937
15731W        W36011   0.967  15.804  11.611  0.1462 -0.1062 -0.0065
15732W        W36012  11.414  11.303   1.442  0.0249  0.1168  0.1119
15733W        W36013   8.828   1.459  11.126  0.0743 -0.1379  0.1890
15734W        W36014  16.787  16.583  13.895  0.1795 -0.2367  0.1031
15735W        W36015   1.957   9.773  13.793 -0.1107 -0.1323 -0.1878
15736W        W36016   8.422   4.953  13.070 -0.2114 -0.0468  0.0729
15737W        W36017  16.470   0.343   1.893 -0.2298  0.2447  0.1124
15738W        W36018  16.551   7.517  12.191 -0.1073 -0.1269 -0.1389
15739W        W36019   0.675   5.562   1.062  0.0757  0.2574  0.0644
15740W        W36020  12.973   3.440   1.481  0.0844 -0.1228  0.0609
15741W        W36021  12.224  12.530   9.255 -0.2160 -0.0046 -0.0620
15742W        W36022   0.130   9.885  10.534  0.1206  0.2557  0.0543
15743W        W36023  12.543   4.603   1.088  0.0947 -0.2815 -0.3631
15744W        W36024  17.419  14.694   0.098  0.0690 -0.0390  0.0348
15745W        W36025  15.143   0.528   0.618  0.1172  0.1099  0.1627
15746W        W36026   9.090   6.378   2.315  0.0867  0.2120  0.1833
15747W        W36027   0.467  12.084   4.151 -0.0323 -0.0088  0.4107
15748W        W36028  10.108  12.446  10.026 -0.0775  0.1712  0.1223
15749W        W36029  17.385  19.238  13.844 -0.1351  0.0472 -0.0971
15750W        W36030   5.962  10.592  12.004 -0.1901  0.3027 -0.2035
15751W        W36031   4.162   3.826   2.806  0.2084 -0.3531  0.0968
15752W        W36032   7.992   0.859  10.453 -0.1380 -0.1830 -0.1284
15753W        W36033  19.271   6.691   3.477  0.3950 -0.2330 -0.0866
15754W        W36034   3.456  15.237  13.080  0.2387 -0.1264 -0.0343
15755W        W36035  19.759   2.752   1.313  0.1438 -0.2215 -0.1659
15756W        W36036  14.696  12.115  13.802 -0.2165 -0.2027  0.2303
15757W        W36037   7.032  16.678   3.417  0.0304  0.1148  0.1800
15758W        W36038  15.395   9.424  14.099 -0.1750 -0.0197 -0.0745
15759W        W36039  17.909   0.439  12.891 -0.0729  0.0137  0.0687
15760W        W36040   3.735  12.339   3.045 -0.1969  0.2178 -0.2175
15761W        W36041   7.517  14.434   1.734  0.0091  0.2792 -0.2635
15762W        W36042  11.596  16.795   4.049 -0.0291 -0.0256  0.0787
15763W        W36043   4.941  12.020   2.629  0.0668  0.3520 -0.0180
15764W        W36044  17.162  15.250  12.951 -0.3747 -0.0737 -0.2967
15765W        W36045   2.860   9.493  10.759 -0.1953  0.0140 -0.0217
15766W        W36046   2.206   8.329  11.011 -0.1135 -0.0442 -0.3386
15767W        W36047   9.168  16.888   0.797 -0.0907 -0.2396 -0.3080
15768W        W36048  13.665   2.988   1.171  0.1355  0.0140  0.1348
15769W        W36049  18.738  11.799   9.379 -0.0043 -0.0647 -0.1055
15770W        W36050   0.329  17.757   0.489 -0.1507 -0.0652  0.2515
15771W        W36051   9.654  15.007  13.882 -0.1372  0.0644  0.0084
15772W        W36052  10.429   7.578  10.550 -0.1641  0.0446  0.0967
15773W        W36053   1.351   4.743   2.998 -0.1305 -0.3919 -0.2885
15774W        W36054  19.450  11.080  10.809 -0.0255  0.0669 -0.1711
15775W        W36055   2.617   8.536   3.204  0.2702  0.0559 -0.0102
15776W        W36056   2.879  11.527   1.562  0.3135 -0.1152 -0.0810
15777W        W36057   6.782  11.616  11.475  0.0104  0.1542  0.0767
15778W        W36058  13.445   9.373   3.366  0.1124  0.1820 -0.1019
15779W        W36059   5.735   9.874   3.868  0.0733 -0.0276  0.2146
15780W        W36060   0.937  10.286  11.446 -0.2233  0.0926 -0.1715
15781W        W36061  13.583  18.040  12.851  0.2388  0.1489  0.3596
15782W        W36062  19.591   4.403  10.713  0.0804 -0.0235 -0.1755
15783W        W36063   4.770  19.010   9.723  0.2864 -0.3118 -0.4437
15784W        W36064   6.791  17.558   4.419  0.0841  0.2909  0.2818
15785W        W36065  14.904   4.337   9.808  0.0040  0.1440 -0.1163
15786W        W36066  10.789  14.693   1.769 -0.0110 -0.0900  0.3711
15787W        W36067  10.488   5.227  10.870  0.1038 -0.2444 -0.2297
15788W        W36068   0.097  13.218   9.306 -0.1783 -0.0182 -0.2179
15789W        W36069  12.016  18.645   4.428  0.0286  0.1451 -0.0993
15790W        W36070   0.214   0.811   2.832 -0.2878 -0.2735 -0.1500
15791W        W36071   9.100  14.938   4.133  0.1163 -0.1692  0.1828
15792W        W36072   0.140  14.819   5.182 -0.2470 -0.0192  0.0848
15793W        W36073  15.285  13.506   0.358  0.0514 -0.2523 -0.0839
15794W        W36074   5.617   4.694   0.494  0.1927 -0.0852 -0.1563
15795W        W36075  15.651  13.838  13.328  0.1281  0.1778 -0.2290
15796W        W36076  10.908   4.942  12.642  0.2612 -0.0962  0.1569
15797W        W36077  13.574  13.717  13.267 -0.0420  0.0199 -0.1132
15798W        W36078   9.161   4.351   2.667  0.1833 -0.0354 -0.0803
15799W        W36079  18.616  17.601   1.889  0.1435  0.2238 -0.2975
15800W        W36080  19.362  15.359  11.082 -0.1423  0.3649  0.0762
15801W        W36081  13.534  15.864  13.706  0.2004  0.1606  0.1156
15802W        W36082  11.879   2.153  13.275 -0.2795  0.0727  0.2601
15803W        W36083  13.499   0.738  12.691 -0.2485 -0.4658 -0.0063
15804W        W36084  11.045   5.449  10.440 -0.1220  0.0069  0.3513
15805W        W36085   9.979  15.733   0.478 -0.0681  0.1812  0.0933
15806W        W36086   8.679  10.914   1.652  0.0092 -0.1304  0.1458
15807W        W36087  16.034  16.381   0.089  0.2811 -0.2172 -0.1341
15808W        W36088  11.327   6.409   3.610 -0.0665  0.0123 -0.1758
15809W        W36089  13.782   0.610  13.996  0.1123 -0.1082  0.1138
15810W        W36090  11.713  13.398   1.429  0.0758 -0.1869  0.0221
15811W        W36091  19.496   0.851  12.242 -0.1324  0.3305  0.0533
15812W        W36092  18.521   2.273  11.463  0.1073  0.0995  0.2555
15813W        W36093  13.399  17.440  10.832 -0.0812 -0.0014  0.1188
15814W        W36094   7.313  16.761  13.644  0.2865 -0.0707  0.0948
15815W        W36095  11.571   7.083   4.978 -0.4887  0.3281  0.2775
15816W        W36096  12.998  16.352   2.338 -0.4339 -0.0070  0.1124
15817W        W36097  15.063   7.375   2.678  0.1788 -0.1173  0.2253
15818W        W36098   8.855   0.382   2.995 -0.0166  0.3134  0.3596
15819W        W36099   1.407  12.766  10.336  0.1001 -0.0743 -0.0041
15820W        W36100  19.339   4.565   1.243  0.0138  0.1315 -0.3520
15821W        W36101   3.453  13.709   4.410  0.1173 -0.1148  0.0880
15822W        W36102  11.182  10.758   2.832 -0.3997  0.3281  0.0842
15823W        W36103   3.583  18.364  12.602 -0.2297  0.1451 -0.2218
15824W        W36104   4.820   1.469   0.906 -0.0278  0.3336 -0.0807
15825W        W36105  17.139  15.986   2.257 -0.0914  0.0063 -0.0478
15826W        W36106   3.937  16.625   0.112 -0.1598 -0.0545  0.0212
15827W        W36107   7.174   9.933   1.157 -0.0075 -0.0105 -0.2962
15828W        W36108   5.728  19.201  10.912  0.1543  0.3006  0.0625
15829W        W36109   6.876  10.640  11.854 -0.1159 -0.0718  0.0297
15830W        W36110  14.480  18.068   2.461  0.1313  0.3285  0.1694
15831W        W36111  15.940   5.261   4.078 -0.1379 -0.0687  0.0527
15832W        W36112   1.069   1.481   0.656  0.3161 -0.1861 -0.2262
15833W        W36113  11.458   5.648   0.227 -0.2117 -0.0726 -0.0093
15834W        W36114   6.986   1.083   0.538  0.1140  0.4787  0.2041
15835W        W36115  18.921   9.167  10.436  0.2706  0.2347 -0.2814
15836W        W36116  17.533  10.169   2.902 -0.1860  0.2123  0.0872
15837W        W36117  13.302   3.023   0.128  0.0362  0.1523 -0.0559
15838W        W36118   8.280   1.076  11.437  0.0969  0.1061  0.2042
15839W        W36119  17.409   8.971  10.321 -0.0378  0.0880  0.1764
15840W        W36120  15.016  13.173   3.109  0.0534  0.1185  0.0371
15841W        W36121  12.097   8.044   1.497  0.3457  0.0350  0.2741
15842W        W36122  19.074   7.760  11.508 -0.1429 -0.0831  0.0471
15843W        W36123   7.560   7.381  10.428  0.1328 -0.2352 -0.1524
15844W        W36124   7.328   9.456  13.879  0.1241  0.0497 -0.1455
15845W        W36125   8.487   7.955  12.651 -0.2511 -0.2050 -0.1323
15846W        W36126   8.419  12.489   4.285 -0.2487  0.0332  0.0811
15847W        W36127  14.474   6.158   2.972 -0.3730  0.2703 -0.2630
15848W        W36128   2.112   9.901  11.622  0.1249 -0.2104 -0.1024
15849W        W36129  19.164   1.536  11.506  0.0394 -0.0261  0.0339
15850W        W36130   6.302   3.184   3.849  0.0236  0.0782  0.0038
15851W        W36131  17.344   5.602  10.668  0.0970  0.0300 -0.0732
15852W        W36132   2.004  13.211   0.136  0.0692 -0.1411 -0.0949
15853W        W36133  16.999  18.553   2.550  0.1702 -0.2376  0.1806
15854W        W36134  17.250  10.195   9.420 -0.2030 -0.2676 -0.2249
15855W        W36135   2.497  17.585  13.884 -0.4995 -0.1584 -0.2216
15856W        W36136  13.718   0.429   2.880  0.0834 -0.2483 -0.1239
15857W        W36137   8.445   1.525   9.983 -0.2032 -0.0119  0.0818
15858W        W36138   5.684   1.891   0.295  0.1034 -0.3538 -0.2276
15859W        W36139  16.534  19.728  13.540 -0.0717  0.1519  0.0910
15860W        W36140   4.124   1.137  10.195 -0.1103 -0.1497 -0.0513
15861W        W36141   8.132  13.234   2.283 -0.3812  0.1382  0.0581
15862W        W36142  17.185   4.514   0.560  0.3699  0.3043  0.2356
15863W        W36143   3.452   9.754   3.118 -0.0370 -0.0649 -0.1799
15864W        W36144   8.810   2.201  13.066  0.3119  0.1664 -0.1274
15865W        W36145  12.820  17.252  12.653 -0.1530 -0.0299  0.4406
15866W        W36146   7.141  13.954  11.540  0.1057 -0.1754  0.1419
15867W        W36147  15.804   5.050   0.946 -0.0404  0.1239 -0.1304
15868W        W36148  12.351   1.263   2.431  0.2401 -0.3161 -0.3101
15869W        W36149  11.504   9.218   1.050  0.0918 -0.1475 -0.1677
15870W        W36150   7.966  19.326   3.416  0.1227 -0.2953  0.1211
15871W        W36151   4.067   5.398   4.182  0.1281  0.2374  0.3969
15872W        W36152   1.962   6.166   0.691  0.1865  0.0364 -0.1827
15873W        W36153  10.739   3.598   2.960  0.0391  0.3587  0.0388
15874W        W36154   8.544   3.637  11.329  0.1414 -0.3982  0.1604
15875W        W36155   3.372  17.466   9.083 -0.1878  0.1352  0.0317
15876W        W36156  16.147  14.386   2.010 -0.1957  0.0542 -0.0764
15877W        W36157  11.670  12.550   1.059 -0.1831 -0.0059 -0.3543
15878W        W36158  12.019   9.468   1.261  0.1678 -0.0193  0.1653
15879W        W36159  14.928   9.728  13.987 -0.0217  0.1912  0.1900
15880W        W36160   5.609   6.054   3.475  0.2507  0.1931  0.0910
15881W        W36161   4.664   9.218   1.688  0.3583  0.0374  0.0786
15882W        W36162  14.023  10.432   3.324 -0.3896  0.0961 -0.0096
15883W        W36163   3.733   9.937   1.033  0.0235 -0.5834  0.3045
15884W        W36164  15.465   3.981   1.204 -0.1861 -0.0607  0.0453
15885W        W36165   3.199   9.740   3.925  0.1127  0.1825  0.1335
15886W        W36166   6.491   1.650  11.816 -0.0746 -0.0843 -0.2459
15887W        W36167   3.659  18.493  11.632 -0.2101  0.1613 -0.0887
15888W        W36168  16.979  15.059   2.232 -0.0620 -0.2883 -0.3393
15889W        W36169   2.658   9.855   3.856  0.0136  0.2330  0.1584
15890W        W36170   0.772   9.761   3.284 -0.0548 -0.1549  0.2273
15891W        W36171   4.406   7.241  13.606 -0.3059  0.1290 -0.1790
15892W        W36172   9.907  10.361   1.111 -0.1615  0.2472 -0.0840
15893W        W36173  11.346   3.672   2.290  0.0006  0.1394  0.0277
15894W        W36174   8.436   6.163   0.788 -0.1101  0.4143  0.2957
15895W        W36175   4.806  14.540  12.716  0.0303  0.1179 -0.0629
15896W        W36176   5.653   7.065  13.577 -0.1205 -0.2575 -0.2543
15897W        W36177  14.250  17.770   0.127  0.1224 -0.0957 -0.1977
15898W        W36178  17.113  17.808   9.419  0.0302 -0.1396  0.2565
15899W        W36179  18.342   2.451  13.826 -0.1193 -0.3305  0.0775
15900W        W36180   1.599  18.550   0.568 -0.0351 -0.3041 -0.3616
15901W        W36181  12.025   8.381  11.723  0.1123  0.0442  0.2072
15902W        W36182   0.496   3.222   9.727 -0.2484 -0.0613  0.0580
15903W        W36183   7.162   0.102  11.656  0.1490 -0.2202 -0.2302
15904W        W36184  12.529   2.078   1.869  0.0734 -0.0268  0.0217
15905W        W36185   8.865   3.034   1.670  0.0049  0.0308  0.1454
15906W        W36186   9.956   7.997   3.172  0.1849  0.0796 -0.0141
15907W        W36187   7.588   7.287  12.838  0.2558  0.0030 -0.1115
15908W        W36188  13.336   9.190   0.868 -0.0044  0.0154 -0.2199
15909W        W36189  11.531   8.783  10.613 -0.0365 -0.0502 -0.0635
15910W        W36190   4.988  12.857  10.699 -0.1709  0.6077  0.0580
15911W        W36191   0.401  14.701  13.028 -0.0571 -0.0165 -0.0040
15912W        W36192   6.593  16.284  13.174 -0.0478 -0.2420  0.0223
15913W        W36193  10.002   9.196  10.459 -0.0614 -0.0294 -0.3559
15914W        W36194   6.289  15.461  11.646 -0.0743  0.2613 -0.1170
15915W        W36195  13.220  15.434  11.575 -0.0292 -0.2567 -0.0042
15916W        W36196   4.947  18.832  10.170  0.2796 -0.2664  0.1755
15917W        W36197  12.774   2.873  12.812  0.1472  0.1390  0.1640
15918W        W36198   2.037  16.641   1.196 -0.0934 -0.4174  0.1342
15919W        W36199  16.582  17.982   0.225  0.0299  0.2540 -0.2018
15920W        W36200  15.579   1.033  10.486  0.1941  0.0701  0.0128
15921W        W36201  12.892   0.427   3.085 -0.0669 -0.1516  0.0581
15922W        W36202  18.907   7.320   0.902 -0.0648 -0.0107  0.0531
15923W        W36203   3.966   1.200   0.241  0.2798 -0.1068 -0.4164
15924W        W36204   6.575  18.249  13.703 -0.1216  0.0664 -0.1762
15925W        W36205   9.424  13.807   2.747  0.1742  0.1314 -0.0147
15926W        W36206   4.479   7.110   5.296  0.2801 -0.0031  0.1276
15927W        W36207   3.136  18.984   1.913 -0.1063  0.2024 -0.3954
15928W        W36208  10.002  10.207  13.507 -0.2561 -0.4938  0.0412
15929W        W36209   5.140   3.327  13.751 -0.0390  0.1507 -0.0121
15930W        W36210  17.943  12.206  12.479  0.0647 -0.1571  0.4594
15931W        W36211   1.331  11.779  11.482  0.0080  0.2250  0.0515
15932W        W36212  19.400   9.837  10.654  0.0395 -0.1146  0.0827
15933W        W36213  10.211   2.353  12.816 -0.3795 -0.2067 -0.0437
15934W        W36214  10.520  10.527   4.031  0.3276 -0.1719 -0.0689
15935W        W36215  15.122   1.370   1.691  0.0654  0.0268  0.1745
15936W        W36216  11.063   9.669  14.101  0.0151  0.1517  0.1117
15937W        W36217   2.924  17.466   2.658  0.0773  0.0379 -0.3372
15938W        W36218   9.389   1.408   0.270 -0.0616 -0.0441 -0.2785
15939W        W36219  14.732  17.351   1.076  0.0276 -0.0138  0.4063
15940W        W36220  15.785  18.494   0.135 -0.2118  0.2145 -0.0492
15941W        W36221  10.253  13.535  13.810 -0.4162  0.0669 -0.1183
15942W        W36222   4.281   1.089  11.517 -0.2037  0.0009 -0.2498
15943W        W36223   8.477   0.621  12.507 -0.0512 -0.2177 -0.0880
15944W        W36224  18.120   3.228   2.932 -0.0552 -0.3928 -0.3633
15945W        W36225  13.456  18.774  12.449  0.1186  0.0879  0.0280
15946W        W36226  11.425  13.188  12.865 -0.1538  0.0830  0.0279
15947W        W36227  19.099  13.522   0.900 -0.4685 -0.0588 -0.0469
15948W        W36228   9.423  17.203  13.643  0.0736 -0.3016 -0.1366
15949W        W36229   8.686  11.869  10.364  0.2357 -0.1285 -0.0848
15950W        W36230  11.477   2.531   0.429 -0.1119 -0.0417  0.0487
15951W        W36231   2.098   0.261   1.361  0.0755  0.1062  0.2922
15952W        W36232  16.475  10.555  13.279  0.1323  0.2524 -0.2347
15953W        W36233  17.087  15.698   4.480 -0.0814 -0.1737  0.1565
15954W        W36234   6.292   6.023   1.424 -0.0819  0.0270 -0.3269
15955W        W36235   7.181  16.581   1.925  0.0854  0.4178  0.2271
15956W        W36236   1.611   9.522   3.760  0.1026 -0.0457 -0.2272
15957W        W36237   1.482  13.761  10.615 -0.1668 -0.0192  0.0646
15958W        W36238   6.047  12.452  12.506  0.2941 -0.1485  0.0479
15959W        W36239  14.793  14.303  12.521 -0.1326  0.0329 -0.0214
15960W        W36240  14.939  10.871   2.815  0.1885  0.1604 -0.2780
15961W        W36241   9.114  15.406   3.231 -0.2704  0.2610  0.2759
15962W        W36242   9.547  11.734  10.751 -0.2626  0.3692  0.0126
15963W        W36243   6.167   2.616   0.179 -0.0470  0.3015 -0.3669
15964W        W36244  19.658  16.920   3.363 -0.1984  0.1851 -0.1232
15965W        W36245   3.486   6.161  13.861  0.0175  0.2556  0.0807
15966W        W36246   5.059  19.087  12.117  0.0012  0.1348 -0.1675
15967W        W36247   2.406   5.125  10.726  0.3183  0.1141 -0.3241
15968W        W36248  17.449   3.466  11.933 -0.1137 -0.1278 -0.0010
15969W        W36249  17.924   4.183   3.404  0.3096  0.0990  0.1273
15970W        W36250  15.842  12.949   2.428  0.0200 -0.6012 -0.0590
15971W        W36251   5.114   7.539  13.137  0.1555  0.0402  0.1117
15972W        W36252   5.880   4.453  10.716  0.0568 -0.1834 -0.1596
15973W        W36253  12.913  15.300  13.393 -0.2969 -0.4445 -0.2840
15974W        W36254  11.549   5.164   0.377 -0.0209 -0.1954  0.0343
15975W        W36255  16.713  10.273  12.967  0.1872 -0.1426  0.2242
15976W        W36256  15.744  18.374  11.091 -0.0108  0.3542 -0.2986
15977W        W36257   6.589  13.760   2.124  0.0015  0.1250 -0.4422
15978W        W36258  10.147  19.581  12.349 -0.1677  0.1860 -0.0986
15979W        W36259  16.272  13.520  12.834  0.0168 -0.0276 -0.1108
15980W        W36260   1.558  10.675   2.487  0.1565 -0.0205  0.0745
15981W        W36261   8.517  11.589   0.376  0.3118 -0.1369 -0.0644
15982W        W36262   5.180  10.259   3.623  0.1335  0.0586 -0.1609
15983W        W36263   4.820   2.339  11.464 -0.2680  0.5537 -0.1961
15984W        W36264   9.176  11.738   1.280  0.0618 -0.5839  0.0907
15985W        W36265   9.093   0.363   1.399 -0.0663  0.1429 -0.0266
15986W        W36266  13.072  16.562   0.107  0.1791 -0.0619 -0.0516
15987W        W36267  17.184   3.957  12.128 -0.2215 -0.0355  0.0918
15988W        W36268   0.637   0.067   0.554 -0.0593 -0.0802 -0.0667
15989W        W36269   1.502   9.162   4.064 -0.0438  0.1597  0.0503
15990W        W36270   8.959   0.102  13.177  0.1025 -0.4948 -0.1864
15991W        W36271   4.926  14.346  12.042 -0.0929 -0.0904  0.3006
15992W        W36272  14.746   5.041   1.691  0.0338 -0.0218 -0.2399
15993W        W36273   0.299  19.774   0.135  0.0364 -0.2654  0.0983
15994W        W36274  17.338   8.184  14.085 -0.2002 -0.0709 -0.0917
15995W        W36275  13.663  12.670   3.390  0.1198  0.0732  0.0212
15996W        W36276   3.869   0.621   0.897 -0.1738 -0.4865  0.1573
15997W        W36277  17.075   1.932   2.842  0.1594  0.1268 -0.1222
15998W        W36278   5.794   9.780  11.719 -0.1038 -0.0425 -0.2614
15999W        W36279   0.480   8.479  13.923  0.0182 -0.0757 -0.2285
16000W        W36280  11.500   1.993  12.545  0.1907 -0.1555 -0.2634
16001W        W36281   7.139   8.576  12.521 -0.0510  0.0678  0.1134
16002W        W36282   2.633  10.728   1.031 -0.0151  0.1537  0.1333
16003W        W36283   2.372   7.207   4.639 -0.1228 -0.0459 -0.2369
16004W        W36284  14.088   3.861   0.107  0.1225  0.3538 -0.2458
16005W        W36285   2.975  13.502  13.109 -0.2998 -0.3741 -0.0274
16006W        W36286   2.296   2.560  11.577 -0.1882 -0.2971  0.0845
16007W        W36287   7.667  15.953  13.139 -0.1784 -0.0433 -0.2006
16008W        W36288   2.809   0.446  12.176 -0.2450  0.3199  0.0604
16009W        W36289   2.280   0.088  10.917  0.0925 -0.0225 -0.0259
16010W        W36290  17.369  17.929   3.343  0.1868 -0.0276  0.3285
16011W        W36291   7.648  15.941  13.949  0.0646  0.0629  0.4750
16012W        W36292   8.623   2.841   0.109  0.0135  0.1093 -0.3509
16013W        W36293  12.638  17.037   3.877 -0.2303 -0.3659 -0.0338
16014W        W36294  14.923   1.789  10.753 -0.2584 -0.0125 -0.1377
16015W        W36295  10.342   2.754  13.730  0.2079  0.0720 -0.0104
16016W        W36296  15.576   0.823  13.950 -0.0831 -0.0757  0.4086
16017W        W36297  16.512   3.433   1.751  0.0465  0.1410 -0.1691
16018W        W36298  15.490  12.537   2.610 -0.0625 -0.3217 -0.1007
16019W        W36299   7.093   1.204  10.502  0.0917  0.2399 -0.0923
16020W        W36300  17.106   9.445   0.799 -0.1805  0.0747 -0.0746
16021W        W36301  11.112   4.351  10.063 -0.1294 -0.2810  0.0095
16022W        W36302   3.946   4.310   0.285 -0.1368  0.2723 -0.1677
16023W        W36303   4.583   4.594   0.915  0.1246  0.0777  0.2075
16024W        W36304   9.416  10.632   1.034 -0.3456  0.0843 -0.1904
16025W        W36305   6.560  14.264   4.188 -0.0511  0.3146 -0.3474
16026W        W36306   6.500  14.760  10.816 -0.0318  0.1044  0.1216
16027W        W36307  13.898  11.853   0.668  0.1242 -0.0309 -0.0775
16028W        W36308   8.282   8.827  11.982  0.0091  0.0437 -0.1028
16029W        W36309  15.249  10.844  13.519 -0.1284 -0.2565 -0.0708
16030W        W36310  16.462  12.641   2.233  0.0787  0.2344 -0.2196
16031W        W36311   0.560   5.110  13.953  0.0669 -0.0753 -0.0278
16032W        W36312  13.738   0.842   3.380  0.2985  0.0026 -0.1474
16033W        W36313  14.008   1.244  11.675 -0.1365 -0.0669 -0.0546
16034W        W36314   0.685  11.128  10.528  0.1642 -0.3491 -0.1931
16035W        W36315  15.599   2.049  11.956 -0.0589  0.2122 -0.1897
16036W        W36316  15.731  19.018   0.256 -0.2874 -0.1287  0.1130
16037W        W36317   5.165  16.432   1.658  0.1705 -0.1256  0.1596
16038W        W36318  15.183  13.701  11.684  0.4204 -0.3327 -0.1518
16039W        W36319  13.702   2.444   0.293 -0.0762 -0.0233  0.2579
16040W        W36320  12.691  12.384   4.172  0.0521 -0.4730 -0.1472
16041W        W36321  15.240   3.809  13.319  0.0499  0.2999 -0.4087
16042W        W36322  11.915  13.774  11.451 -0.1930 -0.0362  0.1553
16043W        W36323   9.635  16.825   0.954 -0.1265  0.0405  0.1178
16044W        W36324   7.394  18.121  10.974  0.1545  0.2143  0.1671
16045W        W36325   6.892   5.659  11.619  0.1496 -0.0073 -0.2659
16046W        W36326   4.711   8.953  13.587  0.0105  0.0062 -0.2231
16047W        W36327  18.121  18.459   2.338  0.3790 -0.1989  0.0361
16048W        W36328  12.486  12.813   1.413 -0.1160 -0.0227 -0.1891
16049W        W36329  18.472   5.002   0.956 -0.1680  0.2281  0.1787
16050W        W36330  12.908   3.397  12.904 -0.1300  0.0874  0.2673
16051W        W36331   5.541   7.560   1.899  0.3280 -0.0519 -0.0509
16052W        W36332  17.562  16.971   3.267  0.1520  0.1484  0.0845
16053W        W36333  16.030  18.992   3.009  0.1369  0.4062 -0.2655
16054W        W36334   9.844   7.059  13.542 -0.2283  0.0685 -0.1400
16055W        W36335  13.489  19.546   3.592  0.2254  0.1303  0.1489
16056W        W36336  11.534  16.096  11.502  0.0489 -0.0955  0.1461
16057W        W36337   4.411  17.042   1.894  0.0420  0.0940 -0.0161
16058W        W36338  14.715  11.970   2.385  0.0894 -0.1653  0.1641
16059W        W36339   3.620   1.697  13.671  0.3872  0.2512  0.1731
16060W        W36340   8.006  18.417   1.151  0.0093 -0.0301  0.1246
16061W        W36341   2.004  11.989   2.850  0.2171 -0.1544 -0.0867
16062W        W36342   9.208   6.694   3.023 -0.0333  0.0518 -0.3205
16063W        W36343   4.332   2.558   1.010  0.0721  0.1046  0.3058
16064W        W36344   2.232   9.522  11.908 -0.0012  0.0103 -0.1497
16065W        W36345  18.973   7.328  11.971 -0.0458  0.0390  0.3935
16066W        W36346   6.688   9.723  14.017 -0.0858 -0.1138  0.0116
16067W        W36347   3.814   1.927  11.596 -0.0254 -0.2149 -0.1594
16068W        W36348  10.280  12.726  12.822 -0.1660  0.1603  0.3745
16069W        W36349   1.563  12.970  14.039  0.2422 -0.0851 -0.0481
16070W        W36350  12.139   2.591  11.203 -0.0222 -0.3349  0.0502
16071W        W36351   3.968   9.955   1.944  0.2732 -0.1249  0.2749
16072W        W36352  10.167  17.874   2.357 -0.0568  0.1775 -0.1037
16073W        W36353   4.678  17.130  10.953  0.0598 -0.0946  0.1175
16074W        W36354   0.819  14.508   1.520  0.0650 -0.1071 -0.2559
16075W        W36355   9.199   9.741  13.387  0.1712  0.0376  0.0918
16076W        W36356   4.769  15.436  12.175 -0.2200 -0.4775  0.0354
16077W        W36357   8.090   0.579   2.283  0.3197 -0.2917  0.0724
16078W        W36358  19.651  14.545  12.107  0.0925  0.5754 -0.1844
16079W        W36359   2.699  11.689  12.366 -0.0734  0.0840 -0.1275
16080W        W36360   4.328  15.551  13.209 -0.0083 -0.1339 -0.1675
16081W        W36361  15.489   9.577  11.136  0.2844  0.0576  0.0109
16082W        W36362   5.790   0.388   0.592 -0.3378 -0.1715 -0.2088
16083W        W36363   3.544  11.388   0.725 -0.1424  0.1872 -0.4237
16084W        W36364  19.377   2.218   3.827  0.3114  0.0698  0.2610
16085W        W36365   2.664  10.590  11.450  0.0653 -0.0913 -0.1127
16086W        W36366  10.031   0.468   1.291  0.1779  0.0270  0.1022
16087W        W36367   5.764  18.298  14.071  0.0734 -0.1259 -0.1346
16088W        W36368   6.375  12.883  12.712 -0.1377 -0.2302 -0.3717
16089W        W36369  19.114   3.167  14.092 -0.0356  0.1984 -0.0974
16090W        W36370   6.260  14.691   0.652 -0.1121  0.0441  0.3262
16091W        W36371   9.776  14.471   2.292 -0.0670  0.0058  0.1360
16092W        W36372  13.991  15.485  12.630 -0.0103 -0.1598  0.2097
16093W        W36373   8.628  16.196  12.623 -0.0009 -0.1263 -0.3356
16094W        W36374   8.753   8.725   0.295 -0.2542  0.0643  0.0683
16095W        W36375  10.620  18.620   3.228  0.0043  0.0072  0.1213
16096W        W36376   9.582   5.554   2.417 -0.1419 -0.2484 -0.3338
16097W        W36377   4.006  11.124   3.432 -0.3147 -0.3821  0.0640
16098W        W36378  11.030  10.311   1.741 -0.2775  0.1461  0.4225
16099W        W36379   5.937   7.206   0.163  0.2277 -0.0768 -0.0424
16100W        W36380   7.919  18.873  11.454  0.0643 -0.2506  0.1820
16101W        W36381  14.987  18.823  10.337 -0.0610  0.1645  0.0731
16102W        W36382   6.239  19.422  11.737  0.1850  0.0601 -0.0825
16103W        W36383  15.273  16.049   0.179 -0.1607 -0.3053  0.0895
16104W        W36384  11.628   7.930  12.843  0.3899  0.0820  0.1503
16105W        W36385  11.691   7.104   1.522 -0.1122 -0.0099 -0.1735
16106W        W36386  16.809   9.245   1.839 -0.1416 -0.0271 -0.2213
16107W        W36387   3.866   9.693  10.837  0.2272 -0.1089  0.2980
16108W        W36388   5.121   3.811  13.754  0.2346 -0.4785  0.0959
16109W        W36389   4.928  10.605  13.471 -0.2372 -0.1292  0.2663
16110W        W36390  18.113  18.729  13.842 -0.2394 -0.1486 -0.1698
16111W        W36391   7.719  16.291   1.090  0.0331  0.0109 -0.0952
16112W        W36392   5.719  17.358   0.125  0.3221 -0.2237 -0.1810
16113W        W36393  13.191   3.790   1.897 -0.1457  0.2094  0.1700
16114W        W36394  10.770   5.734   3.186 -0.0594  0.1402  0.0843
16115W        W36395  19.274  16.675  13.344  0.1285  0.0885  0.0835
16116W        W36396  18.271  13.748  11.994 -0.4386 -0.0849  0.0521
16117W        W36397   3.018   3.802   1.665  0.0390 -0.3928  0.0215
16118W        W36398  14.212   4.880  10.494 -0.1894 -0.2342 -0.0001
16119W        W36399  13.117   6.303   0.128 -0.2903  0.0934 -0.1617
16120W        W36400  17.585   5.523  12.853  0.1866  0.2271 -0.1024
16121W        W36401   5.502   1.101   1.910  0.0343 -0.0642  0.1374
16122W        W36402   3.558  17.076   0.692 -0.3719 -0.0419 -0.1407
16123W        W36403  15.382   0.802   2.390 -0.0935  0.2422  0.1716
16124W        W36404   4.065   3.095   1.521  0.0392  0.0264 -0.1886
16125W        W36405   3.415   5.689   1.596  0.0195  0.0584 -0.4179
16126W        W36406   6.788   9.292   0.160  0.0810  0.1445 -0.3986
16127W        W36407  17.785   6.094   5.117 -0.2492 -0.2545 -0.0433
16128W        W36408  12.664  11.168   3.093 -0.0911 -0.0875 -0.1410
16129W        W36409  10.119  10.518   1.532 -0.4172 -0.0053  0.1471
16130W        W36410  14.002   0.006  13.162  0.2045 -0.1874  0.2826
16131W        W36411   0.149  15.710   3.500  0.0172  0.2444  0.1129
16132W        W36412  18.291   9.233   0.396 -0.0503  0.0093  0.2039
16133W        W36413  17.008  19.041  12.254  0.0430  0.2023  0.0598
16134W        W36414  15.383   7.663  12.911 -0.2455 -0.0075 -0.1911
16135W        W36415   1.617   4.023  10.686  0.2664  0.4428  0.0359
16136W        W36416  18.259   5.327   1.733  0.0996 -0.0281  0.0343
16137W        W36417   3.465  18.720  10.162  0.1732  0.2686 -0.2016
16138W        W36418  12.945  14.192   1.431  0.0856 -0.3277  0.0865
16139W        W36419  14.934  13.213   2.613  0.2657 -0.1928 -0.1681
16140W        W36420  11.449  18.610   0.613 -0.3379  0.4882  0.1382
16141W        W36421  13.517   4.538   0.543 -0.1553  0.0523  0.2521
16142W        W36422  10.929   6.690  11.282 -0.1180  0.1443  0.1212
16143W        W36423  12.464  12.931   2.728 -0.1808 -0.0018  0.0469
16144W        W36424  16.687  16.987  10.755  0.0365  0.0898 -0.1023
16145W        W36425   2.987   9.502   3.147  0.1530  0.0798  0.2059
16146W        W36426  16.021   4.752   0.384  0.0709 -0.2564  0.0262
16147W        W36427  18.776   9.783  12.715 -0.5676  0.0615  0.0229
16148W        W36428  12.024  16.267  10.163  0.0694  0.1220  0.1354
16149W        W36429   9.819   3.255   2.870 -0.1006  0.0899 -0.1474
16150W        W36430   2.151  10.791  10.586  0.0926 -0.1646 -0.0399
16151W        W36431   3.508   6.336   9.456  0.1296 -0.0336 -0.0671
16152W        W36432   4.694  16.249  10.996  0.4899 -0.0646 -0.2462
16153W        W36433   0.011   3.705  11.233 -0.3299  0.0290  0.1188
16154W        W36434   8.384  18.685  12.374 -0.1644  0.1846 -0.3181
16155W        W36435  19.047  15.230  12.263  0.0864  0.0355  0.3371
16156W        W36436   0.548   9.356   0.039  0.0878  0.1666 -0.2085
16157W        W36437  17.754  18.834  10.551 -0.1176  0.4531 -0.1565
16158W        W36438   2.817   3.876   2.545 -0.3218  0.0242 -0.1243
16159W        W36439   9.064   5.446  10.258  0.2064 -0.0714  0.0954
16160W        W36440   9.658  11.797   2.744  0.0436 -0.0988 -0.1064
16161W        W36441   3.404  16.062   2.897 -0.0004 -0.0723 -0.2688
16162W        W36442   5.282  14.149   2.374 -0.0687 -0.2545  0.3929
16163W        W36443   1.306  17.670   0.582  0.0804  0.0703  0.1247
16164W        W36444   9.907   7.349   0.480 -0.1458  0.1071 -0.0809
16165W        W36445  14.089   9.338   2.605 -0.0779  0.1586 -0.3698
16166W        W36446  14.947  17.076  12.479 -0.0591  0.1588  0.1748
16167W        W36447  10.091  19.468  11.369  0.0406 -0.3566  0.0541
16168W        W36448  10.233   8.014  13.147  0.1214 -0.1904  0.3564
16169W        W36449  11.158   1.201   0.070 -0.0668 -0.1875  0.1389
16170W        W36450  19.261  15.201   2.167 -0.1633 -0.0920  0.0256
16171W        W36451   7.778   9.958  11.121 -0.1671  0.3085  0.1457
16172W        W36452   3.365  13.575   2.874 -0.4608  0.1930 -0.2132
16173W        W36453   6.026  18.730  12.042 -0.0101 -0.3723  0.2473
16174W        W36454   8.178   8.002  13.903  0.0994  0.0154 -0.2386
16175W        W36455   7.121  12.471   3.308 -0.0896  0.0244  0.1626
16176W        W36456   3.378  17.383   3.434  0.1406 -0.2752 -0.2588
16177W        W36457   9.543   9.068   3.085  0.0420  0.1693 -0.1808
16178W        W36458  14.856   5.283  10.668  0.2034  0.0626  0.0129
16179W        W36459  17.648   8.061   2.735 -0.2748  0.0793 -0.3684
16180W        W36460  12.634  14.562   0.526 -0.1950  0.2046 -0.2076
16181W        W36461  11.055  14.098  13.189  0.0264 -0.2336  0.1057
16182W        W36462  13.011   5.975  11.529 -0.0978 -0.0523 -0.0297
16183W        W36463  17.976   5.878  12.799  0.0872  0.1393 -0.0767
16184W        W36464   4.261   2.587  11.642  0.0850 -0.2124  0.0671
16185W        W36465   1.049  14.266  11.442  0.4198  0.1810 -0.0571
16186W        W36466   7.691  19.299  11.211  0.3537  0.0020 -0.1989
16187W        W36467   7.154  12.768   1.044 -0.2818 -0.1050  0.0262
16188W        W36468  19.245  17.702  13.292 -0.0893 -0.4124  0.1085
16189W        W36469   4.776   0.870   3.765  0.1677  0.0565  0.2118
16190W        W36470  18.582   7.110   2.967  0.2939 -0.2013  0.0578
16191W        W36471  15.248  17.130  11.644 -0.1340 -0.0410 -0.3901
16192W        W36472   6.835   1.402   1.819 -0.2904 -0.2305  0.1298
16193W        W36473   2.566   6.479  13.656  0.0552  0.1948 -0.1197
16194W        W36474  10.506  13.116   3.791 -0.0121 -0.0172  0.1786
16195W        W36475  13.813   9.807  10.251 -0.0539  0.4022  0.1517
16196W        W36476  15.880   1.273   0.883  0.2533  0.0205  0.1079
16197W        W36477   1.761  12.521   2.197 -0.2617 -0.2580  0.0312
16198W        W36478   3.666  10.526   1.148 -0.0613 -0.3096  0.0048
16199W        W36479  12.846  15.879   1.930  0.0409 -0.1316 -0.1542
16200W        W36480  14.093   7.039  10.792  0.3540  0.1430  0.0048
16201W        W36481   2.311  14.154   3.526  0.0344  0.1838  0.2192
16202W        W36482   6.115   4.862  13.078  0.3153 -0.0720  0.2062
16203W        W36483   7.699   3.028  12.902 -0.0193  0.0649 -0.0088
16204W        W36484  10.810   3.548  13.129  0.1773 -0.0445  0.0599
16205W        W36485   5.312  14.416   1.136  0.0335  0.1697 -0.0857
16206W        W36486   3.310   8.743  13.767 -0.0070  0.0635 -0.1960
16207W        W36487   4.235  11.182  12.337 -0.1270 -0.1310  0.1008
16208W        W36488   8.433  16.536  11.742  0.2508  0.0861  0.0845
16209W        W36489  11.097  16.336  10.317 -0.0146 -0.1493 -0.1543
16210W        W36490   0.864  10.961   2.967  0.0221  0.0741  0.0759
16211W        W36491   2.020   3.691   3.762 -0.0277  0.3389 -0.2186
16212W        W36492  17.531  19.277  10.311 -0.0462 -0.1498 -0.1100
16213W        W36493   2.952  16.410  10.917 -0.2429 -0.1406  0.1423
16214W        W36494  19.339   6.113   9.325  0.1427  0.0838 -0.2532
16215W        W36495  18.616   6.674  12.161  0.1155  0.1223 -0.1801
16216W        W36496   1.031   7.750   5.264 -0.1463  0.4818  0.1086
16217W        W36497  12.982  18.170  10.390  0.1632 -0.3781  0.1006
16218W        W36498  10.591  16.043  11.445 -0.2903  0.1133  0.1807
16219W        W36499   5.607  15.459   0.441 -0.1836  0.1433  0.4528
16220W        W36500   7.265   4.876   1.388 -0.0082 -0.2316 -0.1246
16221W        W36501  18.089  11.748  13.403 -0.2765  0.6070  0.0252
16222W        W36502   3.228  14.214   0.013 -0.0571 -0.3507 -0.0078
16223W        W36503   9.742  18.757   2.804  0.1876  0.2684  0.2320
16224W        W36504  18.485   5.871   2.938  0.3227  0.0634 -0.0191
16225W        W36505   5.797  14.608  11.969  0.2427  0.0541 -0.1596
16226W        W36506   8.989  15.848   1.718 -0.3341  0.0648 -0.0685
16227W        W36507   3.907  19.051   2.566  0.0512  0.2536  0.1951
16228W        W36508   3.999  11.847   2.277 -0.4362 -0.3403  0.0164
16229W        W36509   7.040   4.456   1.111  0.0352  0.3016  0.4747
16230W        W36510   7.741  14.816   3.805 -0.0267 -0.3118  0.0179
16231W        W36511   7.622  19.189   2.439 -0.0696  0.0482 -0.1366
16232W        W36512  15.978  16.549   3.392 -0.2670  0.1557  0.1066
16233W        W36513  11.816  15.324  13.762  0.1200  0.0043  0.1621
16234W        W36514   2.100   5.047  12.674  0.1586  0.4016 -0.2389
16235W        W36515  10.744  11.183   2.900 -0.4131 -0.1649  0.0897
16236W        W36516  12.821   1.279  12.024 -0.2287  0.1969  0.0094
16237W        W36517  16.776   5.000  12.237 -0.1386 -0.0142  0.1232
16238W        W36518   1.619   3.639   3.383 -0.1618  0.1492  0.1942
16239W        W36519  10.495   2.178  11.349  0.0171 -0.0967 -0.1967
16240W        W36520  13.196   6.520  13.111 -0.1838 -0.1239  0.0535
16241W        W36521   2.587   9.284   4.008 -0.2418  0.2710 -0.0747
16242W        W36522   0.074   1.925   1.999  0.0766 -0.1434 -0.0093
16243W        W36523  18.828  16.781   2.347 -0.0513  0.3565 -0.3230
16244W        W36524   1.083   6.599   2.788  0.1478 -0.1009  0.0598
16245W        W36525   3.468  17.268  10.182  0.0256 -0.1091 -0.0072
16246W        W36526   5.143  10.172   2.074  0.0504  0.0578  0.4765
16247W        W36527  12.195  15.627  12.317 -0.0352 -0.0396  0.2072
16248W        W36528  15.116  13.958   0.569 -0.1619 -0.1692  0.0562
16249W        W36529   0.175  10.768   3.934  0.3842 -0.1331 -0.0271
16250W        W36530  17.092   9.432   2.525  0.0607 -0.0956 -0.0684
16251W        W36531  18.393  16.473   1.188  0.0068 -0.0377 -0.0635
16252W        W36532  18.087  17.315   0.882  0.0873  0.0510  0.2815
16253W        W36533   3.772   5.488  10.722 -0.0595  0.0111  0.1490
16254W        W36534  18.763   9.926   3.118  0.1300 -0.1149  0.1145
16255W        W36535   1.163   8.503   3.145 -0.0984  0.3678  0.0169
16256W        W36536   2.831  17.117   4.661  0.0561 -0.0909 -0.3972
16257W        W36537   3.305   6.321  10.743 -0.2580 -0.0828  0.0095
16258W        W36538  16.062   1.749  12.745 -0.1368 -0.1629  0.1779
16259W        W36539  12.442  18.719  11.537 -0.0867  0.0885 -0.0333
16260W        W36540  13.193  12.723   0.859 -0.0703  0.2851 -0.0600
16261W        W36541  13.312  19.261  13.693  0.0753 -0.0172 -0.5261
16262W        W36542   0.200  14.602   2.415 -0.0697  0.0458 -0.0284
16263W        W36543  11.256   7.393  12.272  0.1215 -0.0286  0.1726
16264W        W36544   2.992   7.099  10.678 -0.0615 -0.1170  0.0080
16265W        W36545   4.581   4.120   2.652 -0.0157 -0.3399 -0.0351
16266W        W36546  10.907   1.166  13.490  0.0101 -0.2674  0.1030
16267W        W36547   1.022   0.406  10.040  0.3052  0.2072 -0.0363
16268W        W36548  14.911  14.691  13.782  0.0213  0.0191  0.0310
16269W        W36549  10.456  14.710  12.132 -0.2641 -0.2417 -0.1402
16270W        W36550   1.753   4.975   0.461 -0.0922 -0.1173 -0.0629
16271W        W36551  12.910  17.633   1.256  0.0691 -0.0369 -0.1263
16272W        W36552   7.174  18.970   3.797  0.2831  0.1204 -0.0283
16273W        W36553  16.983  17.073  11.708 -0.1472  0.0210 -0.4718
16274W        W36554   3.379  16.494  13.827 -0.1270 -0.1070 -0.0111
16275W        W36555  17.732  13.412   0.858  0.0044  0.0356 -0.1758
16276W        W36556  18.650   1.302   0.286  0.0394  0.0763  0.0586
16277W        W36557  14.921   0.556   2.808 -0.1319  0.0926 -0.2410
16278W        W36558   5.513  19.550   3.547 -0.0142  0.0754 -0.1343
16279W        W36559   1.496   1.414  10.160  0.3734 -0.0557  0.1495
16280W        W36560   7.668   9.252   0.647  0.2637  0.1604  0.2827
16281W        W36561   7.524   0.125  12.654 -0.1723  0.1573  0.0634
16282W        W36562   4.965   6.021  13.021  0.0757 -0.1993 -0.3860
16283W        W36563   1.505  13.215   0.401  0.1344  0.2111 -0.0331
16284W        W36564   0.637   2.813  10.938  0.3432  0.2581  0.0254
16285W        W36565   9.298   9.569   2.879 -0.0803 -0.0290 -0.0862
16286W        W36566  16.993  13.537  11.044  0.2016  0.2309 -0.3365
16287W        W36567  12.823   1.561  10.375 -0.2209 -0.1290  0.2126
16288W        W36568  18.038   8.679   2.083  0.1656  0.0121  0.1673
16289W        W36569   5.598   7.680  11.802  0.0948 -0.2356 -0.0068
16290W        W36570  16.912   2.457   9.306 -0.0915  0.0352 -0.1306
16291W        W36571  19.326   5.083   1.986 -0.0198 -0.0377 -0.0247
16292W        W36572  10.155   9.641   2.449  0.0465  0.2463 -0.3641
16293W        W36573  17.468  18.396  11.928  0.1187 -0.0978  0.2986
16294W        W36574   7.469   9.676  12.948 -0.0520 -0.0180 -0.1941
16295W        W36575  18.158  14.102   3.402  0.2178 -0.0185  0.3063
16296W        W36576   4.031   1.020   2.670 -0.1198  0.0383 -0.0662
16297W        W36577  18.728  10.596   0.188 -0.0199  0.1039 -0.0476
16298W        W36578  13.771   8.127  10.840 -0.0585 -0.0349 -0.1832
16299W        W36579  13.357   6.097   1.007 -0.0816  0.2125 -0.0308
16300W        W36580   0.500  16.333  11.863 -0.0061 -0.1002  0.2087
16301W        W36581  15.634  16.787  11.736  0.1255  0.2185 -0.0691
16302W        W36582  19.176  10.811  14.006 -0.1785 -0.4366  0.0270
16303W        W36583  10.248  14.699   2.052 -0.2307 -0.1287  0.1558
16304W        W36584  14.019   1.932  11.859 -0.0436  0.5261  0.3316
16305W        W36585   3.353   4.451   0.377 -0.0627 -0.0032 -0.0370
16306W        W36586  14.476  17.916  11.343 -0.0369  0.0307 -0.0994
16307W        W36587  12.652   7.067  12.582  0.1496 -0.0015 -0.2245
16308W        W36588  11.989   9.405  11.194 -0.3618 -0.1920  0.2400
16309W        W36589   1.548   7.114   0.736 -0.1380  0.2384  0.1525
16310W        W36590   1.335  18.946  11.340  0.3282  0.0171 -0.0967
16311W        W36591  19.289   4.530   3.221 -0.0523  0.1359  0.0702
16312W        W36592  18.539  18.869  11.743 -0.1565  0.0225  0.1425
16313W        W36593   5.810   6.461   0.751  0.1029  0.0828  0.3121
16314W        W36594   7.352  15.196   3.085  0.2250  0.0166 -0.0099
16315W        W36595  11.100   8.198   0.479 -0.1588 -0.1105 -0.1272
16316W        W36596  13.285   4.827  12.027 -0.3713 -0.0383  0.1974
16317W        W36597  19.340  18.188   0.304  0.1013 -0.3052 -0.0783
16318W        W36598  15.868  14.679  12.392  0.1893 -0.2280  0.0790
16319W        W36599  16.215   9.850   0.481 -0.0279  0.0653  0.2516
16320W        W36600  18.615   4.444   1.958  0.0817 -0.1866  0.2784
16321W        W36601   5.009   0.241  10.791  0.1675  0.1786  0.0647
16322W        W36602   2.076  11.683   1.993  0.0762 -0.2816 -0.0209
16323W        W36603  13.844   1.341   3.414  0.0497  0.0093  0.0163
16324W        W36604   3.432   3.691   2.974  0.0641  0.0700  0.0820
16325W        W36605  10.805   1.229   9.074 -0.4792 -0.1540 -0.0841
16326W        W36606   0.197   2.554   0.854 -0.1488  0.2896  0.0650
16327W        W36607  11.794   1.674   2.981 -0.1243 -0.2118 -0.1627
16328W        W36608   0.109  11.019  10.270 -0.0292  0.2135  0.0473
16329W        W36609  15.411  19.564  11.790  0.0556  0.1291  0.1188
16330W        W36610   4.843  17.763   2.284  0.1560  0.1009 -0.2378
16331W        W36611   6.825   4.025   2.537  0.0061  0.0271  0.0344
16332W        W36612   9.536   9.629  12.921  0.3398 -0.0727  0.0573
16333W        W36613  11.572  14.044  11.134 -0.1958  0.1538 -0.1901
16334W        W36614  16.291  15.563  10.751  0.3053 -0.0909  0.1917
16335W        W36615   8.939   6.570  11.924 -0.1043  0.0432  0.1905
16336W        W36616  10.498   4.203  12.410 -0.4269  0.1283  0.2687
16337W        W36617  11.372  12.251  11.120  0.3557 -0.1330  0.2723
16338W        W36618  18.659   9.980   1.523  0.3200  0.1351 -0.0259
16339W        W36619  11.880  10.871   0.199 -0.1158 -0.0712 -0.1008
16340W        W36620  16.527   2.913  11.040 -0.1530 -0.1640 -0.2100
16341W        W36621   3.609  13.627   0.547  0.0712  0.0530  0.0957
16342W        W36622   5.384  18.706   0.753  0.1228  0.1734  0.0276
16343W        W36623   1.458   1.111   1.467  0.2287 -0.0056 -0.0937
16344W        W36624  11.285  14.944  13.027 -0.5587 -0.0043 -0.0377
16345W        W36625   2.293   9.862  13.083 -0.0869  0.2162 -0.1169
16346W        W36626  12.338  10.029  13.739  0.2709  0.1678 -0.0599
16347W        W36627  18.896  16.061  13.035  0.1826 -0.0064 -0.4239
16348W        W36628  10.868   6.636   1.920  0.0924 -0.2540 -0.0388
16349W        W36629  19.332   0.343  12.323  0.0198  0.2481  0.2297
16350W        W36630   2.906   3.661   1.076 -0.0875  0.0742 -0.3224
16351W        W36631  10.678  16.051   0.226 -0.5295  0.4851 -0.1004
16352W        W36632  14.776   5.572  12.435  0.0919  0.0391 -0.0311
16353W        W36633  17.172   1.075   2.254 -0.3107 -0.1156 -0.0694
16354W        W36634  18.271   1.383   3.806 -0.1754 -0.3768 -0.0380
16355W        W36635  18.382   6.733   0.953  0.3786  0.2302  0.2036
16356W        W36636  18.703  12.697   0.730 -0.0331  0.0851  0.1246
16357W        W36637   4.468   3.709   1.351 -0.0874  0.1932 -0.4325
16358W        W36638   6.198   4.725   1.202 -0.2385 -0.0353  0.0917
16359W        W36639   6.527  10.604  11.416 -0.1126  0.0354 -0.2287
16360W        W36640   8.014  12.021  13.032  0.1398  0.0837  0.1355
16361W        W36641   3.603  11.049   0.302 -0.3382 -0.1165  0.0456
16362W        W36642  14.625   3.116   4.064 -0.2060  0.1814  0.1901
16363W        W36643  11.402  17.565  12.474 -0.4739 -0.2216  0.1954
16364W        W36644  18.415   0.168   4.024  0.0577  0.1165  0.2180
16365W        W36645  14.904   7.334   1.319  0.0987  0.3028  0.0005
16366W        W36646  14.565  18.168  10.857  0.0005 -0.1069  0.4071
16367W        W36647  14.583   0.586   3.142  0.1335 -0.2388  0.4980
16368W        W36648  12.833   1.784   2.643 -0.0046 -0.2519  0.1828
16369W        W36649   1.693   0.268   0.990 -0.2435 -0.1471  0.1026
16370W        W36650   5.542   3.348  14.068  0.0385 -0.2866  0.0002
16371W        W36651  18.664   0.887   0.645  0.0975  0.1670 -0.1248
16372W        W36652   3.081  16.787  13.389 -0.1524  0.1678  0.0006
16373W        W36653  11.753  13.055   1.792  0.0402 -0.3419 -0.0684
16374W        W36654  14.725   3.192  14.027 -0.3315 -0.3283  0.0744
16375W        W36655   0.116  12.442  10.407  0.0636  0.0242 -0.0888
16376W        W36656   8.970  14.224   0.601  0.1159  0.1683  0.5303
16377W        W36657  19.642   7.530   2.417  0.1683  0.1888  0.3529
16378W        W36658   3.818  18.031  12.374 -0.0540  0.1350  0.0895
16379W        W36659   3.743  18.878   3.458  0.2498  0.0148  0.0465
16380W        W36660   4.652  12.470  13.622  0.2532 -0.3122 -0.1819
16381W        W36661  19.477   5.393   3.753 -0.1067 -0.0229 -0.2870
16382W        W36662   7.707   0.021  13.913 -0.2254  0.1148 -0.0088
16383W        W36663  16.458   3.679  13.715 -0.1669 -0.2505 -0.1670
16384W        W36664   7.322   2.965   3.338 -0.1511  0.0282 -0.1260
16385W        W36665   6.050  15.023   3.024 -0.2149 -0.2306 -0.3364
16386W        W36666   7.836   0.487  13.513  0.2826 -0.0311 -0.1030
16387W        W36667   4.715   3.264   0.483  0.2841  0.1056 -0.0941
16388W        W36668   8.102  13.695  10.179  0.0457 -0.0218 -0.1050
16389W        W36669  17.309   5.208   2.377  0.1895  0.0396 -0.0265
16390W        W36670  12.462   2.027  14.075 -0.4419  0.0091 -0.0644
16391W        W36671  13.867   5.459  14.008  0.3245 -0.0109  0.2794
16392W        W36672  12.074   4.049  13.898 -0.4448 -0.1102  0.0362
16393W        W36673  10.326  19.348   3.239  0.1158  0.2848 -0.1312
16394W        W36674   0.579   5.342   3.383 -0.0753 -0.0440 -0.1420
16395W        W36675   3.292  18.123  11.554 -0.2157 -0.0951  0.0131
16396W        W36676   2.289  17.688   2.517  0.2097 -0.1009  0.0818
16397W        W36677   0.740   3.981   2.934  0.0743 -0.1169  0.2449
16398W        W36678  10.441   2.712   2.707 -0.0715 -0.0572 -0.1192
16399W        W36679  19.285  12.676   1.406  0.0850  0.0620 -0.2332
16400W        W36680   0.020   2.231   2.822  0.0239  0.0912 -0.0541
16401W        W36681  13.231  15.898  11.359  0.1433 -0.1351  0.3058
16402W        W36682   3.708  11.487   3.190 -0.0146  0.0863  0.1380
16403W        W36683   7.372  17.522   3.603 -0.0519  0.1208  0.1716
16404W        W36684   6.723   7.140   0.758  0.0404  0.2093 -0.0604
16405W        W36685  14.045   2.073  10.617  0.1914  0.2621  0.1597
16406W        W36686   6.990   9.024  12.400 -0.1502 -0.0625  0.0387
16407W        W36687  11.693  17.685  13.003  0.0073  0.0048 -0.1329
16408W        W36688   9.568   1.560   2.478  0.1046 -0.2473  0.0233
16409W        W36689  14.478   7.199   1.430  0.1136  0.0110 -0.3004
16410W        W36690   2.479   8.660   2.470  0.0555  0.0546 -0.1363
16411W        W36691   0.413  12.419  12.624 -0.0576 -0.0197  0.2792
16412W        W36692  16.448   5.240   3.389 -0.0769  0.0034 -0.1359
16413W        W36693  19.202  11.341   9.833  0.0728 -0.0070 -0.0315
16414W        W36694   4.461   7.149  11.335  0.4011 -0.2170 -0.2530
16415W        W36695   0.640   4.049  10.755  0.2151  0.1323  0.0127
16416W        W36696   6.649   2.866  12.816  0.0648  0.1536 -0.2031
16417W        W36697  18.489   5.816   2.105 -0.1923 -0.4009  0.0661
16418W        W36698  18.696  19.283  10.418  0.0627 -0.0262  0.2814
16419W        W36699  19.341  18.952   3.683  0.0952 -0.2095 -0.2621
16420W        W36700   4.430   0.646   9.943 -0.1694  0.0513 -0.2523
16421W        W36701  10.581   6.092  11.757 -0.0329 -0.1338  0.1079
16422W        W36702  12.442   0.775  13.322 -0.2313  0.2120  0.0446
16423W        W36703  11.792   6.259   3.054  0.1695  0.2569 -0.3031
16424W        W36704   9.443   3.208  13.353  0.0520 -0.1841  0.3207
16425W        W36705  10.610   3.303   2.136  0.1618  0.1135  0.1560
16426W        W36706   8.367   5.549  10.879  0.2746 -0.1667 -0.0420
16427W        W36707   6.741  16.556   0.802 -0.0706  0.0614  0.0313
16428W        W36708   1.946  14.355  13.223  0.2298 -0.0339 -0.0478
16429W        W36709   1.055  11.403   0.948  0.3094  0.1964  0.2046
16430W        W36710  17.285   2.793  13.250  0.3807 -0.0377  0.2813
16431W        W36711  10.663  19.648   3.447 -0.0934 -0.2687  0.0033
16432W        W36712   8.772   0.874   1.619 -0.1788  0.1474 -0.1273
16433W        W36713  19.387   0.167  14.027 -0.1252  0.4722 -0.0276
16434W        W36714  16.178  16.946   0.046 -0.1289 -0.1106  0.0826
16435W        W36715  19.024  12.877  10.506  0.2105  0.2662 -0.1645
16436W        W36716  19.625  19.674   0.438 -0.1344  0.2182 -0.3743
16437W        W36717  17.936  11.449   4.616  0.1345  0.0690 -0.2299
16438W        W36718  11.724  15.239  10.459 -0.0745  0.5665  0.2140
16439W        W36719  10.711   1.784   2.942  0.2323 -0.2919 -0.1542
16440W        W36720   6.330   5.355   3.925  0.1367  0.0389  0.1789
16441W        W36721  18.479  17.928  11.636 -0.1424 -0.4386 -0.0641
16442W        W36722   8.988   2.837   2.174 -0.0933  0.1414 -0.3764
16443W        W36723  13.745   1.814  13.421 -0.1933 -0.0362 -0.1754
16444W        W36724   8.511  16.526  12.995  0.3341 -0.3641 -0.0271
16445W        W36725  13.801   4.075  13.507 -0.2613 -0.0606 -0.1139
16446W        W36726  15.401   8.896  10.591 -0.0970  0.3664  0.1283
16447W        W36727  13.703  10.548  11.557  0.2381 -0.0165  0.0508
16448W        W36728  16.391   4.469  13.085  0.2654  0.1899 -0.0517
16449W        W36729  14.523  12.598  12.181  0.0977  0.0485 -0.1201
16450W        W36730   6.461  10.453   4.455 -0.0318 -0.4143 -0.1546
16451W        W36731  15.196   9.220   0.394  0.1426  0.0360 -0.2114
16452W        W36732  12.004  12.160   1.029  0.1765  0.0647 -0.0440
16453W        W36733   2.812   8.857   1.449 -0.0576 -0.1892 -0.0061
16454W        W36734   2.150   3.020   1.791 -0.2485 -0.1452  0.0766
16455W        W36735  10.662   4.208   3.640 -0.2636 -0.0461 -0.0396
16456W        W36736   6.646   4.186  10.792 -0.2503  0.5101  0.2677
16457W        W36737   8.110  16.161  12.678 -0.0016  0.1837 -0.0524
16458W        W36738  13.185  16.797   4.718  0.0000  0.0954 -0.1778
16459W        W36739  10.293   4.610  13.303  0.1855  0.1747  0.1739
16460W        W36740   6.605  14.178  11.700 -0.1892  0.1085 -0.1476
16461W        W36741   1.803  18.035   3.479  0.1814  0.1434  0.2114
16462W        W36742  12.628  17.099   1.739 -0.0608  0.1508  0.0795
16463W        W36743  11.290   8.312  10.507 -0.0407  0.0996  0.2343
16464W        W36744   6.275   6.479   1.142  0.0980 -0.0269 -0.3974
16465W        W36745  13.345  14.134   2.383  0.5552  0.1406 -0.3184
16466W        W36746   9.788  14.199   1.149  0.0977  0.1842 -0.1865
16467W        W36747   7.242  12.589   2.832 -0.2333 -0.1592  0.1878
16468W        W36748   3.875   1.775   1.646  0.0288  0.1756  0.2493
16469W        W36749  13.422   9.069  10.763  0.1002  0.0654  0.0593
16470W        W36750   3.376  15.867  10.502  0.0492  0.0814 -0.1650
16471W        W36751   8.107  19.219  13.499  0.0428  0.0146 -0.0029
16472W        W36752  16.109  11.214  10.536 -0.2321 -0.0043  0.1672
16473W        W36753  14.821   3.383   4.490 -0.1748  0.0939  0.0183
16474W        W36754  10.965  12.170   1.087  0.1417  0.1183  0.0866
16475W        W36755   0.528  14.266   3.741  0.3348  0.0424  0.0891
16476W        W36756   3.890   0.988  10.828 -0.0122  0.0433  0.2236
16477W        W36757  14.054  14.404   3.416 -0.0215  0.1629  0.0341
16478W        W36758  16.594  11.312   2.385 -0.0849 -0.3920  0.1490
16479W        W36759  12.952  17.137  11.800 -0.0333  0.1049 -0.1328
16480W        W36760   0.765  17.238  12.771  0.1461 -0.0133  0.1811
16481W        W36761  18.449   0.290  10.827  0.0570  0.1083  0.1931
16482W        W36762   8.291   3.725  12.455 -0.2651  0.0644 -0.0590
16483W        W36763   2.038   9.635   1.350  0.0147  0.5829 -0.3270
16484W        W36764   0.539  19.274  14.076 -0.2441 -0.0401 -0.2183
16485W        W36765  16.418  16.540   3.672 -0.0606 -0.0708 -0.0141
16486W        W36766  11.637  19.056  13.262 -0.1087  0.0518 -0.0566
16487W        W36767  17.488  17.409  11.382  0.2470 -0.0789  0.1193
16488W        W36768  15.599   4.290   2.656 -0.0915 -0.0495  0.1441
16489W        W36769  13.987  19.043  14.081 -0.2027  0.1728 -0.1147
16490W        W36770  13.533   9.977   2.590 -0.0498 -0.0436 -0.0541
16491W        W36771  19.410   6.542  12.394  0.3105 -0.2091  0.0558
16492W        W36772  10.633   1.162  13.076  0.1270 -0.0179 -0.0930
16493W        W36773   5.978   2.105   0.591  0.2312  0.0737 -0.1732
16494W        W36774  18.271  15.195   5.126 -0.0388 -0.0291  0.0583
16495W        W36775   3.852   0.016   3.666 -0.0157  0.0459 -0.0834
16496W        W36776   6.585   7.570   2.533 -0.2058  0.3612 -0.0953
16497W        W36777  11.433  18.441  10.577 -0.0407  0.2209  0.1292
16498W        W36778  18.438   0.599   2.828  0.1496  0.2705  0.1831
16499W        W36779   4.830  13.408   1.414  0.1851  0.0559 -0.1245
16500W        W36780   1.229  13.423   2.921 -0.0508 -0.3497  0.3524
16501W        W36781  16.087  16.729   0.548  0.1113  0.3012  0.0264
16502W        W36782   0.387   1.161   3.237  0.0829  0.1381  0.1209
16503W        W36783   5.501  17.453  13.677 -0.0115  0.1567 -0.0855
16504W        W36784  11.508  18.631   0.085 -0.2349 -0.3430  0.1628
16505W        W36785   3.669  17.892  12.833 -0.1947 -0.3671 -0.1407
16506W        W36786  11.819  11.638   2.892 -0.0972  0.0754  0.0256
16507W        W36787   5.069  17.231   1.345 -0.0161  0.0085 -0.0551
16508W        W36788   9.763  18.998  10.739  0.0739 -0.4286  0.2193
16509W        W36789   0.196  19.585   0.810 -0.1415 -0.1746 -0.2531
16510W        W36790  18.486   6.557  13.905 -0.3845 -0.1257 -0.0699
16511W        W36791   8.003   0.601   3.677 -0.0477  0.3374  0.1658
16512W        W36792   2.171   6.147   4.007  0.0407  0.2122 -0.2287
16513W        W36793   0.827   5.125  11.617  0.1817 -0.0728  0.4055
16514W        W36794  19.286  19.128  10.469 -0.1554  0.1713  0.0641
16515W        W36795  11.033   6.934   2.344  0.1226  0.1669  0.0088
16516W        W36796  14.412  11.555  11.963  0.0627  0.0733  0.1096
16517W        W36797  18.990  18.506   0.467  0.2063  0.0318  0.1504
16518W        W36798   9.086  13.734   0.087 -0.3922  0.0057 -0.3544
16519W        W36799  19.713  18.386  13.892 -0.1503 -0.0768 -0.0485
16520W        W36800  15.768  12.069  12.566 -0.2053 -0.0845 -0.1397
16521W        W36801  12.736  11.393   0.799 -0.1202  0.1777 -0.2639
16522W        W36802   5.806   9.966   2.597  0.1054 -0.4467  0.1318
16523W        W36803  10.527   9.961   2.506  0.1939 -0.1602 -0.0963
16524W        W36804  16.872   3.305  10.966  0.2683 -0.3110  0.2134
16525W        W36805  17.546  10.519  13.424 -0.1771  0.0117  0.1630
16526W        W36806   4.024  17.875   0.377 -0.1276  0.0163  0.0005
16527W        W36807  12.748   2.372  10.574 -0.0306 -0.0219  0.3438
16528W        W36808  18.438   8.454  11.444  0.2037 -0.2346  0.1608
16529W        W36809   9.921  12.833   0.475 -0.0650 -0.1381  0.1469
16530W        W36810   9.975   2.316   1.617 -0.0075 -0.0354  0.2190
16531W        W36811   8.992  10.276  13.572 -0.0020  0.1012  0.1689
16532W        W36812  14.155   0.133  11.128 -0.2857 -0.1631  0.0183
16533W        W36813   4.430  18.628   0.598 -0.0785 -0.1749  0.0318
16534W        W36814   4.557  10.130   1.262 -0.1739 -0.0179 -0.3992
16535W        W36815  17.618  15.771   2.798 -0.0275  0.2423  0.2902
16536W        W36816  19.051   1.008   0.035  0.0198  0.3233  0.0182
16537W        W36817   8.973   9.405   1.302 -0.0428 -0.4270 -0.0355
16538W        W36818  13.894  18.855   1.000 -0.1698 -0.2192 -0.1245
16539W        W36819  12.173   1.012  10.304  0.1431 -0.2581 -0.2808
16540W        W36820  10.103  10.755  13.754  0.0459  0.2767  0.1740
16541W        W36821  18.798   1.533   9.712  0.0137 -0.0009  0.2898
16542W        W36822   7.434  13.055  11.421 -0.0217 -0.3427  0.3579
16543W        W36823   2.167   1.673  12.511 -0.0520  0.3186  0.1605
16544W        W36824   5.470  19.637  12.972 -0.2824  0.1843 -0.0535
16545W        W36825   9.774   8.971  12.342 -0.1294 -0.0234 -0.1021
16546W        W36826  17.900  18.496   4.792 -0.2634 -0.1151 -0.1295
16547W        W36827  13.894   0.868  10.717  0.1052 -0.1016 -0.0220
16548W        W36828  18.808   3.805  10.941 -0.0592  0.2188  0.3697
16549W        W36829  15.434   0.969   1.739  0.1715  0.2848  0.0071
16550W        W36830   0.169  13.421   3.907 -0.1569  0.3014 -0.0797
16551W        W36831   4.177  11.786  11.944 -0.1104  0.0776  0.0782
16552W        W36832  14.354   6.448   0.018  0.1066 -0.0530 -0.0187
16553W        W36833   8.648  10.308   2.435 -0.6075 -0.0209  0.0304
16554W        W36834   5.925   2.119   1.052 -0.2037 -0.3050  0.1143
16555W        W36835  19.425  18.764  11.632 -0.1601  0.1871  0.0971
16556W        W36836   6.015   4.065   0.022  0.2933  0.0769  0.0080
16557W        W36837   0.150  12.173   1.786  0.0216  0.0373 -0.0005
16558W        W36838   5.138   9.225   3.233  0.1595 -0.1335  0.1064
16559W        W36839   7.198  15.339  11.386 -0.0633  0.3283 -0.0146
16560W        W36840  14.082   1.078   9.782 -0.0430  0.3027 -0.4932
16561W        W36841   4.091   2.190  11.219 -0.1830  0.1297 -0.0171
16562W        W36842   7.216   7.558  12.665  0.2755 -0.0674 -0.0451
16563W        W36843  10.500  11.581  13.577  0.2284  0.0817 -0.1121
16564W        W36844   4.604   5.699   2.058  0.1605 -0.2512  0.0866
16565W        W36845   3.176  14.531  12.628 -0.0107 -0.0504  0.1024
16566W        W36846  19.051  11.041   1.042 -0.1645  0.1543  0.0305
16567W        W36847   2.392  10.604  10.971  0.0691 -0.1040  0.5061
16568W        W36848  14.756   1.542   0.262  0.0402  0.1296 -0.2415
16569W        W36849   7.759  16.384  13.444 -0.0472  0.2730  0.2315
16570W        W36850  19.179   1.292   1.879  0.0863 -0.1668  0.0720
16571W        W36851   9.722   8.611   3.019  0.0481 -0.3779 -0.0663
16572W        W36852  16.394   8.047   1.262 -0.0949 -0.0082 -0.2476
16573W        W36853  12.316  13.643   0.862  0.3759 -0.1128  0.0527
16574W        W36854   6.344  16.139   0.668 -0.4706  0.0687  0.0708
16575W        W36855   2.453  17.557  11.825  0.0738  0.0202  0.1751
16576W        W36856  14.063   3.151   0.827 -0.0719  0.2412  0.0771
16577W        W36857  19.071  13.362  12.426  0.1754 -0.3560 -0.2501
16578W        W36858   6.250   3.307  12.917  0.2295  0.1891 -0.2393
16579W        W36859   1.644  15.054  13.586 -0.2823 -0.1868  0.1450
16580W        W36860   3.362  16.637  10.737  0.1234 -0.0957  0.2363
16581W        W36861   4.503  19.296  13.417 -0.0112  0.0929  0.0505
16582W        W36862  19.618   3.001  12.636  0.2049 -0.2009  0.3942
16583W        W36863   2.648  13.754   1.249 -0.3798  0.0915 -0.2718
16584W        W36864  19.484   1.693  13.985  0.0374  0.0471  0.4027
16585W        W36865   7.339   4.863   3.612 -0.2380 -0.1343 -0.0852
16586W        W36866  16.768   6.235   2.561 -0.1740 -0.1813 -0.0728
16587W        W36867  15.108  17.056   3.127 -0.0957 -0.2744 -0.0739
16588W        W36868  12.375   4.165   0.656 -0.0025 -0.0173 -0.0593
16589W        W36869   1.186   4.132   3.255 -0.1456  0.0423  0.0876
16590W        W36870   1.973   4.265   3.861 -0.0937  0.2425  0.0073
16591W        W36871  13.154   8.754  13.137  0.1049 -0.0719 -0.0204
16592W        W36872  12.794  16.236  11.314  0.2638  0.0335 -0.1806
16593W        W36873   3.265  15.724   3.933 -0.0835 -0.0794 -0.0322
16594W        W36874   3.527   5.071   4.153 -0.0642 -0.3469 -0.1454
16595W        W36875   3.424   9.189   1.485  0.1650  0.1596 -0.0697
16596W        W36876  15.104   9.876   4.903 -0.0181  0.1176 -0.0999
16597W        W36877  13.191  11.131  10.444 -0.0150  0.4074  0.1060
16598W        W36878   9.566  15.762  11.924  0.3410  0.2906  0.1168
16599W        W36879   4.644  10.071  12.594  0.2523 -0.0036  0.1948
16600W        W36880  12.906  11.869   0.481 -0.2653 -0.0639 -0.1214
16601W        W36881  11.863   8.361  12.261  0.1471 -0.3583 -0.1178
16602W        W36882   6.790   5.079   1.831  0.1870 -0.0593 -0.0695
16603W        W36883   9.783  11.053   9.931 -0.0423  0.4066 -0.1095
16604W        W36884  11.765  13.683  13.820 -0.1480 -0.3477 -0.2502
16605W        W36885  10.526   5.106   0.295  0.1302  0.1170 -0.2690
16606W        W36886  14.302  10.249   0.454 -0.0995 -0.0790  0.0206
16607W        W36887   4.457   4.444  12.990  0.0147  0.1078 -0.0917
16608W        W36888  14.378   9.937  13.649  0.0879  0.0279 -0.2602
16609W        W36889  11.137  10.661  12.830 -0.2034  0.0136  0.0207
16610W        W36890   3.175  10.892   0.010 -0.7328 -0.2420  0.2007
16611W        W36891   6.865  11.423  10.406  0.2078 -0.0836 -0.1427
16612W        W36892   6.860   4.919  11.908  0.2034  0.1105  0.2147
16613W        W36893   8.249  17.602   1.678 -0.0094  0.0504  0.0683
16614W        W36894   5.697   9.030  10.031  0.0097 -0.2607  0.0874
16615W        W36895   9.710  11.365   3.059 -0.0933 -0.0191  0.2283
16616W        W36896  12.256  10.302  12.974 -0.1295 -0.1352  0.1695
16617W        W36897   5.099  18.075  12.505 -0.1828 -0.1207  0.1341
16618W        W36898   7.310  18.244   0.694  0.2134  0.0400  0.2766
16619W        W36899  15.501  13.375  11.876 -0.1480  0.1523  0.3498
16620W        W36900   1.091   6.741  14.105 -0.0976  0.0855 -0.1561
16621W        W36901  17.471  19.715  10.697  0.0859 -0.2714 -0.1153
16622W        W36902  11.748   4.983  11.137 -0.6060  0.2627 -0.2635
16623W        W36903  18.713  11.069   3.889 -0.1207  0.0229 -0.1587
16624W        W36904  11.634  16.608  12.816 -0.0179  0.2659 -0.0641
16625W        W36905  16.973   3.278  12.033 -0.0076  0.3186  0.1099
16626W        W36906   2.920  18.291  13.968 -0.0164  0.2241  0.1648
16627W        W36907   3.278   5.476   3.718  0.4005  0.0541 -0.1152
16628W        W36908  11.907  15.215   0.767  0.0126 -0.0410 -0.2391
16629W        W36909  18.558  18.550  11.224  0.2588  0.0077  0.2158
16630W        W36910   2.106   7.621  12.833  0.0227  0.3494  0.4327
16631W        W36911   9.336   3.130  10.988 -0.1274  0.2032 -0.1432
16632W        W36912  10.150   1.361   1.811  0.1753  0.0464  0.0736
16633W        W36913  12.602   6.103  11.245  0.1119  0.0306 -0.0585
16634W        W36914  17.014  10.006  12.660  0.0751 -0.2388  0.2440
16635W        W36915   4.923  11.617   2.347  0.0465 -0.0066 -0.3325
16636W        W36916   4.824   1.543  13.794 -0.3039 -0.1780  0.0026
16637W        W36917  10.995  18.484  10.860 -0.3051  0.2236 -0.0519
16638W        W36918  10.098  18.542  11.405  0.0397 -0.1492 -0.4172
16639W        W36919  16.541   6.674   1.618  0.1077 -0.2406 -0.2546
16640W        W36920   9.838  18.523  10.440  0.1055 -0.1092 -0.2395
16641W        W36921   9.476   0.686  12.142 -0.1644 -0.0264  0.0550
16642W        W36922   1.883   7.646  12.319  0.0718  0.1504  0.1230
16643W        W36923   1.553   9.573   4.885  0.3066  0.1485 -0.1649
16644W        W36924  12.004  17.261  13.843  0.0425  0.2232 -0.3265
16645W        W36925   6.509   8.981   1.946  0.0253 -0.2126  0.2090
16646W        W36926   1.223  12.977  13.659  0.0528  0.0602  0.2245
16647W        W36927   1.255  15.867  11.124  0.0726 -0.3559  0.0786
16648W        W36928   1.918   0.688   1.660  0.4434  0.0076  0.0393
16649W        W36929   5.814   8.580  10.929  0.0828 -0.0466  0.3167
16650W        W36930   9.410  19.668  13.266  0.3168 -0.4476  0.3095
16651W        W36931  14.377  19.118   2.295  0.0518  0.1116 -0.2315
16652W        W36932  18.147  18.124   0.403  0.3597  0.0574  0.0410
16653W        W36933   9.164  10.935   3.883 -0.1597  0.0606  0.1591
16654W        W36934  19.747  17.112  11.888 -0.0500 -0.0006  0.0724
16655W        W36935  18.025   4.060   0.195  0.1523  0.1056 -0.2471
16656W        W36936   7.185   8.480  13.879  0.0940  0.0697 -0.1805
16657W        W36937  16.893   3.111  12.942 -0.0304 -0.2683 -0.2682
16658W        W36938  13.862  17.395  11.837 -0.1744  0.1560  0.0304
16659W        W36939   2.142   6.740   2.563 -0.1190  0.3583  0.0115
16660W        W36940  18.756  11.634  13.886 -0.0243  0.0007  0.1114
16661W        W36941  19.476   0.617  13.806 -0.0887 -0.2647  0.1942
16662W        W36942  15.834   5.654   0.787 -0.1687 -0.1489 -0.3882
16663W        W36943   4.354  17.731  10.057 -0.0366 -0.0187 -0.1862
16664W        W36944  12.029   2.815   2.004  0.0939  0.0692 -0.0365
16665W        W36945   8.542   8.838   3.486 -0.1985 -0.2545  0.0616
16666W        W36946   1.305   8.099   3.602  0.3609  0.2493 -0.3087
16667W        W36947   1.459   2.365  14.089  0.1549 -0.1486 -0.2208
16668W        W36948   3.000   9.693  12.023  0.0530 -0.3756  0.0021
16669W        W36949  16.152  19.649   9.829 -0.2210  0.1433  0.2117
16670W        W36950   5.390   5.283   1.532 -0.4083 -0.0020  0.2222
16671W        W36951   2.055   3.574   4.946 -0.3026 -0.1770 -0.1042
16672W        W36952  12.338  11.368   3.450 -0.0422 -0.3168 -0.0274
16673W        W36953  19.263   6.029  12.236 -0.2102  0.0627  0.2985
16674W        W36954  10.651   8.535   3.549  0.1456  0.1554  0.1661
16675W        W36955   5.109  17.022   3.498 -0.0031  0.4810  0.2128
16676W        W36956   5.355  16.522  11.577  0.2042  0.1344  0.0526
16677W        W36957  10.650  16.825   2.844 -0.4162  0.2460  0.0904
16678W        W36958   6.414   2.316  12.856  0.0696 -0.1455 -0.3738
16679W        W36959  17.942  17.474  13.779 -0.1316 -0.0152  0.1371
16680W        W36960  19.657  11.805   1.962 -0.0686  0.1925 -0.0668
16681W        W36961  10.142   8.507  12.924 -0.0137 -0.3068 -0.3359
16682W        W36962  12.573   5.066   2.792 -0.0941  0.1414  0.0280
16683W        W36963  15.518  12.330  13.477  0.0326 -0.0805 -0.1105
16684W        W36964   1.960   6.031   0.074 -0.0224 -0.2654 -0.4646
16685W        W36965   2.329   1.154   0.156 -0.2166 -0.0025  0.1277
16686W        W36966  19.570  11.491  12.522 -0.2677  0.4075 -0.0876
16687W        W36967  18.050   8.019  12.782 -0.1020  0.0223  0.0524
16688W        W36968   3.430   4.070   3.462  0.1145 -0.4216  0.1023
16689W        W36969  11.778  12.317   2.288  0.2823 -0.3586 -0.0103
16690W        W36970   3.453   7.597   0.324 -0.1457  0.0374 -0.0598
16691W        W36971  16.296  15.372   0.343 -0.0010  0.0946  0.3788
16692W        W36972   7.138   0.012  13.858 -0.1626 -0.1565 -0.0809
16693W        W36973  10.823   4.476   5.173 -0.1209 -0.1299  0.1921
16694W        W36974   2.361   2.836  10.726 -0.0386 -0.0368  0.0050
16695W        W36975  16.445  16.472  11.247  0.0740  0.0751  0.0077
16696W        W36976   0.887   7.522  13.491 -0.0184  0.0417  0.2225
16697W        W36977  17.016   2.842  10.800 -0.0276  0.1365 -0.0967
16698W        W36978  17.087   4.703   2.230 -0.1018 -0.0164  0.1580
16699W        W36979   1.420  15.122  14.056  0.1263 -0.0631 -0.2129
16700W        W36980   3.883  10.684   3.278  0.0534  0.0824  0.0417
16701W        W36981   7.157   1.434  13.970  0.1013 -0.2934 -0.1424
16702W        W36982  18.582   9.703   4.018  0.4380  0.1434  0.4154
16703W        W36983   2.975   3.637   3.363  0.0053  0.2389  0.0247
16704W        W36984  17.332   0.273   2.347  0.0079  0.1121  0.2649
16705W        W36985  16.769   4.371   0.894  0.1175 -0.1794  0.1166
16706W        W36986   9.137  15.881   3.052 -0.3001  0.0704 -0.0799
16707W        W36987   7.866   1.819   1.118 -0.6959 -0.0402  0.0387
16708W        W36988   4.535   4.417   2.267 -0.1042 -0.2517 -0.1179
16709W        W36989  13.219  19.510  10.576  0.2667  0.0370  0.0721
16710W        W36990   7.043   7.894  10.850  0.1110  0.3844 -0.0342
16711W        W36991  16.841   8.844   0.276  0.2090 -0.0393  0.0742
16712W        W36992  16.812   6.854  11.840 -0.2509  0.0958 -0.0304
16713W        W36993  12.058   2.637  12.404  0.0239 -0.0238 -0.1880
16714W        W36994  19.394   8.303   1.049 -0.2299 -0.0252 -0.3400
16715W        W36995  17.812   9.524  11.362  0.2517  0.2886  0.0289
16716W        W36996  14.113   9.849   1.044 -0.0411 -0.0634  0.2593
16717W        W36997   6.176   6.487  11.868 -0.0325 -0.0960  0.1847
16718W        W36998   6.249  17.186  11.962  0.2378  0.1226 -0.3148
16719W        W36999  10.849   3.972  12.772  0.0429 -0.1135 -0.2543
16720W        W37000   4.882  14.817  12.237 -0.0522  0.1001 -0.0030
16721W        W37001   7.243   8.324  10.664  0.3126  0.1190 -0.0697
16722W        W37002   8.229  14.512  11.904  0.2810 -0.3097  0.0464
16723W        W37003  16.052  13.438   1.815 -0.1020 -0.0837  0.1389
16724W        W37004   7.267   8.074  12.616  0.3191 -0.0341 -0.1271
16725W        W37005  12.551  17.354  11.305 -0.1640 -0.0358 -0.0862
16726W        W37006  19.579   4.636  11.281  0.0196 -0.0040 -0.2177
16727W        W37007  18.374   1.523  10.843 -0.0838  0.0072 -0.1804
16728W        W37008   7.659  17.235  13.198  0.0402 -0.0239 -0.1536
16729W        W37009   8.068  18.070  10.353  0.2196  0.1688 -0.0548
16730W        W37010  12.344   9.386   0.859 -0.1988  0.0449  0.1456
16731W        W37011   1.298   9.060   3.627 -0.0909 -0.3066 -0.0241
16732W        W37012  10.306   5.461  13.681 -0.4005  0.2038  0.1187
16733W        W37013   2.836   7.278   3.251 -0.0761  0.1167 -0.2307
16734W        W37014  15.928   7.595   0.517  0.0016 -0.2789  0.1333
16735W        W37015  12.298   5.714   2.170  0.0588 -0.1578  0.0105
16736W        W37016  15.376  16.209  10.522 -0.1021 -0.0549  0.2522
16737W        W37017  18.487  17.459  12.986  0.2208  0.0114 -0.0328
16738W        W37018   0.153  12.297  11.001  0.2224 -0.0946 -0.2079
16739W        W37019  11.871   6.020   0.772 -0.0007  0.0309 -0.0641
16740W        W37020  14.120  16.622   2.189 -0.3448 -0.0450  0.0749
16741W        W37021   3.121   2.874  13.963  0.2904  0.0246  0.1998
16742W        W37022  14.389   8.513  12.164  0.0429  0.3254  0.1147
16743W        W37023  12.336   5.295   1.663  0.0008  0.0432 -0.1038
16744W        W37024  14.625   7.809  12.369  0.1585  0.3068 -0.1088
16745W        W37025   8.658   6.271  12.787 -0.0357  0.0070  0.1590
16746W        W37026   9.181   5.364   2.683 -0.2218 -0.1017 -0.1597
16747W        W37027   0.824   5.409   1.850 -0.0263  0.0890 -0.1890
16748W        W37028  12.077   0.709   3.875 -0.0147  0.1483 -0.0853
16749W        W37029  15.177   9.856  11.597 -0.1955 -0.3579 -0.1332
16750W        W37030   3.724   4.514   3.354 -0.2748  0.2837 -0.0807
16751W        W37031   8.161   0.056  10.142 -0.0564  0.2526 -0.3347
16752W        W37032   1.326  10.002   3.945 -0.0829  0.0581 -0.0131
16753W        W37033   8.633  11.798  12.470  0.3674 -0.0667 -0.1484
16754W        W37034  14.702  17.703   2.751 -0.0747 -0.2473  0.1728
16755W        W37035   8.259   3.380  10.867  0.1394 -0.0083 -0.2121
16756W        W37036   1.675   7.578  13.874  0.0820 -0.0159  0.0659
16757W        W37037  12.809  18.225  10.867  0.2223  0.0055 -0.2029
16758W        W37038   1.511   4.060  13.426 -0.1235 -0.0527 -0.0094
16759W        W37039  11.801   2.665   3.070  0.0629 -0.3875 -0.1714
16760W        W37040   7.810  16.880   0.303 -0.0836 -0.3490 -0.4007
16761W        W37041   7.250   4.647  12.504 -0.2425 -0.1249 -0.0663
16762W        W37042   0.429   1.912   3.654 -0.0351  0.1200  0.0514
16763W        W37043  16.490   9.610   1.837  0.0591  0.0164  0.0356
16764W        W37044   7.864  14.828   1.728 -0.2283 -0.3509 -0.1172
16765W        W37045   6.993  16.417  10.396 -0.1038 -0.1539 -0.1995
16766W        W37046   3.132   4.586   2.370  0.2166  0.1366 -0.4520
16767W        W37047  17.872  13.894  13.805 -0.0718  0.1972 -0.0757
16768W        W37048  15.702  18.375   3.509  0.2141  0.0049  0.0969
16769W        W37049  11.395  13.226   1.023  0.0746  0.0175 -0.0469
16770W        W37050   5.049   7.141  13.772 -0.2629 -0.0031  0.2705
16771W        W37051  11.318  16.624  10.680 -0.0351  0.1664 -0.0860
16772W        W37052   6.058   9.978  13.046 -0.0528 -0.3994 -0.3210
16773W        W37053  16.361  14.635   9.327 -0.1604 -0.5860  0.1740
16774W        W37054  11.086  10.856   1.581 -0.3139 -0.2347  0.0169
16775W        W37055   1.119   2.631  10.992 -0.2675  0.0902  0.1683
16776W        W37056   2.453   9.223  12.486  0.3112  0.1778  0.3036
16777W        W37057  18.225  10.204  12.616 -0.0605 -0.0757  0.0164
16778W        W37058   8.502  14.999  14.101 -0.1403 -0.2262 -0.1774
16779W        W37059   0.923  10.726   0.456 -0.1177 -0.1556 -0.7079
16780W        W37060   6.619   8.500  13.726 -0.1146 -0.1449  0.2636
16781W        W37061  19.438  10.067   2.936  0.0562 -0.0257  0.0202
16782W        W37062  18.655  13.472  12.164  0.1819 -0.3253  0.1365
16783W        W37063  17.308   3.694  12.672  0.3241 -0.4528 -0.2206
16784W        W37064  11.815   6.523   0.332 -0.1875 -0.1658  0.3409
16785W        W37065  16.801  16.875   2.923  0.1998 -0.1861 -0.2370
16786W        W37066  16.504   1.249   4.715 -0.0202 -0.0617 -0.0784
16787W        W37067   4.175   0.283   9.121  0.2457 -0.0157 -0.0961
16788W        W37068  12.848   4.268   2.385  0.1849  0.0417  0.0301
16789W        W37069   0.029  10.910   2.523  0.0863 -0.1241  0.1484
16790W        W37070   8.712  18.052  12.423  0.0615  0.0269 -0.2866
16791W        W37071   9.461   3.925   4.029  0.0551 -0.0931 -0.0834
16792W        W37072   7.218   4.503  13.565 -0.0344 -0.1170 -0.2597
16793W        W37073   0.137   8.695   2.321 -0.1857  0.0985  0.3499
16794W        W37074   4.627  11.097  11.987 -0.0414 -0.1056  0.1363
16795W        W37075   6.313  15.082  11.207  0.2941  0.0737 -0.2135
16796W        W37076   0.047  15.557  13.147  0.0435 -0.1257 -0.0118
16797W        W37077  13.046  16.352  12.519  0.0370  0.0617  0.1499
16798W        W37078  10.367   7.237   0.252 -0.2222 -0.1800 -0.0540
16799W        W37079  15.436  11.329  13.561 -0.0434  0.1941  0.0613
16800W        W37080  13.671  14.192   0.878 -0.0431  0.0031  0.2301
16801W        W37081  15.416   4.398   2.150  0.1944  0.0068  0.0741
16802W        W37082  10.004   6.442   2.948 -0.4121  0.2446  0.0561
16803W        W37083  15.306  19.661  10.241  0.1011  0.0503  0.0079
16804W        W37084   8.861   7.442  11.237 -0.2148 -0.1773 -0.2650
16805W        W37085  10.795  18.738  11.938  0.0847  0.0858 -0.0275
16806W        W37086   1.550   0.483  10.775 -0.0362 -0.0612 -0.2855
16807W        W37087   3.115  10.341  12.911 -0.3918  0.1893  0.0881
16808W        W37088   4.027  13.282   1.239 -0.1663  0.2997  0.3598
16809W        W37089  19.486   4.005   2.068 -0.0479  0.0223  0.1350
16810W        W37090  12.807   7.985   1.889 -0.0569 -0.2345  0.1545
16811W        W37091   8.180   1.540  12.437 -0.1410 -0.2106  0.1680
16812W        W37092  11.621   4.273   0.209  0.1671  0.1351  0.0331
16813W        W37093   8.617   3.287   4.406 -0.3025  0.1801 -0.1243
16814W        W37094  12.389   2.050   2.678 -0.3177  0.0085 -0.0679
16815W        W37095   5.292   0.490   0.464 -0.0283  0.1643  0.0479
16816W        W37096  17.071  14.925   0.342  0.0586  0.3550  0.3203
16817W        W37097   5.175   0.958   0.550  0.0301 -0.1635  0.0242
16818W        W37098  11.770  15.733   4.710 -0.3329  0.0644 -0.0996
16819W        W37099  16.146   9.205   0.465  0.1271 -0.0127 -0.0838
16820W        W37100   9.877   1.295   0.673 -0.0216 -0.1648 -0.1690
16821W        W37101  13.703  11.376   0.624  0.2935 -0.3483 -0.0766
16822W        W37102  12.380   0.063   0.443  0.1494 -0.3442  0.0977
16823W        W37103   8.810  10.735  10.900 -0.0053 -0.1010 -0.1375
16824W        W37104   6.986  13.446  12.213 -0.2464 -0.1625 -0.2447
16825W        W37105  15.402  13.716  12.581  0.0078  0.0765 -0.1516
16826W        W37106  16.576   7.478  10.767  0.0545 -0.2709 -0.0803
16827W        W37107   3.410   1.464  11.250  0.0058  0.1964 -0.1137
16828W        W37108   3.706  18.727  12.190  0.2230  0.0160 -0.0967
16829W        W37109   0.440  13.898   1.814 -0.1138 -0.0841  0.1642
16830W        W37110   7.511  17.031   2.733  0.1816  0.0864  0.3585
16831W        W37111   9.079  19.269   0.851  0.0301 -0.1530 -0.0516
16832W        W37112  17.131  10.332  12.222  0.3165  0.0346 -0.0830
16833W        W37113  13.061   2.093  14.020  0.0380  0.0200  0.1819
16834W        W37114   0.110  11.005  11.250 -0.1207  0.0833 -0.2513
16835W        W37115  10.921  12.242  10.716  0.1463 -0.0678  0.1662
16836W        W37116  12.655   7.991  10.247  0.2282 -0.0230  0.2017
16837W        W37117  13.202  14.434   0.861  0.1117 -0.2550  0.2837
16838W        W37118   1.770  15.270   2.617 -0.0451  0.1490  0.3742
16839W        W37119  15.728  13.433   1.290  0.2862 -0.1245 -0.1657
16840W        W37120  10.024  12.414  11.801 -0.0117  0.2981  0.3286
16841W        W37121   0.047   6.964  11.892  0.0691 -0.0671 -0.0900
16842W        W37122   4.313  15.785  11.085 -0.1027 -0.2273 -0.0420
16843W        W37123   5.535   9.544   2.999 -0.3371 -0.0207  0.1519
16844W        W37124  13.559   9.814   1.053 -0.0536  0.0097 -0.0967
16845W        W37125  16.327   5.784  10.808 -0.2249  0.1218  0.1588
16846W        W37126   0.338   0.986   1.445  0.5204 -0.0217  0.1530
16847W        W37127  13.322   8.887  12.700  0.2867 -0.0589 -0.3037
16848W        W37128  13.055   1.805   2.079 -0.2714  0.0345 -0.0710
16849W        W37129   2.511   3.232   4.180  0.0121 -0.4992 -0.0658
16850W        W37130  19.594   6.375   0.354 -0.3267  0.0973  0.0355
16851W        W37131  13.110   8.328  10.295 -0.1688 -0.3055 -0.0498
16852W        W37132  14.303  15.815   2.194  0.1718 -0.1050  0.0369
16853W        W37133   8.432  18.943   3.492 -0.0462  0.0539 -0.2329
16854W        W37134   9.906   5.887  10.343 -0.3274  0.3081  0.4183
16855W        W37135   4.644  16.019   2.732 -0.2188  0.2014  0.0759
16856W        W37136   8.827  14.447   3.298 -0.1769  0.0932  0.0157
16857W        W37137   4.817   5.564  11.391 -0.0891  0.0493  0.0046
16858W        W37138   2.734  10.117  13.228  0.2440  0.0350 -0.3540
16859W        W37139   5.430  13.010   2.540  0.2330 -0.3669 -0.2029
16860W        W37140   4.042  13.806   3.609 -0.2649  0.0517  0.2035
16861W        W37141   3.210   0.364   2.962 -0.1390 -0.3354  0.0649
16862W        W37142  19.751  12.990   1.477 -0.1008 -0.2516 -0.1145
16863W        W37143  11.953  11.115   2.000  0.1032 -0.0634  0.1209
16864W        W37144  15.942   0.822  10.170  0.4109 -0.1511 -0.1098
16865W        W37145   3.256  16.830   3.378 -0.1682 -0.1155  0.1285
16866W        W37146   7.717   2.646  10.313  0.0440 -0.2818  0.2273
16867W        W37147  16.670   1.478   0.915 -0.1020 -0.2028  0.0634
16868W        W37148   1.729   9.611  11.909  0.3083  0.1016  0.3241
16869W        W37149  10.667   0.762   9.050  0.1878 -0.0364 -0.2448
16870W        W37150  15.078   8.443   1.394  0.0895 -0.3871  0.2687
16871W        W37151  13.017  16.101  11.754  0.2880  0.0457 -0.0577
16872W        W37152   3.123   9.163   4.095 -0.0186  0.0546  0.0995
16873W        W37153  12.278  17.920   2.847 -0.3692 -0.0315  0.0166
16874W        W37154  15.121  10.832   1.917 -0.0562 -0.2416  0.0709
16875W        W37155  12.711   4.076  12.205 -0.0497  0.1653 -0.2217
16876W        W37156  10.268  13.364   2.097  0.2031 -0.0271 -0.0661
16877W        W37157   4.624  12.695   1.955 -0.0300  0.1793 -0.2666
16878W        W37158   1.244  14.810   1.576  0.3262  0.1999 -0.1233
16879W        W37159  11.844   5.849  13.813 -0.0762 -0.2273 -0.0114
16880W        W37160  11.923  18.357   0.397  0.0706  0.0631 -0.0717
16881W        W37161   2.683   7.946   2.198  0.1229  0.3004  0.1498
16882W        W37162   3.894  17.844   1.960  0.0643 -0.1002 -0.1202
16883W        W37163  10.267  15.125   1.253 -0.0282 -0.1730 -0.0351
16884W        W37164   3.348  16.816  10.087  0.0142 -0.4074 -0.1299
16885W        W37165  13.754  15.488   2.375 -0.2324 -0.2404  0.0410
16886W        W37166   2.477   1.476  12.878  0.3548 -0.2714 -0.2941
16887W        W37167  18.729   0.633  10.026  0.1817 -0.2400 -0.3185
16888W        W37168  15.043   3.741  10.474 -0.2496  0.1798 -0.1663
16889W        W37169  18.713   5.342  11.828 -0.3860  0.0701 -0.0711
16890W        W37170   9.726  18.667   2.244 -0.5061 -0.0432 -0.1335
16891W        W37171   8.920   2.369   2.939 -0.0238  0.0592 -0.2641
16892W        W37172   5.765   5.833  13.125 -0.0789  0.2526  0.3618
16893W        W37173   2.587  19.132   2.131 -0.2125  0.2009  0.1810
16894W        W37174   2.967  11.989  13.184  0.2543 -0.0668 -0.2173
16895W        W37175   1.005  13.449  11.003 -0.2890 -0.1352  0.2118
16896W        W37176   1.485   6.269   4.180 -0.3585  0.2652  0.1057
16897W        W37177   3.341  10.146  11.975 -0.0649  0.2887  0.0218
16898W        W37178   1.126  13.549   0.303  0.1088 -0.0346 -0.2091
16899W        W37179   0.780  14.332   0.963  0.2035 -0.1069  0.1783
16900W        W37180   5.425  18.291   3.566 -0.2115 -0.1261 -0.3407
16901W        W37181   3.293  13.649   1.849  0.4354 -0.0481  0.1250
16902W        W37182   1.491  12.512  13.674 -0.1123 -0.1102 -0.1256
16903W        W37183   4.093  18.877   1.606  0.0869 -0.0079 -0.1917
16904W        W37184  10.657   7.339  12.510  0.4411 -0.1074 -0.3871
16905W        W37185  18.052   8.092  11.574  0.0678 -0.0329 -0.0772
16906W        W37186   4.349   0.696  12.929 -0.0928  0.0051 -0.0560
16907W        W37187  11.036   0.266   1.672  0.0677 -0.0424  0.3177
16908W        W37188   8.929  18.756  11.512  0.1661  0.0150 -0.3599
16909W        W37189  12.256   6.621   0.540  0.1580  0.3316  0.0925
16910W        W37190   8.955  10.583  11.918  0.0594  0.0270  0.2761
16911W        W37191  13.415   9.437   1.392  0.0508 -0.1872 -0.1318
16912W        W37192  15.191   8.548   3.525 -0.0239  0.0186  0.2934
16913W        W37193  10.105  15.331   3.736 -0.0158 -0.0174 -0.1743
16914W        W37194  12.593  18.379  12.116  0.1689  0.1861 -0.3499
16915W        W37195   1.195   5.771   3.021 -0.1046  0.0332 -0.0623
16916W        W37196   5.243  11.201   3.637 -0.0232  0.0154 -0.2223
16917W        W37197   8.601  18.367  13.899  0.1509 -0.0795  0.2957
16918W        W37198   2.743   0.961  12.212  0.1353 -0.0639  0.0469
16919W        W37199   1.582   3.790  12.658  0.0420 -0.0843  0.0547
16920W        W37200  18.070   9.171   9.678  0.0178 -0.0377 -0.1510
16921W        W37201   6.104   3.642   1.530  0.2592 -0.4901 -0.1798
16922W        W37202  16.197   9.097   0.954 -0.1796 -0.3349 -0.2830
16923W        W37203  14.745   9.602  12.254 -0.1235  0.0471  0.0339
16924W        W37204   9.848   9.949  12.720 -0.2287 -0.1628  0.1316
16925W        W37205   1.394  16.456  13.174  0.0240 -0.0726  0.0008
16926W        W37206   8.855  11.072  12.233  0.0771  0.2064 -0.0580
16927W        W37207   7.723  15.333   1.531  0.1692  0.0409 -0.1261
16928W        W37208  13.275   0.587   2.695  0.0713  0.0692 -0.2677
16929W        W37209   1.452  18.318   1.147  0.0611  0.1852 -0.2479
16930W        W37210   3.518   2.800   2.283  0.1305 -0.1172 -0.0375
16931W        W37211   0.025  14.133   1.504  0.0861 -0.2629  0.0561
16932W        W37212  19.282   9.517   1.453  0.0778  0.0661  0.2196
16933W        W37213  11.851   1.286   1.045  0.1273  0.0149  0.1264
16934W        W37214   7.392  14.791  10.554  0.0273 -0.3118  0.0511
16935W        W37215  10.735  19.231  13.297 -0.5160  0.0843  0.0425
16936W        W37216   8.145  12.542  12.936  0.0449  0.4466 -0.0236
16937W        W37217  11.826  18.878   0.441 -0.3151  0.1516 -0.0023
16938W        W37218   4.972   0.672  12.663  0.2093  0.3726  0.1261
16939W        W37219   2.570   8.328   1.856  0.0845  0.0671  0.4248
16940W        W37220   9.417  16.510  10.717 -0.1568 -0.1168 -0.0512
16941W        W37221   8.284   1.386   1.944  0.5706  0.2268  0.5831
16942W        W37222  10.818   7.257  14.014  0.0453 -0.1777  0.1152
16943W        W37223  10.001  18.853   1.632  0.1081  0.3129  0.0124
16944W        W37224  12.147   4.955   2.433 -0.1551 -0.0149  0.0881
16945W        W37225   8.002   1.156   1.559 -0.0885  0.3674  0.0247
16946W        W37226   4.241   5.593   2.574  0.1820 -0.0152 -0.0956
16947W        W37227  10.705   4.183   2.446 -0.2716  0.2961  0.1968
16948W        W37228  17.932   4.625   1.745  0.2394  0.0104  0.1131
16949W        W37229  12.696  13.683  13.959 -0.2236 -0.2053 -0.0544
16950W        W37230   7.233  17.373   1.756  0.0456  0.0498  0.0370
16951W        W37231   5.070   1.497  12.817  0.0626  0.2041  0.0414
16952W        W37232   0.681   7.129  12.658 -0.1302  0.3214  0.1170
16953W        W37233  17.960   6.323  13.696 -0.1141  0.4384 -0.1896
16954W        W37234  18.560   7.238   0.030 -0.1605  0.2745 -0.3731
16955W        W37235   8.143   2.825  11.862 -0.0286 -0.0838 -0.0294
16956W        W37236   9.406  17.858  11.320 -0.0804  0.0657  0.0297
16957W        W37237   2.231  13.193   3.131 -0.2359 -0.1808  0.2083
16958W        W37238  10.237   9.357  13.400 -0.2439  0.1088 -0.1868
16959W        W37239   5.465   5.325   2.051 -0.2308 -0.1829 -0.1891
16960W        W37240   3.935   6.266   2.119 -0.4614 -0.1223  0.0538
16961W        W37241  16.789   7.816  12.553 -0.1506  0.2331  0.1673
16962W        W37242   0.061   0.241  10.303  0.0135 -0.0668 -0.0077
16963W        W37243   5.248   0.718   2.199  0.1758 -0.0607  0.1025
16964W        W37244  13.522  14.186   1.913 -0.0122  0.3187 -0.0100
16965W        W37245  15.562  10.965   0.599  0.0954  0.1133 -0.2260
16966W        W37246   9.003  12.890   2.202  0.0523 -0.1095  0.3905
16967W        W37247   9.627  12.354   0.492  0.2822 -0.2573  0.0406
16968W        W37248  17.835   0.820   1.727 -0.3977  0.3400  0.0055
16969W        W37249   1.380  12.356  12.412 -0.0305  0.0016  0.6942
16970W        W37250   5.531   8.813   2.071 -0.0283 -0.0362  0.0311
16971W        W37251  10.529   8.442  12.093 -0.4474  0.0610  0.0088
16972W        W37252  17.636  16.082  10.543 -0.2544 -0.3851 -0.2596
16973W        W37253  19.392  12.442  13.677  0.0656 -0.0330  0.1350
16974W        W37254  19.621   6.674   0.790  0.0760  0.2024 -0.1190
16975W        W37255   8.540   8.789  12.931  0.1447 -0.2504  0.0646
16976W        W37256  11.329  11.921  10.701 -0.3273  0.0664 -0.1350
16977W        W37257   7.357   0.549   3.890  0.2521 -0.3095 -0.1432
16978W        W37258   1.833   6.648  12.240  0.0414  0.1288 -0.0990
16979W        W37259  16.714   6.951   2.017  0.1737  0.1329 -0.0401
16980W        W37260   4.541   5.947  11.415  0.1002  0.2180  0.0752
16981W        W37261  13.021  10.869   0.714 -0.3170 -0.0823 -0.0780
16982W        W37262  18.840  14.240   1.537  0.3190  0.1910 -0.2953
16983W        W37263   3.484  14.201   4.150  0.0148 -0.1517  0.0432
16984W        W37264   9.686   6.550  13.748  0.0787  0.3749  0.5765
16985W        W37265  10.950   3.472  10.857 -0.0023  0.1506  0.2078
16986W        W37266   3.026   1.385  12.042 -0.0569  0.2313  0.0344
16987W        W37267   2.833   8.340   1.385  0.0394  0.1037  0.0735
16988W        W37268   7.385  10.467  11.308 -0.0722  0.0700  0.0615
16989W        W37269  16.241   8.772  13.208  0.0165 -0.1363 -0.1146
16990W        W37270  16.977  19.462  13.488 -0.1571 -0.1009  0.0079
16991W        W37271   6.170   6.172   2.267 -0.2032  0.0220 -0.2231
16992W        W37272   1.027   8.062   1.441  0.1373 -0.1256 -0.1731
16993W        W37273   1.909   1.950   0.347 -0.2546 -0.2082 -0.0157
16994W        W37274   9.694   0.619  13.618 -0.0806 -0.2971  0.0573
16995W        W37275  10.265  13.718   2.494 -0.4186  0.2085 -0.1627
16996W        W37276   7.333   1.414   4.341 -0.0711 -0.0957  0.0283
16997W        W37277   6.594   3.144  10.931  0.0714  0.3790 -0.1095
16998W        W37278   9.390  19.047  11.034  0.0327 -0.3547 -0.1011
16999W        W37279   2.472   0.568   1.513 -0.1985 -0.0704  0.0258
17000W        W37280   7.663   0.960   3.680 -0.1842 -0.0815  0.3351
17001W        W37281  11.760   8.616   3.166  0.1590 -0.2451  0.2301
17002W        W37282  18.266   5.658  10.864  0.0758  0.2251  0.1612
17003W        W37283  19.181   3.871   4.132 -0.0808  0.2184  0.1482
17004W        W37284  14.943  15.298   4.151 -0.0468 -0.1938  0.3847
17005W        W37285  18.173  16.138  10.302  0.0176  0.0597  0.2163
17006W        W37286  18.815   0.150  11.929  0.3537 -0.0371  0.0148
17007W        W37287  12.011  14.246  12.920  0.1801  0.2147  0.2422
17008W        W37288   9.064  18.402  11.914 -0.1819 -0.1311  0.0962
17009W        W37289  11.908   9.816  11.500  0.0293  0.0297 -0.1155
17010W        W37290  18.829   1.666   0.570  0.0656 -0.0582  0.1329
17011W        W37291  16.609   5.427  10.493 -0.2498 -0.0570 -0.1949
17012W        W37292   8.174   3.782   1.750  0.2002 -0.1375  0.4936
17013W        W37293  13.308   4.262  13.729 -0.1115 -0.4665  0.0535
17014W        W37294  17.433   6.821  11.660 -0.0428 -0.1378 -0.3207
17015W        W37295   1.917  13.494   1.928  0.1384 -0.2484 -0.0912
17016W        W37296  18.065  19.236   1.821  0.0095  0.1320  0.0202
17017W        W37297   6.958  17.530  11.689 -0.0979  0.1261 -0.1039
17018W        W37298  10.459   4.539   2.775  0.0828  0.1934  0.0338
17019W        W37299  13.852   5.291   3.076  0.1292  0.2312 -0.2046
17020W        W37300  16.982  10.008   3.445  0.0980 -0.1553  0.1186
17021W        W37301  11.760   6.079  11.293 -0.2137 -0.0470 -0.1942
17022W        W37302  10.277  19.291  13.625 -0.1094  0.1310 -0.1229
17023W        W37303   1.431  14.167   2.482  0.2782 -0.1906  0.1461
17024W        W37304   3.911   5.927   0.695 -0.0220  0.2800 -0.0072
17025W        W37305  18.508   7.420  11.518  0.0619  0.1750 -0.2465
17026W        W37306   3.902  17.502   3.348  0.4305  0.1556 -0.3150
17027W        W37307   6.931   8.746  12.985 -0.1315  0.0105  0.0020
17028W        W37308  12.517  11.716   2.347 -0.0632 -0.2023  0.1542
17029W        W37309  18.010  15.911  13.702  0.0392  0.2492 -0.0662
17030W        W37310  11.945   8.886   5.180 -0.0848  0.3243  0.0031
17031W        W37311   9.957   2.952  13.382 -0.0418 -0.0662  0.2890
17032W        W37312   4.306  13.000  10.304  0.0389  0.0952 -0.2834
17033W        W37313  11.997   1.655   2.413  0.0717  0.0448 -0.0366
17034W        W37314   8.139  10.525   3.025 -0.2152  0.4597 -0.0312
17035W        W37315  13.570   0.004  13.491  0.2688  0.1222  0.1197
17036W        W37316  13.518   7.766  12.992  0.0778  0.0800 -0.0914
17037W        W37317   0.017  15.441  11.238 -0.1910  0.2997  0.0741
17038W        W37318   8.987  19.396  10.389 -0.0053  0.2823 -0.0174
17039W        W37319   2.745  13.492   4.758 -0.1925  0.1108 -0.0018
17040W        W37320  12.988   7.183   3.435  0.1136  0.1103  0.0234
17041W        W37321   6.504  14.339   3.620  0.1667 -0.0166  0.1499
17042W        W37322   1.547   9.641   1.325 -0.1050  0.1863 -0.3017
17043W        W37323  12.371  13.326  12.509  0.1561  0.2238 -0.1426
17044W        W37324   8.487   9.751   2.562  0.1181  0.0177 -0.0488
17045W        W37325  19.133  13.923  12.854  0.1970 -0.3099  0.2660
17046W        W37326  13.866  13.249   1.516 -0.3199  0.2489  0.0848
17047W        W37327  11.310  17.053   1.706  0.4672  0.0405  0.1522
17048W        W37328   0.642  14.618  11.510 -0.0155 -0.0141 -0.0794
17049W        W37329   9.306  19.744   2.237 -0.0009 -0.0873  0.1043
17050W        W37330  13.713  11.193   5.304  0.2196  0.2728  0.0566
17051W        W37331  13.596  14.816   0.837 -0.0671  0.1759  0.1083
17052W        W37332  17.444   9.920  13.761 -0.0739 -0.0466  0.3698
17053W        W37333   5.265  19.287  11.382  0.0659 -0.2577  0.1564
17054W        W37334   8.160  15.850  11.880  0.0221 -0.2103  0.5119
17055W        W37335  14.975  17.563   0.331 -0.1934 -0.1630 -0.1510
17056W        W37336   4.712   1.413   3.555  0.1002 -0.1871 -0.1037
17057W        W37337  10.772  17.290  12.610 -0.2232 -0.0959 -0.0219
17058W        W37338   7.922  17.036  12.555  0.1710 -0.0404  0.1496
17059W        W37339  10.563  16.479   2.002  0.0415  0.0828 -0.2410
17060W        W37340  16.354  13.706  13.869  0.3004 -0.3754 -0.1423
17061W        W37341  19.141  15.818   0.981 -0.4281 -0.0462  0.0310
17062W        W37342  13.649  14.250  12.346 -0.1407  0.0989 -0.2340
17063W        W37343   4.561   5.976   3.824  0.2335 -0.1531  0.0089
17064W        W37344  12.627  15.500   2.279  0.2289 -0.2406  0.1035
17065W        W37345  13.179  11.412   0.531  0.1510 -0.1942 -0.0057
17066W        W37346   1.497  11.526   1.308  0.0708 -0.0644  0.0397
17067W        W37347  16.724  13.293   2.839  0.2747 -0.1884 -0.1866
17068W        W37348   4.902  19.437   0.887  0.0149 -0.1696 -0.0914
17069W        W37349   5.285  14.238  10.733 -0.1829 -0.1446 -0.0878
17070W        W37350  11.301  15.190   3.544 -0.0992  0.1469  0.1917
17071W        W37351   6.512  11.368   2.997 -0.2316 -0.1336  0.1501
17072W        W37352   5.764  11.566   2.393  0.0045 -0.0500 -0.3100
17073W        W37353  11.007  10.678  11.798  0.0637 -0.1428 -0.4658
17074W        W37354   6.824  11.005  10.044  0.3755  0.1418 -0.1030
17075W        W37355  15.073  11.430   1.275  0.0732 -0.0270  0.1970
17076W        W37356   0.058   0.096  11.173 -0.1541 -0.2620  0.1487
17077W        W37357  12.598   6.134   0.149 -0.1019 -0.1952 -0.0536
17078W        W37358   7.138   1.922  13.865 -0.2760 -0.2824 -0.0462
17079W        W37359  18.151   3.562  10.313 -0.1428  0.0649 -0.1202
17080W        W37360  15.603  10.499   0.329 -0.2024 -0.0792  0.0716
17081W        W37361   5.482   9.170  13.054 -0.0711 -0.1812 -0.1613
17082W        W37362  15.565  17.806  12.813  0.0440 -0.0837  0.0963
17083W        W37363  14.902   5.193  13.446 -0.1249 -0.0634 -0.1103
17084W        W37364  16.157  10.834   2.155 -0.1511 -0.0437 -0.0159
17085W        W37365  19.188   6.032   0.291 -0.1350  0.1119  0.1711
17086W        W37366  19.604  19.577  13.257 -0.2913 -0.3369 -0.0886
17087W        W37367   9.965   3.692   1.394  0.1968  0.0111  0.2458
17088W        W37368  11.249  17.190   0.012  0.2301 -0.2011 -0.0323
17089W        W37369   3.054  14.920  12.886  0.1797  0.1191  0.1357
17090W        W37370  11.333  12.833   3.789 -0.2599  0.1225  0.0168
17091W        W37371  11.773  13.088  13.697  0.1258 -0.1258  0.2344
17092W        W37372  19.304   5.357  10.969  0.0564 -0.1191 -0.2055
17093W        W37373   4.464   6.523   2.810 -0.1200 -0.0946  0.2592
17094W        W37374  17.390  10.547   1.956 -0.0024 -0.1025 -0.1300
17095W        W37375  11.011   5.900   1.295  0.2054 -0.0582  0.1420
17096W        W37376  14.508  14.093  10.935 -0.0009  0.1458  0.1194
17097W        W37377  12.310   6.576   1.688  0.1859  0.2573 -0.0609
17098W        W37378  11.495  16.617   1.899 -0.1056  0.0157  0.1130
17099W        W37379  11.961   8.777  11.249  0.0552 -0.0057  0.0102
17100W        W37380  19.444   2.626  12.409  0.0377 -0.2996  0.4778
17101W        W37381   5.332  14.867   3.511  0.0852  0.2656 -0.0083
17102W        W37382   3.099  18.525  11.924 -0.0915 -0.0958 -0.1016
17103W        W37383  16.783   5.973   9.696  0.1887 -0.1449 -0.0267
17104W        W37384  15.294  12.793  13.266  0.1805 -0.0821 -0.0690
17105W        W37385   7.328  12.042  12.464  0.2115  0.0242 -0.0338
17106W        W37386  18.059  14.570  10.898  0.2130 -0.1687  0.1226
17107W        W37387   0.818   8.404   1.782  0.1293 -0.1998  0.1717
17108W        W37388  18.291   8.198   2.027  0.2872 -0.1573 -0.2209
17109W        W37389  16.789   7.145  13.154 -0.0469 -0.0104  0.0008
17110W        W37390  11.328  12.960   3.199 -0.1014  0.2295  0.0571
17111W        W37391  16.047  13.959   2.413 -0.1194 -0.3904 -0.0979
17112W        W37392   3.721   1.934   0.738 -0.0827 -0.1947 -0.1030
17113W        W37393   1.362   0.113   2.357 -0.1317  0.0549 -0.0961
17114W        W37394  13.582  12.349  11.698 -0.1229 -0.0899 -0.0604
17115W        W37395   2.350  10.907   3.137 -0.0433 -0.0920  0.3023
17116W        W37396  10.048  13.754   4.387 -0.3096  0.2631  0.0308
17117W        W37397  17.524   4.185  10.298  0.0396 -0.6460 -0.1392
17118W        W37398   5.721  17.129   1.553  0.1077 -0.1658  0.0911
17119W        W37399  17.300  12.180  12.614  0.0920 -0.2021 -0.0080
17120W        W37400   8.480  19.337   3.264  0.0072  0.1226  0.1335
17121W        W37401   4.412  12.659  12.279  0.5367 -0.2784  0.1347
17122W        W37402  15.239   6.564  13.945 -0.2136  0.0412  0.0660
17123W        W37403   6.026   9.143  13.576  0.0624 -0.2740  0.1017
17124W        W37404   9.506   2.638  13.448  0.3824  0.2911 -0.3520
17125W        W37405  12.847  16.812  11.299 -0.1245  0.1842  0.2187
17126W        W37406   7.234  11.063  14.030  0.0930 -0.1356 -0.1312
17127W        W37407   2.075  18.616   0.671 -0.1825  0.1887 -0.1542
17128W        W37408  13.744   8.909  11.796 -0.1154  0.3986  0.0982
17129W        W37409  16.057  10.420   0.235 -0.1909  0.2056 -0.0731
17130W        W37410   2.392   3.775   0.175 -0.1409 -0.0895  0.3285
17131W        W37411   7.924  14.273   1.999  0.3148  0.2464 -0.0852
17132W        W37412  13.035  16.222   1.623  0.2365 -0.1301  0.2601
17133W        W37413   2.533   6.542   2.094 -0.1674 -0.0387 -0.0453
17134W        W37414   6.839   8.939  11.706 -0.0865 -0.0499 -0.2018
17135W        W37415  15.668   4.609   0.721 -0.3592  0.1202  0.0067
17136W        W37416   4.624   9.302   0.141 -0.0673  0.1828 -0.3353
17137W        W37417  11.163   0.464  12.899  0.2324 -0.2613 -0.1763
17138W        W37418   5.301   1.263  12.007 -0.2428  0.0607 -0.0802
17139W        W37419   7.311  12.825  13.777 -0.1589 -0.0552 -0.0196
17140W        W37420   6.285   6.492  12.379 -0.4541 -0.0222  0.2315
17141W        W37421  11.471   5.460  10.816  0.1889 -0.2862  0.0157
17142W        W37422   3.555  15.357  10.501  0.0798  0.1161 -0.1235
17143W        W37423  13.671   3.859   9.667  0.3662 -0.0398  0.0473
17144W        W37424  17.737   6.738  13.852 -0.3324 -0.0624  0.0230
17145W        W37425   3.005   7.579  11.087 -0.2023  0.1455 -0.0131
17146W        W37426   6.335  11.728  13.240  0.2096  0.0513 -0.0283
17147W        W37427   7.605   5.148   0.923  0.2760 -0.1865  0.1651
17148W        W37428  13.640   6.743  11.771  0.2063  0.5064  0.0507
17149W        W37429  17.513   7.766   2.210 -0.2520 -0.0624 -0.0738
17150W        W37430   7.567   0.267   1.806  0.2786  0.1544  0.2285
17151W        W37431  17.371   9.920  12.166 -0.4509 -0.1903  0.3408
17152W        W37432  11.808   8.543   1.507  0.0169 -0.0102  0.2523
17153W        W37433   7.771   9.972  13.376 -0.3532  0.0296 -0.1359
17154W        W37434   0.709   0.842  13.665 -0.0446  0.0450 -0.1045
17155W        W37435   8.343  16.204   2.328  0.0175 -0.0185 -0.1729
17156W        W37436  12.024  12.265   3.650 -0.2930 -0.0867  0.1908
17157W        W37437  11.303  11.065  11.066 -0.1165  0.0585  0.1204
17158W        W37438  14.984  15.462   3.157 -0.0996  0.0444  0.0702
17159W        W37439  16.283  16.133   2.924  0.0406 -0.1965  0.0558
17160W        W37440  12.775   7.987   1.130 -0.4695  0.1639 -0.0651
17161W        W37441  12.996  18.767  13.820  0.0436 -0.0339  0.0298
17162W        W37442  13.570   2.874  12.429  0.1209  0.1323  0.1465
17163W        W37443  14.001  18.057   1.667 -0.1040  0.2205 -0.0950
17164W        W37444  13.147   7.953   1.430 -0.1099 -0.0122  0.1437
17165W        W37445   2.365   3.339  10.545  0.0460 -0.4396  0.5705
17166W        W37446  17.359   9.911   1.095  0.2757  0.1147  0.1341
17167W        W37447  18.728   0.999   1.518  0.2236  0.1736  0.1435
17168W        W37448  17.703   5.158  13.140 -0.0986 -0.1906  0.1105
17169W        W37449  16.849   8.019   0.278  0.1440  0.2954 -0.1571
17170W        W37450   7.591   1.850  13.114 -0.0737  0.1595  0.2265
17171W        W37451  14.679  12.301   2.971  0.1993  0.2407 -0.0138
17172W        W37452  13.524   6.180   3.320  0.0116  0.0893 -0.0971
17173W        W37453  19.379   7.582   0.050 -0.0082  0.0503 -0.0450
17174W        W37454   2.096  16.566  11.838  0.3247  0.1674 -0.1006
17175W        W37455  10.462  10.075   1.746 -0.1372 -0.1479 -0.2543
17176W        W37456  11.438   6.205  12.911  0.3457  0.3699 -0.0155
17177W        W37457   4.385  11.073   2.745  0.0686 -0.0764  0.2175
17178W        W37458   6.205   1.295   1.136 -0.0584 -0.1429  0.2773
17179W        W37459  15.973  10.041  12.068 -0.1501  0.0083  0.0189
17180W        W37460   6.094  19.280  10.555  0.1096  0.1013  0.2845
17181W        W37461   9.924  11.072   3.744  0.1525 -0.0760  0.2367
17182W        W37462  13.524   8.551   9.940 -0.0200 -0.0069 -0.0008
17183W        W37463   3.751  13.869   2.148 -0.3781 -0.0440  0.1307
17184W        W37464  18.159  17.210  12.291  0.0786  0.1137 -0.0556
17185W        W37465   3.518  13.344  10.891  0.3905 -0.1164 -0.0637
17186W        W37466  12.558  13.994   1.721  0.0778 -0.3158 -0.0371
17187W        W37467  15.152  17.461  12.778  0.2349  0.0230 -0.2967
17188W        W37468  11.117  11.064   2.427 -0.1182 -0.2378 -0.1068
17189W        W37469   7.660   1.744   2.521  0.0803 -0.1725  0.0489
17190W        W37470   3.521  19.548  10.379 -0.2258  0.1107  0.0929
17191W        W37471   4.839  10.740  11.094 -0.0240 -0.4248  0.0921
17192W        W37472   5.325   8.763  11.042 -0.2451 -0.0485 -0.2771
17193W        W37473   6.730   5.941   9.528  0.3463  0.4593 -0.0268
17194W        W37474   1.827  12.810   0.315 -0.3062  0.0512  0.0271
17195W        W37475   3.207   7.423   2.943  0.3616 -0.0056  0.3719
17196W        W37476  17.756  11.270  11.828 -0.1057  0.1170 -0.1457
17197W        W37477   2.899  16.462  12.949 -0.1692 -0.0221  0.2110
17198W        W37478  16.607  13.982   3.517 -0.0454  0.0012  0.4054
17199W        W37479   6.492   1.266  11.458  0.0736  0.0767  0.2463
17200W        W37480  16.464   7.706   4.418  0.0121  0.2599  0.1258
17201W        W37481   4.834   8.056   0.336 -0.0257 -0.1757  0.1585
17202W        W37482   5.297   1.401   0.716  0.2458 -0.1174 -0.3744
17203W        W37483  15.846   4.287  13.858 -0.3568 -0.1085  0.1543
17204W        W37484   8.386  17.882  11.571  0.2097 -0.0907  0.0991
17205W        W37485  15.870   6.344  10.646  0.1539 -0.1877 -0.0169
17206W        W37486   0.561  12.173   2.587 -0.1163 -0.0085  0.0175
17207W        W37487   2.222  19.657  13.808  0.0223 -0.3081  0.1876
17208W        W37488  12.353   5.262   3.257  0.2049  0.0164  0.0369
17209W        W37489   9.863   4.570   2.052  0.1173  0.1212  0.1651
17210W        W37490  17.657   6.410   2.469  0.4570 -0.0046 -0.0499
17211W        W37491  12.330  18.517  13.186  0.2015 -0.1236 -0.0494
17212W        W37492  16.591   5.989  14.059 -0.0825  0.0915 -0.0425
17213W        W37493   6.014   2.489  10.515 -0.0166  0.2313  0.2520
17214W        W37494   8.601  10.684   2.830 -0.3483  0.0985  0.0722
17215W        W37495  11.403  10.007   3.554  0.1621  0.2491 -0.3655
17216W        W37496   1.938  17.573   0.770  0.2197 -0.3806 -0.2573
17217W        W37497  16.040   2.905   2.282  0.0357  0.2873 -0.2118
17218W        W37498  14.816   0.676  12.465  0.1372 -0.0822 -0.2049
17219W        W37499  11.870   1.302  11.470 -0.0512 -0.1855  0.0094
17220W        W37500  19.182  15.112   3.135  0.3080  0.1167  0.1319
17221W        W37501  15.034   0.536   3.375  0.0111 -0.1761  0.2738
17222W        W37502  11.342   1.333   0.903 -0.0109  0.1172 -0.0196
17223W        W37503   1.799  18.536  12.246  0.5244  0.1011  0.0236
17224W        W37504  15.364   9.156   1.983 -0.0202 -0.0550  0.3871
17225W        W37505   3.481  19.317   1.720  0.0676  0.3154 -0.2083
17226W        W37506  10.281  10.274  13.927  0.1140  0.0718 -0.0801
17227W        W37507  17.837  11.469   3.017 -0.0682  0.1824  0.2342
17228W        W37508  15.634  16.429   0.441 -0.0529 -0.1925 -0.1269
17229W        W37509   6.265   5.266   0.910  0.2670 -0.1077  0.0759
17230W        W37510   7.526  10.212   0.186  0.2836 -0.1541  0.0803
17231W        W37511  13.372  18.133   0.529  0.1439 -0.3087  0.0938
17232W        W37512   1.544   0.498   3.040 -0.0085  0.1431  0.3200
17233W        W37513   0.890  18.851  12.665 -0.0813 -0.1612 -0.2861
17234W        W37514  13.311  15.396   2.542  0.0825 -0.1251  0.1540
17235W        W37515   4.791  13.589   3.772  0.1088 -0.3339  0.0004
17236W        W37516   1.843  18.028  11.738  0.1932 -0.0527  0.0333
17237W        W37517  13.505   2.031  12.960  0.1665  0.0001 -0.1011
17238W        W37518   5.123   5.721   1.603 -0.1975  0.1623 -0.0733
17239W        W37519  15.217  12.904  11.392 -0.0433  0.3251 -0.1963
17240W        W37520   1.020  16.312   2.679 -0.0769  0.0622  0.0083
17241W        W37521   5.179   1.067  13.201  0.0732 -0.1273 -0.0398
17242W        W37522  12.618   5.477  13.831  0.1435 -0.1052  0.0662
17243W        W37523   3.585  13.731  11.856 -0.0917 -0.1611 -0.0757
17244W        W37524  12.022   6.100   4.179  0.0639  0.0790 -0.1492
17245W        W37525   1.066   5.012  13.072  0.0426 -0.2344 -0.1061
17246W        W37526  11.977   2.886  10.462  0.0133 -0.0853 -0.1097
17247W        W37527  19.719   6.099   0.771 -0.1443 -0.3793 -0.0307
17248W        W37528   7.746  13.517  12.439 -0.1186 -0.0121 -0.0204
17249W        W37529  14.361  10.253   2.516  0.3350  0.0163  0.0356
17250W        W37530   2.953  16.906   1.831  0.0820  0.2268  0.0168
17251W        W37531  14.474  19.678  11.431  0.0624  0.0968 -0.1299
17252W        W37532   8.883   9.342   0.791 -0.1669  0.0747  0.0587
17253W        W37533   1.972   4.102  11.046  0.0503 -0.1593 -0.0791
17254W        W37534  19.053  12.975  12.760  0.3921  0.1845 -0.1883
17255W        W37535   4.639   5.414   1.050 -0.0722  0.2934 -0.0006
17256W        W37536   7.922   9.334  11.723  0.1170  0.2758  0.0985
17257W        W37537  19.387  19.058  11.052 -0.1253 -0.2735 -0.3873
17258W        W37538  15.760   7.474  13.778 -0.1581 -0.2397 -0.0976
17259W        W37539   0.992   2.703  10.495  0.0911 -0.0564 -0.1463
17260W        W37540   3.600  12.186   3.512 -0.0954  0.0366  0.2477
17261W        W37541  17.583  13.617   0.319 -0.2597  0.3215  0.0605
17262W        W37542   4.846  14.155   2.686 -0.4042  0.5466 -0.0311
17263W        W37543  17.689  15.226   2.245 -0.2107 -0.0165 -0.0573
17264W        W37544  12.799  10.964   1.156  0.1692 -0.0071 -0.2024
17265W        W37545  12.889   7.506   2.329 -0.2681  0.0987  0.0011
17266W        W37546   9.349  11.561  11.918 -0.4088 -0.2152 -0.1911
17267W        W37547  18.330   7.216   1.753 -0.2076  0.2790 -0.3424
17268W        W37548   6.484   0.792   0.694 -0.2433  0.2929  0.1254
17269W        W37549   9.115  15.899   0.591 -0.1210 -0.1688 -0.2490
17270W        W37550  16.260   9.170   1.929 -0.4017  0.2611  0.0547
17271W        W37551  17.816  14.266   9.504 -0.0695  0.0042 -0.1103
17272W        W37552   7.909  12.113   2.622  0.2072  0.0618 -0.4570
17273W        W37553   5.689  12.318  12.813 -0.1435 -0.0460  0.0467
17274W        W37554   4.832  15.660  13.188 -0.1492  0.0254 -0.1006
17275W        W37555  15.295   0.048  10.697  0.0755  0.1538  0.0478
17276W        W37556  17.092  15.557   9.024 -0.2215 -0.1547  0.1376
17277W        W37557   4.927   6.299  11.068 -0.0478 -0.1283  0.0536
17278W        W37558  16.041   7.760   2.543 -0.1866 -0.2190 -0.0004
17279W        W37559   4.153   0.128   0.804 -0.0391  0.0062 -0.0397
17280W        W37560   9.978  19.446  11.880 -0.6596  0.1484 -0.1320
17281W        W37561  10.200   8.803   0.281 -0.2650 -0.2108  0.1844
17282W        W37562   8.248   9.568   0.462 -0.0304  0.1367  0.4931
17283W        W37563   3.445   2.227  10.216 -0.1067 -0.4230 -0.1551
17284W        W37564   3.403   4.934   3.310 -0.0286 -0.1114 -0.0373
17285W        W37565  16.557  11.981  12.168 -0.3276 -0.2375  0.0439
17286W        W37566  15.105   4.014  12.135  0.3867 -0.0211  0.0200
17287W        W37567   8.036   4.566   3.302  0.0798 -0.0395 -0.1046
17288W        W37568   7.864  19.764   4.757 -0.0777  0.0080  0.2443
17289W        W37569  16.333  19.672   4.434  0.0593 -0.0505 -0.1978
17290W        W37570  17.252  19.774   1.095 -0.1121 -0.0792  0.0355
17291W        W37571  18.512  10.745  11.814  0.4137 -0.2266  0.2586
17292W        W37572  18.859   3.832  13.830 -0.0791 -0.0269  0.2171
17293W        W37573  17.654  15.763  13.292 -0.0687  0.1311  0.0430
17294W        W37574  10.789   8.945  13.384  0.1389  0.1350 -0.0105
17295W        W37575  18.444   3.041   1.158 -0.2832 -0.0595 -0.1795
17296W        W37576   4.779   3.204  14.070  0.0078 -0.1203  0.0475
17297W        W37577  10.382   4.265   1.962  0.0317 -0.2558 -0.2315
17298W        W37578   1.287   9.917   4.471 -0.0250 -0.0710 -0.2703
17299W        W37579   2.056   2.484   0.201 -0.3746  0.2152 -0.1264
17300W        W37580  16.067  17.330   2.531  0.2533 -0.0934  0.3756
17301W        W37581  15.272   3.905   2.486  0.2140  0.0296  0.1333
17302W        W37582  15.362   9.696   2.045  0.1029  0.2626  0.2292
17303W        W37583  13.110  10.350  11.083  0.1839  0.1618  0.1182
17304W        W37584   0.312   5.567  13.774  0.3474  0.3019 -0.1510
17305W        W37585  11.867   0.139  13.873 -0.0793  0.2450  0.4672
17306W        W37586  14.024   1.284  11.083  0.4928  0.0493  0.1565
17307W        W37587  17.008   8.712  13.170 -0.0101  0.2718 -0.2983
17308W        W37588   9.933   8.878   0.719 -0.1485  0.1330 -0.1905
17309W        W37589  14.197  16.268   1.051 -0.1684  0.0426 -0.0871
17310W        W37590   2.970  19.383  12.022  0.1691 -0.1293  0.3733
17311W        W37591  11.159   8.098   1.883 -0.1153  0.0159 -0.0415
17312W        W37592  13.571   1.181  12.195  0.1447 -0.0613 -0.1825
17313W        W37593  19.691  12.563   3.866  0.0416 -0.3534  0.0252
17314W        W37594   0.029  13.408  10.829 -0.2730  0.4021 -0.0571
17315W        W37595   9.337   2.037  13.206 -0.0536  0.0833  0.0667
17316W        W37596   3.862   8.627  12.431 -0.5133 -0.1423  0.0571
17317W        W37597   4.569  15.843   4.153  0.2627  0.3833 -0.0268
17318W        W37598  10.408  14.277  11.820  0.1245 -0.4452 -0.2153
17319W        W37599   7.327   8.856   2.929  0.1941 -0.1730  0.2958
17320W        W37600   1.415  13.476   1.420  0.0299 -0.1951  0.1297
17321W        W37601   7.590   0.369   2.359 -0.3246 -0.3089  0.1373
17322W        W37602  11.077   1.782  10.999 -0.1765  0.1447 -0.0635
17323W        W37603  12.188  13.158  13.444  0.0689  0.2356 -0.1100
17324W        W37604  18.460  12.549  11.290  0.0772  0.2163  0.2520
17325W        W37605  11.431   8.112  12.415  0.2846  0.4114  0.0909
17326W        W37606   2.361   8.213  13.239 -0.1386  0.0006 -0.0878
17327W        W37607   5.119  18.464   1.080  0.0029  0.1662 -0.0172
17328W        W37608   5.733  19.362  12.651 -0.0841 -0.0081 -0.5139
17329W        W37609  18.084   9.110   3.612  0.0777 -0.2877  0.0376
17330W        W37610  13.983  19.372   1.191  0.0235  0.1781  0.0740
17331W        W37611  14.072  13.352  11.652  0.1579 -0.0190  0.2196
17332W        W37612   4.418   7.824   0.495  0.1149 -0.0703 -0.1062
17333W        W37613   4.550   3.024   2.149 -0.0538  0.3884  0.0196
17334W        W37614  15.833  11.428   1.690 -0.2092 -0.0493  0.1119
17335W        W37615  10.132   7.634  10.958 -0.2961  0.0268  0.2471
17336W        W37616  11.204   7.547  13.910  0.1632  0.3064 -0.0845
17337W        W37617  18.603  11.240  13.614 -0.3327 -0.1410 -0.0300
17338W        W37618   5.709   0.732  12.533  0.0739  0.1009 -0.2262
17339W        W37619   9.468  18.253  10.991  0.0279 -0.4933  0.0462
17340W        W37620  11.863  18.724   2.250 -0.1861  0.0324 -0.0106
17341W        W37621   9.121  11.051  11.194  0.0401  0.3142 -0.2360
17342W        W37622  16.869  18.752   2.079 -0.0419 -0.1084 -0.0452
17343W        W37623   0.157   8.831   4.906 -0.0590  0.1924 -0.1332
17344W        W37624   8.667   5.143  10.943  0.0157  0.2697 -0.0004
17345W        W37625   5.861   3.071   3.627  0.0503 -0.0963  0.1927
17346W        W37626  17.799   5.816  11.882  0.1321 -0.1171 -0.2175
17347W        W37627   9.478  10.141  10.238  0.1803  0.1170  0.0635
17348W        W37628  14.300  17.021   0.327 -0.0091  0.1404  0.1229
17349W        W37629   9.107   6.152   3.860  0.1203  0.0531  0.0404
17350W        W37630   2.819  14.224  12.423 -0.1592  0.0845 -0.1378
17351W        W37631   1.125  19.395  13.248  0.0156  0.1066  0.3035
17352W        W37632  15.791   3.498  10.627 -0.2626  0.0502 -0.2221
17353W        W37633  11.081   2.798  11.564 -0.3405 -0.0208 -0.1037
17354W        W37634   7.480  14.971   2.654 -0.2622 -0.4493 -0.2343
17355W        W37635  14.439  12.102  11.991  0.0770 -0.2392  0.0359
17356W        W37636   8.749   9.446   3.410 -0.1138 -0.5081 -0.0850
17357W        W37637   1.994   7.717   0.158  0.0577  0.3671 -0.6245
17358W        W37638  12.235   0.019  10.238  0.3134 -0.0486 -0.0710
17359W        W37639  19.173  16.265   3.148  0.0646 -0.0985  0.0087
17360W        W37640   9.780   1.611   2.012 -0.2636 -0.0820 -0.0536
17361W        W37641  16.715  13.663  10.701  0.3496  0.0962  0.1288
17362W        W37642  19.732  12.479   1.371 -0.3127 -0.1561  0.1252
17363W        W37643  18.949  10.576   9.380 -0.0753 -0.4393  0.1930
17364W        W37644  16.380  17.037   2.745 -0.4459  0.2057  0.1373
17365W        W37645  15.297   2.406  11.712 -0.0260  0.0562  0.1855
17366W        W37646  17.346   9.492   1.873  0.0032 -0.0997  0.0132
17367W        W37647  16.625  18.884  14.037 -0.3576 -0.1125 -0.1970
17368W        W37648  18.560   1.997   1.527  0.2213 -0.1477  0.0502
17369W        W37649  11.896   7.207  11.171 -0.3128  0.2006  0.2824
17370W        W37650   9.111  13.238  10.246 -0.1479  0.0524  0.2545
17371W        W37651  12.900   9.612   2.678 -0.0535 -0.0363  0.1694
17372W        W37652   5.124  13.219   0.166  0.3109 -0.1610 -0.0550
17373W        W37653  16.390   6.858  13.254  0.1080 -0.1754 -0.1528
17374W        W37654  16.013  18.019   0.107 -0.0038 -0.0348 -0.2916
17375W        W37655  11.694  18.123   0.842 -0.2149  0.2113  0.0780
17376W        W37656   3.636  12.240   0.513 -0.0535 -0.0358 -0.0016
17377W        W37657  12.669  10.906   4.614 -0.1409  0.0398 -0.2643
17378W        W37658   0.489  15.095   3.759  0.5549  0.2569  0.0141
17379W        W37659  17.300   2.549   1.521 -0.1722 -0.2445  0.0133
17380W        W37660   2.565   8.629   0.108 -0.3586 -0.3963  0.0282
17381W        W37661  10.327  17.724  11.484 -0.2303  0.2970 -0.0755
17382W        W37662   2.766   6.737  13.268 -0.2684 -0.0083  0.0652
17383W        W37663  13.325  18.456  12.783  0.1105  0.1096  0.1976
17384W        W37664   9.305   3.333  11.494 -0.0242 -0.2584 -0.0185
17385W        W37665   8.591   8.808   3.996  0.1998 -0.0363  0.2612
17386W        W37666  10.299  12.517  13.756  0.0083  0.2169  0.1047
17387W        W37667   8.471  15.643  13.393  0.2084  0.1232  0.0623
17388W        W37668   4.533  11.176   0.215 -0.2946  0.2370 -0.0173
17389W        W37669   0.093  17.444   1.810  0.2138  0.1465  0.2174
17390W        W37670   2.049   2.807  12.189  0.0157  0.0720 -0.3604
17391W        W37671   1.883   0.842   3.207  0.0313 -0.2621 -0.0030
17392W        W37672   6.480  16.140  10.503 -0.3256  0.0384  0.1201
17393W        W37673  14.934   6.080   2.711 -0.0162  0.3339 -0.1853
17394W        W37674   0.378   2.521  12.670 -0.2653 -0.2402  0.1244
17395W        W37675   9.341  16.824  10.377  0.1175 -0.1199 -0.1046
17396W        W37676   6.179   3.890  11.972 -0.4803 -0.0648  0.0272
17397W        W37677  18.420   2.422  11.915 -0.0828  0.0434  0.3977
17398W        W37678  18.261   4.056   1.093  0.0999 -0.3008  0.2473
17399W        W37679   5.551   2.750   3.999  0.2085 -0.3140  0.1002
17400W        W37680  11.374  17.611  13.432  0.0502  0.2428  0.2540
17401W        W37681   8.988   0.386   0.803  0.1674  0.0162  0.0641
17402W        W37682   8.939  14.717   2.207 -0.1764  0.0343 -0.3392
17403W        W37683   5.862   2.630  11.114 -0.2025  0.0176 -0.0439
17404W        W37684  13.486  16.074  10.598 -0.2353 -0.0250 -0.0864
17405W        W37685   5.819  12.183  11.588 -0.1104 -0.0122  0.0944
17406W        W37686  19.418  12.257   2.144  0.0060  0.1085 -0.2031
17407W        W37687   5.243   1.419  13.597  0.0883  0.2324  0.0899
17408W        W37688   6.318   7.002  12.684  0.1378 -0.1298 -0.1376
17409W        W37689  15.212  18.822   9.096 -0.2916 -0.0863 -0.0720
17410W        W37690  11.697  19.251  11.765  0.2510  0.0043 -0.3143
17411W        W37691   6.308  13.971  11.343 -0.1110  0.0839 -0.0846
17412W        W37692  13.672   4.235   1.230 -0.1376 -0.2255  0.1452
17413W        W37693   7.476   5.870   1.715  0.0347  0.0105 -0.1865
17414W        W37694   0.153   7.637  13.590 -0.0227 -0.2110 -0.2975
17415W        W37695  16.025  14.185   0.948  0.0297 -0.2957  0.1842
17416W        W37696   9.106  17.831   4.340  0.1040  0.2144  0.2379
17417W        W37697   6.083  18.189  13.698 -0.2429 -0.0962  0.1395
17418W        W37698   8.521   0.963  13.429 -0.0216 -0.0183 -0.2214
17419W        W37699   0.547  17.056   3.180 -0.1128 -0.2657 -0.0029
17420W        W37700  18.171   2.797   2.590  0.3430  0.2679  0.1144
17421W        W37701   8.737   8.950  12.246  0.1417 -0.1783  0.4505
17422W        W37702  13.941  14.177  12.869  0.0573 -0.1456  0.1675
17423W        W37703  12.136   5.635  12.194 -0.4727  0.0648  0.0109
17424W        W37704   2.328   4.663   2.906 -0.0044  0.0629 -0.2121
17425W        W37705   0.265   4.473  10.512  0.1361 -0.0016  0.1740
17426W        W37706  10.208  13.956   3.925 -0.1022  0.1975 -0.1610
17427W        W37707  14.189   0.866  12.596 -0.0818  0.1006  0.1455
17428W        W37708  10.890   8.589   1.613 -0.1996 -0.2055 -0.1283
17429W        W37709  12.747   3.369   3.656 -0.0778 -0.2001  0.0061
17430W        W37710  18.310   9.877   2.987 -0.1201  0.1125 -0.1169
17431W        W37711   7.051   0.898  12.350 -0.0816  0.0126 -0.4307
17432W        W37712  19.035   7.176   0.266  0.0265  0.1382  0.0144
17433W        W37713   0.877  13.750  13.050  0.0970 -0.0786 -0.1732
17434W        W37714   2.868  13.060   0.525  0.3128  0.2070 -0.0124
17435W        W37715  10.797   0.504   2.411  0.0620 -0.0511 -0.0121
17436W        W37716   6.522   0.267   1.961  0.0979  0.0055  0.0345
17437W        W37717   4.554   6.747   0.488  0.0655  0.0096  0.0452
17438W        W37718   3.510   7.096   3.074 -0.0335  0.2440 -0.0986
17439W        W37719  15.557  18.803   3.300  0.1981  0.0945 -0.0535
17440W        W37720   8.140  19.714  12.828  0.0323  0.3936 -0.1015
17441W        W37721   2.733  11.161  12.825 -0.1299 -0.3755 -0.1005
17442W        W37722   2.483   0.033   0.587  0.0556 -0.0511 -0.2612
17443W        W37723  11.881  10.558  13.260 -0.0375  0.0120  0.2830
17444W        W37724  17.652   6.842  12.560 -0.1358  0.2894 -0.2658
17445W        W37725   3.241  14.607   3.727  0.2212  0.1916 -0.1335
17446W        W37726   8.895  11.282   1.312  0.1841 -0.1853 -0.0840
17447W        W37727  15.706   2.208   0.602  0.0928 -0.0666 -0.0389
17448W        W37728  10.282   4.039   8.865  0.0494 -0.1408 -0.1476
17449W        W37729  17.426   8.188  10.500  0.0374  0.0609  0.0019
17450W        W37730  17.693  19.016   0.877 -0.0700 -0.2419 -0.2236
17451W        W37731   6.824   6.713  13.871 -0.3602  0.1064 -0.0357
17452W        W37732  15.218  10.110  13.084  0.3930 -0.3853  0.0072
17453W        W37733  16.171  15.657   2.944  0.4165 -0.2438  0.0152
17454W        W37734   0.902  17.306  13.223 -0.0540 -0.1542  0.2541
17455W        W37735  11.803  17.363   0.187 -0.2371  0.1267 -0.2707
17456W        W37736   5.040   8.042  11.761  0.1311  0.1377  0.1255
17457W        W37737  17.401  11.909   2.238  0.1490 -0.0170 -0.0772
17458W        W37738  13.181   4.597  10.872 -0.1281  0.1940 -0.0120
17459W        W37739   5.811  13.719   3.572  0.1804  0.0826  0.1787
17460W        W37740   2.638  12.500   1.818  0.2108  0.4092 -0.1168
17461W        W37741   8.879   9.428   2.439  0.5458 -0.1140 -0.1793
17462W        W37742  13.369  17.188  12.948  0.2229  0.0159  0.2274
17463W        W37743   7.119  19.401  11.630  0.1170 -0.0076 -0.0006
17464W        W37744  18.348  14.984   1.959 -0.3727  0.3111 -0.2565
17465W        W37745   1.069  17.134   0.400  0.0153  0.0288  0.2158
17466W        W37746   8.518   1.519  13.342  0.0435  0.0604  0.1412
17467W        W37747   9.243  12.441   9.378 -0.0891 -0.0559 -0.0157
17468W        W37748   3.903  18.452   1.819 -0.1458 -0.0336  0.0252
17469W        W37749   9.354  15.720   9.458  0.5044  0.1243  0.1799
17470W        W37750   7.877   8.121   0.179 -0.2179  0.1334  0.1235
17471W        W37751   1.020   5.343   4.378  0.2647  0.1472  0.1356
17472W        W37752  16.044  19.468   1.030 -0.1081  0.1594  0.0722
17473W        W37753   0.538  10.997   3.418  0.2027 -0.2887 -0.1608
17474W        W37754  18.971  12.902   1.652 -0.0411 -0.1814 -0.1480
17475W        W37755  11.113   7.600  12.742  0.0562  0.1779 -0.2997
17476W        W37756  12.211  18.690   1.370 -0.3775  0.0112 -0.0077
17477W        W37757   0.744  15.079  10.737 -0.0766 -0.2669 -0.1935
17478W        W37758   9.894  12.194   5.044 -0.0565  0.1552 -0.1707
17479W        W37759   1.656  11.206  11.453  0.1020 -0.1713 -0.0589
17480W        W37760  19.585  12.154   4.124  0.0231  0.2386 -0.0252
17481W        W37761   1.854  12.838  10.987  0.0308 -0.0502  0.3167
17482W        W37762   3.600   2.474  12.784 -0.2098  0.3275 -0.2049
17483W        W37763  18.940  11.392   2.386  0.0588  0.1469  0.0642
17484W        W37764  13.702   3.614   1.778 -0.1098 -0.2253  0.0754
17485W        W37765  19.061  14.410   1.072 -0.0372 -0.2074 -0.0006
17486W        W37766   4.126  12.370  11.804  0.1097 -0.1141  0.2833
17487W        W37767   5.909  10.634   2.235 -0.1284 -0.4418 -0.2020
17488W        W37768  11.952  17.515   2.856 -0.0383  0.0948  0.0662
17489W        W37769   0.135  13.885   3.812  0.1536 -0.4204  0.1098
17490W        W37770  16.446  17.375   3.415 -0.1269 -0.0744  0.0933
17491W        W37771   4.299  12.202   3.660 -0.1213 -0.0361 -0.4599
17492W        W37772  14.346  12.018   2.009  0.0293  0.0512  0.1255
17493W        W37773  15.472   8.380   0.227 -0.1685  0.1418  0.0969
17494W        W37774  16.529   8.686   2.839  0.2286  0.1577  0.0404
17495W        W37775  14.086  13.161  13.199 -0.0178  0.3023  0.0275
17496W        W37776  18.862   4.843  11.635  0.1311  0.2874 -0.1859
17497W        W37777   9.637  19.781  12.060  0.2962 -0.0526  0.0311
17498W        W37778   7.542  19.553  11.828 -0.4232 -0.3296 -0.1288
17499W        W37779  18.352   5.188  10.636 -0.1022  0.0786  0.1788
17500W        W37780  14.533  12.955   2.140 -0.1600 -0.1128  0.1685
17501W        W37781  13.708  15.111  10.018 -0.0107  0.0751  0.0899
17502W        W37782  18.832  17.770   3.517  0.3357 -0.3924 -0.2190
17503W        W37783   4.883  19.588  12.106  0.0931 -0.0462  0.1722
17504W        W37784  18.980   6.803  11.795 -0.1061 -0.2673  0.1513
17505W        W37785   0.726   1.430  10.320  0.0038  0.0992  0.1651
17506W        W37786  10.740   5.684  13.682  0.0290 -0.0561 -0.0018
17507W        W37787  15.600   8.666   1.961  0.0973  0.1248  0.1893
17508W        W37788  15.718  15.995  13.884  0.1091  0.1922 -0.3520
17509W        W37789  10.130  11.245   0.961  0.3783  0.0758 -0.1206
17510W        W37790  12.655  15.089  11.633  0.3186 -0.0070  0.0450
17511W        W37791  10.496  11.906   1.871  0.0985 -0.0907  0.2012
17512W        W37792  17.198   7.803  13.462  0.0253 -0.3598 -0.0550
17513W        W37793  13.359  15.011  13.094 -0.1185 -0.0960 -0.1558
17514W        W37794   9.172   3.663  13.397  0.1713  0.1579  0.0548
17515W        W37795  10.012   7.090  11.328 -0.0672 -0.1575  0.2118
17516W        W37796  12.299  15.693  12.879  0.3782  0.0650  0.1429
17517W        W37797  11.736   8.994  10.219 -0.0526  0.0264  0.0548
17518W        W37798  14.354  12.891  14.011 -0.1208  0.2747  0.1185
17519W        W37799  17.505  10.244  12.523 -0.0545  0.2627 -0.0009
17520W        W37800   0.597   1.096   2.373  0.2787 -0.3407 -0.0398
17521W        W37801   7.751   3.490  12.156 -0.0543 -0.1902  0.0177
17522W        W37802   1.314  12.671   3.953  0.1009 -0.0294 -0.2636
17523W        W37803  11.134   7.817  11.912 -0.1735  0.3352 -0.0364
17524W        W37804  13.321  12.551   0.330 -0.0941 -0.1987  0.0175
17525W        W37805   6.607  13.476  13.292  0.1304 -0.2048  0.1036
17526W        W37806  18.550   9.494  10.547 -0.0394 -0.0185  0.0263
17527W        W37807  18.649   0.547   2.316  0.0496  0.0101  0.1106
17528W        W37808   6.603  19.239  11.346 -0.1580 -0.0008  0.3177
17529W        W37809  15.092  17.963  12.947  0.4108 -0.1693 -0.1784
17530W        W37810  16.061   6.925   2.876  0.0914  0.2268 -0.0552
17531W        W37811  14.412   5.644   1.231 -0.0229  0.1258 -0.0600
17532W        W37812  19.143  10.995   4.199 -0.0291  0.0996 -0.3095
17533W        W37813  10.602  13.982   3.586  0.1470 -0.1347 -0.2265
17534W        W37814  13.675  10.751   2.489  0.1395  0.0732 -0.2329
17535W        W37815  14.584   6.373   0.481 -0.0260 -0.3717 -0.1173
17536W        W37816  19.133   7.981   0.815  0.3171  0.2506  0.3545
17537W        W37817   3.778  17.850   2.645  0.1039 -0.2342 -0.1399
17538W        W37818  11.432  11.785   1.515  0.2321  0.0533  0.1522
17539W        W37819   1.539   9.037   2.242  0.0789 -0.0382 -0.0925
17540W        W37820   2.715   2.992   2.904  0.2470 -0.0174 -0.3362
17541W        W37821  10.998  14.773  10.843  0.1187  0.2114 -0.0531
17542W        W37822   7.284   6.980   9.429 -0.2056  0.1387  0.2909
17543W        W37823   2.443  14.907  10.484  0.1903 -0.1462 -0.3347
17544W        W37824  11.802  12.090  10.888 -0.0486  0.0623  0.0805
17545W        W37825   7.881   7.944  11.413 -0.0619 -0.3715  0.2463
17546W        W37826  17.189  19.170  11.360  0.2579  0.1600  0.2043
17547W        W37827  12.750   2.158   3.905  0.0667 -0.0600  0.3056
17548W        W37828  13.794   9.749   1.448  0.0748  0.2086  0.0046
17549W        W37829   9.279  15.607  12.286 -0.0665 -0.1380  0.3786
17550W        W37830  16.209   5.334  13.517 -0.1599  0.0244 -0.0035
17551W        W37831  15.635   2.362  13.483 -0.0769 -0.1416 -0.0961
17552W        W37832  12.973   3.856  13.675 -0.0954 -0.0894 -0.1002
17553W        W37833  10.358   4.220   0.756 -0.2990 -0.0914 -0.1297
17554W        W37834  15.354   4.208   0.558  0.0906  0.2226  0.0957
17555W        W37835   2.856   2.588   4.859 -0.2165 -0.0869  0.3116
17556W        W37836   1.628   9.937   1.742  0.0292 -0.0394  0.5368
17557W        W37837  13.520  19.723  12.864  0.2275  0.1212  0.1192
17558W        W37838  17.933  14.091  12.241 -0.2938  0.4460 -0.0598
17559W        W37839  11.843   9.683  12.406 -0.3052  0.1437 -0.0778
17560W        W37840   7.849   5.854  13.041 -0.3523  0.0044 -0.3527
17561W        W37841  18.984  19.488  11.736  0.2371 -0.1136  0.1359
17562W        W37842  13.687  13.118   4.584 -0.1757  0.3442  0.1468
17563W        W37843   2.053  10.172  13.418 -0.0804  0.0840  0.2559
17564W        W37844  16.183  12.715   1.473  0.0285  0.0128 -0.0532
17565W        W37845  12.206  13.253  11.202  0.1641  0.1418  0.1090
17566W        W37846  13.251  19.286  12.415 -0.0285  0.1018 -0.2696
17567W        W37847  18.254  12.176   1.363 -0.3447  0.3882  0.0003
17568W        W37848   7.134  11.227  13.174  0.0375  0.3494 -0.0776
17569W        W37849  16.477   8.763   0.719  0.0471  0.1668 -0.1751
17570W        W37850  14.648  18.118   3.182 -0.0500 -0.0872  0.1409
17571W        W37851  16.688   2.568  13.255 -0.0874 -0.1767 -0.0486
17572W        W37852  17.859  10.198   1.741 -0.0338 -0.1490  0.2707
17573W        W37853   2.804  11.657   2.478 -0.4622  0.1311  0.4043
17574W        W37854   9.458  15.789  12.735  0.0949 -0.3058  0.0040
17575W        W37855   3.273   4.732   1.462 -0.1204  0.1598  0.0642
17576W        W37856   4.170  12.502  13.113 -0.2725  0.2072  0.0885
17577W        W37857   3.919   7.787   0.531 -0.1707  0.2921  0.1723
17578W        W37858   5.716  19.018   3.750 -0.1557  0.0992 -0.0208
17579W        W37859   2.717   8.260  10.431 -0.2954 -0.2683  0.1750
17580W        W37860  13.983  15.845  11.798 -0.2139 -0.2695  0.3514
17581W        W37861   8.403  18.823  11.494  0.0399  0.3720 -0.0479
17582W        W37862   3.574   6.117   4.183 -0.0645  0.0707  0.0173
17583W        W37863   8.715  16.958   1.052  0.0994 -0.0668  0.3388
17584W        W37864  17.751   7.650   1.125 -0.0409  0.2784 -0.0530
17585W        W37865   7.707  15.710   3.164  0.3468 -0.1645 -0.2881
17586W        W37866   2.117   7.655   3.800 -0.3831 -0.0159  0.1766
17587W        W37867  12.059  19.024   1.807  0.0367 -0.0331 -0.1856
17588W        W37868  13.463   7.168   1.951  0.0724 -0.1788 -0.1317
17589W        W37869   2.228  13.758   0.328  0.2669 -0.1039  0.3505
17590W        W37870   9.267  16.282  13.982 -0.0850  0.3823 -0.1444
17591W        W37871   2.698  19.323  11.534 -0.1974  0.1393 -0.1958
17592W        W37872   4.294   8.271   2.780 -0.1319  0.3755 -0.0562
17593W        W37873   7.723   8.638   0.046  0.2155  0.2138 -0.0432
17594W        W37874  15.539  18.945  10.847  0.0514  0.2262  0.1290
17595W        W37875   0.226  10.022   2.998  0.2740 -0.1130 -0.1227
17596W        W37876  10.577   5.844   1.025  0.0522 -0.0134  0.2199
17597W        W37877  13.128  14.538   2.039 -0.0582 -0.1085  0.1251
17598W        W37878   2.263   2.685  12.696 -0.0412  0.1242  0.2181
17599W        W37879  14.136  10.740  11.597 -0.0790  0.2318  0.0895
17600W        W37880  16.814  18.490   0.197  0.2426  0.2299  0.0994
17601W        W37881   0.050  17.653   0.903  0.1760 -0.0409  0.4566
17602W        W37882   9.153   8.670   3.896 -0.0430  0.2917  0.1031
17603W        W37883   9.733  11.037   2.661 -0.1522  0.0929 -0.0554
17604W        W37884  16.326   6.128   3.253 -0.0921 -0.1098  0.0119
17605W        W37885  17.831  12.806   3.428 -0.1418 -0.0978 -0.2800
17606W        W37886   9.633   3.891  13.262  0.2945 -0.0162 -0.0087
17607W        W37887   2.223   6.400  12.024  0.0895 -0.1572 -0.0959
17608W        W37888  13.489   5.825  11.596  0.1405 -0.3868 -0.0917
17609W        W37889  13.508  18.213   1.780 -0.0527 -0.0646  0.0871
17610W        W37890  19.686  14.084  12.879 -0.0056  0.2766  0.0872
17611W        W37891  17.117   5.056   9.450  0.3652 -0.0956 -0.1954
17612W        W37892  19.066  10.771  11.669  0.3548  0.2549  0.0482
17613W        W37893  19.513   8.792   2.608  0.1528 -0.0669 -0.2521
17614W        W37894   5.898  18.479   3.815 -0.2343 -0.2352 -0.3409
17615W        W37895  18.459  12.725   2.522 -0.0567  0.1152 -0.1104
17616W        W37896   7.548   5.431  13.075 -0.2188 -0.0350 -0.0734
17617W        W37897   2.118  14.681   2.633  0.3809  0.1330  0.3700
17618W        W37898   4.779   3.487  11.073  0.0067  0.0574 -0.2084
17619W        W37899   2.771  11.164  11.152 -0.1127 -0.0639  0.1256
17620W        W37900   1.727   6.181  11.880 -0.0800 -0.0637 -0.3698
17621W        W37901  12.147  14.671   3.223  0.3590  0.1452 -0.2780
17622W        W37902   4.649   0.220   3.148  0.2484  0.1744 -0.0394
17623W        W37903   6.501  11.737   4.175  0.0662 -0.0379 -0.3259
17624W        W37904   2.257   9.499  10.195 -0.1270  0.1378  0.0996
17625W        W37905  18.185  16.447   1.787 -0.1527  0.0227  0.0196
17626W        W37906   3.410  14.016  12.331 -0.1712 -0.0162 -0.1589
17627W        W37907  16.798   9.876  10.813 -0.1369  0.0974 -0.1162
17628W        W37908  10.506   9.153  11.337 -0.1090  0.2054 -0.1972
17629W        W37909  17.005   8.775   2.941  0.1013  0.5546  0.0963
17630W        W37910  16.498  17.864  10.318  0.3295 -0.0341 -0.0474
17631W        W37911  18.493   0.425  12.838  0.1277  0.1458  0.0950
17632W        W37912  17.211  15.628  11.737  0.2163 -0.1483 -0.0884
17633W        W37913  12.439   9.208   1.598 -0.0584 -0.0885 -0.1841
17634W        W37914   9.155   5.389  12.912  0.0453 -0.2486 -0.0018
17635W        W37915   2.492   2.048  11.677 -0.0896 -0.1817  0.3148
17636W        W37916   7.807  13.823   2.483  0.0264  0.2363 -0.0433
17637W        W37917   0.784   8.284  11.602 -0.2530 -0.2753  0.1817
17638W        W37918  12.630  17.819  10.047 -0.0443  0.2463  0.0005
17639W        W37919   3.489   2.190  13.634 -0.2149 -0.2438  0.1665
17640W        W37920   0.359   7.526  14.075 -0.1043  0.0029 -0.1223
17641W        W37921  13.998   7.410   0.181 -0.1380  0.1634  0.1023
17642W        W37922   5.565   0.256  13.297  0.1416 -0.1946 -0.2971
17643W        W37923   1.694  12.911   3.806 -0.1006 -0.0068  0.4782
17644W        W37924  13.566  15.091  13.765 -0.2221  0.0591  0.2062
17645W        W37925   2.899  19.694   3.655 -0.0936  0.1414  0.0128
17646W        W37926  10.803   1.001   2.359 -0.0428  0.2070 -0.0900
17647W        W37927  17.516  10.253   0.662  0.0069  0.3542  0.1724
17648W        W37928  14.486   7.461   0.550  0.0597 -0.0659 -0.1100
17649W        W37929  15.418  14.305   3.604 -0.1015  0.0732  0.1139
17650W        W37930   6.949   7.942   9.985  0.2845 -0.1972 -0.2296
17651W        W37931   7.360  15.651   1.474 -0.2643 -0.0107  0.3135
17652W        W37932   0.017  19.330  11.136 -0.0355 -0.1293 -0.1122
17653W        W37933  19.402  13.918   3.661 -0.0576 -0.4454 -0.1251
17654W        W37934  12.908   3.424   0.108 -0.0462 -0.0730  0.1660
17655W        W37935  17.396  13.070  13.070  0.3276  0.1946 -0.2223
17656W        W37936   5.372  12.835   9.778 -0.3576  0.0263  0.2780
17657W        W37937   5.997  12.857   1.632 -0.0093  0.1883 -0.1951
17658W        W37938  13.657   0.209   1.554  0.0118  0.2040  0.0431
17659W        W37939  18.752  15.069   2.316  0.0170  0.0373  0.0404
17660W        W37940   2.214  14.283   0.593  0.4061  0.0020  0.1719
17661W        W37941   6.809  17.490  13.395 -0.0206  0.0681  0.0373
17662W        W37942  14.814   7.766  11.001 -0.0882  0.0275  0.0778
17663W        W37943   7.561  12.459  10.904  0.1836 -0.2303  0.0567
17664W        W37944   5.633   9.830   0.702 -0.0240  0.1670 -0.0951
17665W        W37945   2.316  10.606  12.598  0.1560 -0.2065  0.5242
17666W        W37946   1.864  17.216  10.642 -0.2751  0.0591  0.4365
17667W        W37947   8.279   5.591  10.062 -0.0254  0.0904 -0.0835
17668W        W37948   7.633   3.793  10.222  0.1846 -0.0001  0.1161
17669W        W37949   3.342  10.503  12.514 -0.0834 -0.1741  0.2845
17670W        W37950  16.745  18.262   2.233  0.1946  0.1976 -0.1134
17671W        W37951   0.440   2.818  13.114 -0.3310 -0.1938 -0.0525
17672W        W37952   7.608   5.310   3.568 -0.0232 -0.0489  0.0595
17673W        W37953   2.422   1.957   3.161 -0.3031  0.1600  0.0854
17674W        W37954   0.881  15.937  13.853 -0.1626  0.2900  0.0344
17675W        W37955   2.834  12.097  12.668 -0.3414  0.1731  0.0407
17676W        W37956  17.453   6.421   0.509 -0.2118  0.1296 -0.0427
17677W        W37957   2.702   4.346   2.724  0.3835  0.2800 -0.1196
17678W        W37958   7.043   8.455   3.915 -0.2919 -0.1261 -0.0671
17679W        W37959   2.312   5.675   3.991  0.2071 -0.2883 -0.0717
17680W        W37960  19.155   1.542   3.241  0.2614  0.1497  0.0230
17681W        W37961  11.715  14.644   4.414 -0.5862 -0.1251  0.0819
17682W        W37962  10.630   4.725  11.618  0.0491  0.1463  0.0341
17683W        W37963   1.144  15.409   1.006  0.0120 -0.1590 -0.0408
17684W        W37964   2.034   0.782   0.590  0.1644  0.1749 -0.1480
17685W        W37965   6.708  10.456   2.762  0.0051 -0.1502  0.1813
17686W        W37966  12.648  17.950  13.957 -0.2769 -0.0422 -0.1168
17687W        W37967  12.426  18.796   3.121  0.1417  0.1384  0.2007
17688W        W37968  17.777  14.840  13.737  0.0453  0.0877 -0.1385
17689W        W37969   3.664   1.775   0.278 -0.0593 -0.0084 -0.3503
17690W        W37970  17.112  13.028   1.578  0.1568 -0.0131 -0.1527
17691W        W37971  10.037  17.908   3.016 -0.2238 -0.1163 -0.2671
17692W        W37972   9.346  16.651  12.353  0.1367  0.0450  0.2706
17693W        W37973   8.361   5.797  12.295 -0.0083  0.3203  0.1079
17694W        W37974   0.190   7.291  12.739  0.0072  0.0540 -0.2407
17695W        W37975  15.304  16.467  11.404  0.0371  0.1028  0.0089
17696W        W37976  11.653   3.438   1.295  0.1148  0.1300  0.2737
17697W        W37977  18.485   8.283  12.946 -0.1239 -0.2831 -0.0429
17698W        W37978  12.039   0.826  13.063  0.2869  0.1321 -0.1250
17699W        W37979  12.212   1.330  12.763 -0.3609  0.1565  0.0226
17700W        W37980  18.319  19.125   1.006 -0.2684 -0.2255 -0.0977
17701W        W37981  10.896  15.051  11.859  0.1873  0.0364 -0.1423
17702W        W37982  16.216  18.422   1.029  0.0907 -0.0567 -0.1711
17703W        W37983  13.088  11.687  12.258  0.0441  0.0194  0.1942
17704W        W37984   8.654  17.540  12.564  0.0005  0.0486  0.1727
17705W        W37985  17.026   5.798  13.133  0.0839 -0.0219  0.0324
17706W        W37986   9.321   2.844  12.280  0.0586  0.0797 -0.5793
17707W        W37987   3.524  19.076  10.506  0.1663 -0.1522  0.1286
17708W        W37988   1.398  18.492   3.684  0.1884  0.1205 -0.1921
17709W        W37989   8.846   3.470  10.230 -0.0680 -0.0922 -0.0346
17710W        W37990  18.986  15.578  10.780 -0.1188 -0.2081  0.0610
17711W        W37991  11.222  13.244   0.480 -0.2016 -0.1445  0.0311
17712W        W37992  18.499  12.343   2.987 -0.3397  0.1180 -0.3758
17713W        W37993   1.227  13.796  13.541 -0.1337 -0.3492 -0.1430
17714W        W37994   4.052   4.243  13.850 -0.0001 -0.1634  0.0693
17715W        W37995   7.405  14.574  14.086 -0.3331  0.0799 -0.0926
17716W        W37996   5.422  13.294   9.874 -0.1405 -0.0146 -0.0114
17717W        W37997  18.440  17.681  10.963  0.0419  0.2892 -0.0519
17718W        W37998  11.891   9.180   2.278 -0.0772  0.2235 -0.0613
17719W        W37999   4.843  14.434   1.326 -0.3117 -0.1256  0.0055
17720W        W38000  19.529  14.422  10.962 -0.0962  0.2429  0.0756
17721W        W38001  18.970   5.255   3.490  0.1461 -0.0325 -0.1356
17722W        W38002  19.438  16.161   2.631  0.0343 -0.0516 -0.2489
17723W        W38003   8.404   1.446   0.172  0.1365  0.0921 -0.2251
17724W        W38004  13.977  13.927   3.441 -0.3060  0.3306 -0.0374
17725W        W38005  10.571  10.169   2.961  0.1997 -0.1083  0.0671
17726W        W38006   4.211  18.364   1.451  0.0993  0.3346 -0.0555
17727W        W38007   6.047   7.132  11.224  0.2901 -0.1856 -0.1750
17728W        W38008  12.398   5.243  12.868 -0.0622  0.0498  0.2159
17729W        W38009  11.541   6.665   2.882  0.3642 -0.2229  0.2447
17730W        W38010  17.355   7.261  12.469  0.0958  0.3575 -0.2012
17731W        W38011   1.126  17.045   9.406  0.0623 -0.4172 -0.3382
17732W        W38012   2.514   5.476   0.689 -0.0707 -0.0503  0.2260
17733W        W38013  19.367  12.062   1.084 -0.4630 -0.4525 -0.3214
17734W        W38014   4.555  11.178   2.146 -0.3339  0.0809 -0.2695
17735W        W38015  12.943   6.262   1.354  0.1863  0.1432  0.1500
17736W        W38016  14.829  14.994   1.258 -0.1072  0.1059 -0.1834
17737W        W38017  17.189   1.826  12.162  0.1307  0.0695  0.0690
17738W        W38018  11.898  15.842   9.599 -0.0288 -0.0948  0.2719
17739W        W38019  16.865   4.179  11.140  0.2547  0.2347  0.1092
17740W        W38020  13.875   1.932   0.293 -0.1302 -0.0850  0.0394
17741W        W38021   2.839   9.003   3.222  0.1529 -0.0436 -0.0063
17742W        W38022   4.976   1.874  12.490 -0.1342  0.0610 -0.0310
17743W        W38023   6.418  18.302   3.808 -0.1222 -0.1838 -0.1698
17744W        W38024   2.869  13.093  14.021  0.2310 -0.1070 -0.0244
17745W        W38025   6.066  18.023   2.035  0.2890 -0.1017  0.0334
17746W        W38026  16.990   5.817  12.343 -0.1424 -0.1678  0.2360
17747W        W38027   4.294   4.549   1.709  0.2666 -0.2142  0.1682
17748W        W38028  13.038  13.057  11.187 -0.1391 -0.2545 -0.1264
17749W        W38029   6.054  16.847   3.943  0.0624 -0.1114  0.1659
17750W        W38030  18.753  13.754   2.241  0.0508 -0.1716 -0.0990
17751W        W38031  11.500  16.102  12.751  0.0768 -0.1863  0.1091
17752W        W38032   7.760  11.402  12.937  0.0801 -0.0198 -0.0853
17753W        W38033  19.637  12.652  12.286 -0.2533  0.0633 -0.2387
17754W        W38034   7.328  12.011   0.497  0.2167 -0.1540 -0.0826
17755W        W38035   1.277   4.370  13.087  0.1393 -0.1871  0.0308
17756W        W38036  12.179  10.409   2.478 -0.1986 -0.4234 -0.1412
17757W        W38037  10.286   9.889   3.338  0.0630 -0.3733 -0.1884
17758W        W38038   6.967   9.910  12.624 -0.0702  0.1229 -0.0894
17759W        W38039  12.873   1.088   0.442 -0.1674  0.1175  0.2215
17760W        W38040   0.660   3.368   3.595  0.1917 -0.0262  0.0198
17761W        W38041  14.401  13.075   2.592 -0.1436  0.2505 -0.0201
17762W        W38042  16.987  14.695  13.140 -0.0625 -0.4009  0.0569
17763W        W38043   9.424  17.372  12.832 -0.1002 -0.0887  0.1454
17764W        W38044   2.322   9.182   0.475  0.1067 -0.2749  0.3402
17765W        W38045   3.070   4.980  12.582 -0.1011 -0.0472 -0.0384
17766W        W38046  10.641  17.426  11.177 -0.1059 -0.0488 -0.2159
17767W        W38047  10.452   4.901   1.438  0.0054 -0.2595  0.0610
17768W        W38048   9.893   7.180   4.069 -0.0827 -0.1214  0.2744
17769W        W38049  17.178   3.312   1.645 -0.2267 -0.1010 -0.0145
17770W        W38050   0.427   6.213   3.270  0.4633  0.0010  0.0890
17771W        W38051  17.797   6.870  10.688  0.3197 -0.1263  0.1351
17772W        W38052   9.881  16.530  10.312 -0.4487  0.1188 -0.0149
17773W        W38053   0.613   4.419   3.428 -0.2312 -0.3374  0.2354
17774W        W38054  15.910  17.187   1.007  0.0441 -0.0029  0.0673
17775W        W38055   9.483  17.905   0.630 -0.3871 -0.3098 -0.0840
17776W        W38056   5.301   8.148   3.590  0.0301  0.3114 -0.0719
17777W        W38057   0.877  10.081   1.139  0.1087  0.1809  0.0538
17778W        W38058   2.696   4.605  10.394 -0.1124  0.0239 -0.2414
17779W        W38059  18.805  15.087  10.886  0.1667 -0.0708  0.0008
17780W        W38060   7.448   3.638   3.329 -0.0439 -0.0641  0.0541
17781W        W38061   7.616   7.830   1.674  0.1701 -0.0481 -0.1443
17782W        W38062   8.168  11.114   2.728  0.1747  0.0213  0.0457
17783W        W38063  17.622  10.610  10.407 -0.1311  0.1914 -0.1600
17784W        W38064   1.310  14.890   3.133 -0.1213  0.0762  0.0065
17785W        W38065   8.570   6.678   0.592  0.2563 -0.1553 -0.4323
17786W        W38066   6.942  13.853   1.740 -0.2943  0.1509  0.1574
17787W        W38067  17.001   9.804   0.070  0.2310 -0.2272  0.2503
17788W        W38068   0.083  12.378   2.749  0.0248  0.2432 -0.5109
17789W        W38069  12.219   7.190   2.898 -0.0058 -0.1700 -0.1292
17790W        W38070   7.990   7.444  13.169  0.2189  0.1241 -0.1108
17791W        W38071   3.530   7.141   1.562 -0.1777  0.0744  0.0736
17792W        W38072   2.771   8.963   4.425 -0.1530 -0.0570  0.0982
17793W        W38073  13.637   5.198  13.596  0.0631 -0.0846  0.0688
17794W        W38074  11.843   4.349   1.779 -0.3697  0.1358  0.1453
17795W        W38075   1.163  10.574   1.211  0.1335  0.1988  0.2696
17796W        W38076  17.817  15.213  10.957 -0.2220  0.1658 -0.0692
17797W        W38077   7.370   2.647   0.601  0.4028 -0.2042 -0.0236
17798W        W38078   3.259  10.102   1.175  0.0625  0.2251 -0.0263
17799W        W38079  18.121  14.759   0.079  0.0044  0.1892 -0.0565
17800W        W38080   5.632   3.592   1.513  0.0876 -0.0960  0.2985
17801W        W38081   8.002  18.653  12.751 -0.0783  0.1598  0.0904
17802W        W38082  11.305  11.383   4.061  0.0533 -0.6912  0.1174
17803W        W38083  18.353   4.077   3.725  0.2331  0.1619 -0.1826
17804W        W38084  17.218  10.763  11.466  0.1173  0.0572 -0.0616
17805W        W38085   9.985   6.591  12.589 -0.1101 -0.0397 -0.4083
17806W        W38086  11.179  11.280   3.102 -0.2503 -0.0745 -0.1337
17807W        W38087   5.014   5.020   0.238  0.2969  0.1705  0.0729
17808W        W38088   8.978   4.536   0.181 -0.1276  0.2849 -0.1267
17809W        W38089   8.422  11.573   4.366 -0.0118  0.2812 -0.0035
17810W        W38090  12.421  17.437   1.368  0.0313  0.1069 -0.1259
17811W        W38091   6.918   8.336   0.178 -0.2021  0.1583  0.4689
17812W        W38092   4.429  18.035  11.273 -0.0636 -0.0783 -0.0259
17813W        W38093   8.390  13.234   3.051 -0.1391  0.1595 -0.1453
17814W        W38094   8.679  18.333  11.612 -0.2534  0.1271  0.0578
17815W        W38095  10.618  12.150   2.372  0.2028 -0.0290 -0.1739
17816W        W38096   2.383   3.854  10.376 -0.0120 -0.1354  0.4082
17817W        W38097   7.867  10.505   5.377  0.1334  0.0650  0.2168
17818W        W38098  17.466   8.374  10.995 -0.1121 -0.3327 -0.1728
17819W        W38099   1.344  16.151   1.480 -0.1070  0.0282  0.2443
17820W        W38100   5.661  13.407   4.851 -0.0599 -0.4559 -0.0350
17821W        W38101  16.447  13.329   1.568 -0.2221 -0.1170 -0.0825
17822W        W38102  14.318  12.331   4.440 -0.1156 -0.2832  0.0456
17823W        W38103   3.901   7.478   1.399 -0.0319 -0.0573  0.2232
17824W        W38104  16.124   7.814  10.751 -0.2032 -0.1030 -0.0072
17825W        W38105  11.101  17.328   3.988 -0.1585 -0.1342 -0.0025
17826W        W38106   6.063  17.197  13.910  0.0852  0.3195 -0.0358
17827W        W38107   3.293   3.170  10.445  0.1367  0.3563  0.2899
17828W        W38108   9.288   3.501   0.020 -0.2345 -0.0455 -0.1212
17829W        W38109   4.419  10.825  12.717  0.0126  0.0424 -0.2893
17830W        W38110   8.879  18.570  12.370  0.1026  0.2562  0.2245
17831W        W38111   7.075   4.489  12.034  0.1344  0.1732  0.2984
17832W        W38112   0.014  19.117   1.333 -0.1823  0.0652  0.1546
17833W        W38113  19.758   2.126   1.539 -0.0555  0.1870 -0.0595
17834W        W38114  19.050   9.271   3.976  0.2711 -0.0842  0.2108
17835W        W38115   4.230  14.880  13.655  0.0562 -0.0804 -0.1343
17836W        W38116  12.538  18.928  12.857  0.3054 -0.2060 -0.1746
17837W        W38117   1.860  18.414  10.612  0.4138  0.3713 -0.0481
17838W        W38118   5.888  10.281   0.332  0.3455 -0.0010  0.0378
17839W        W38119  14.634  10.683   1.098  0.0867 -0.2441 -0.1608
17840W        W38120  18.383  13.016  10.311  0.0486 -0.0220 -0.0654
17841W        W38121  19.743   7.453  12.298 -0.1079  0.3641 -0.5467
17842W        W38122   6.918  14.174   2.945  0.0010 -0.3159 -0.3332
17843W        W38123   4.231   2.712  10.384  0.1035  0.1108 -0.0951
17844W        W38124  12.637   0.289  11.168 -0.1166 -0.1084 -0.0400
17845W        W38125  15.910  11.904  11.247 -0.0250  0.2979  0.3078
17846W        W38126  14.506   9.314   9.287 -0.0152 -0.1696 -0.3433
17847W        W38127  11.746   2.691   2.569  0.0060 -0.2408 -0.1083
17848W        W38128  15.071  12.335   2.095 -0.0219  0.0020  0.2450
17849W        W38129   3.628   8.047  10.808  0.0767  0.1138  0.0040
17850W        W38130   6.728   1.289  12.254  0.1252 -0.2775 -0.0743
17851W        W38131  15.415  10.006   2.648 -0.0551 -0.1448  0.0110
17852W        W38132  17.885   6.415   0.788  0.2881 -0.2353 -0.0190
17853W        W38133   9.582  16.980  13.225  0.1373 -0.0912  0.2710
17854W        W38134  14.590   1.202  12.208  0.0593 -0.0070 -0.0692
17855W        W38135   8.854   2.293  10.392 -0.3448  0.0056  0.4144
17856W        W38136  10.061  12.864  14.037  0.1272  0.0427 -0.1635
17857W        W38137   0.249  13.225   2.623 -0.1244 -0.1793 -0.3907
17858W        W38138  12.790   1.358  12.541 -0.1763 -0.0683 -0.2246
17859W        W38139  18.116   0.835  13.889 -0.1637 -0.1632 -0.2366
17860W        W38140  15.700   5.028   1.886  0.1446  0.3500  0.2065
17861W        W38141   3.425  14.655   9.671 -0.2383 -0.0627 -0.0067
17862W        W38142   1.435  14.124   2.024 -0.1321 -0.3257  0.4171
17863W        W38143  19.688  15.409   3.023 -0.2547 -0.0003  0.1068
17864W        W38144   6.870   1.886   2.759  0.2874 -0.3436 -0.3979
17865W        W38145  16.197   9.769  11.663 -0.3050 -0.0777 -0.0615
17866W        W38146   6.876  18.915  11.593  0.0769 -0.2865 -0.2296
17867W        W38147  13.813  17.930   0.822 -0.2490 -0.1743  0.4588
17868W        W38148  13.387  13.334   3.066  0.0949 -0.2738  0.1794
17869W        W38149  19.297  10.570   0.907 -0.2375 -0.0035 -0.3101
17870W        W38150   2.659  15.168  12.626 -0.3665  0.3052 -0.1740
17871W        W38151   8.741  18.210   2.634 -0.0274 -0.1797  0.2414
17872W        W38152   6.044  11.463   1.944  0.4358 -0.1924  0.3783
17873W        W38153  13.354   6.435  12.386  0.2759 -0.1117  0.0649
17874W        W38154   1.580  19.332  11.000  0.1534 -0.1449  0.0777
17875W        W38155  15.355  10.914   9.609 -0.2030 -0.1652  0.1952
17876W        W38156  14.908  15.451   1.344 -0.2355 -0.1464  0.1376
17877W        W38157  15.873   7.834   0.081 -0.0037 -0.0324  0.0181
17878W        W38158   2.153  15.566   2.882  0.0345 -0.0461 -0.1230
17879W        W38159   2.910  12.208   4.184  0.1456 -0.0923 -0.0718
17880W        W38160   2.918  14.691  13.845  0.0676  0.0642  0.0259
17881W        W38161   5.221   8.717   2.477 -0.3621 -0.1871 -0.0306
17882W        W38162   9.975   1.910   2.427  0.0757 -0.0749 -0.1715
17883W        W38163   0.556  17.268   0.325  0.0168 -0.2057  0.0831
17884W        W38164  18.622  15.932  10.997 -0.0128 -0.1698 -0.2231
17885W        W38165   5.000   6.938  12.813  0.0344  0.0873 -0.0887
17886W        W38166  17.919  10.055   3.242  0.1851 -0.1514  0.1410
17887W        W38167   9.382  15.188  13.524 -0.3433 -0.0150 -0.0467
17888W        W38168  14.431  11.488   1.839  0.0228 -0.2614  0.2471
17889W        W38169  16.955   4.619  12.704  0.1550 -0.1494  0.0351
17890W        W38170  19.392  11.694   3.925  0.1879  0.3040  0.0240
17891W        W38171  18.869   1.699   1.806 -0.0358  0.2416  0.0007
17892W        W38172   5.220   7.444   0.058  0.0742  0.2005 -0.1209
17893W        W38173  19.205  15.600   1.812  0.3116  0.1472  0.2236
17894W        W38174  18.193  15.745   3.449  0.0134 -0.1247  0.0588
17895W        W38175  11.152   6.606  12.949  0.1598  0.0479 -0.2641
17896W        W38176  10.434  18.274  10.568 -0.1197  0.1460 -0.0821
17897W        W38177   4.580   8.108   4.840 -0.2117  0.0748 -0.0008
17898W        W38178  11.582  12.090   3.446  0.2323  0.1075 -0.0431
17899W        W38179  12.454  12.441  10.485  0.1839  0.2457  0.2017
17900W        W38180  14.297   5.178   1.522  0.0860  0.0712 -0.0169
17901W        W38181   2.196  11.272   2.352 -0.2050 -0.0095  0.0082
17902W        W38182   1.246   4.390   1.438 -0.1556 -0.0669  0.0849
17903W        W38183  10.805   3.678   0.024 -0.1244 -0.0545 -0.2283
17904W        W38184  12.261   3.920  12.172 -0.1833  0.0049  0.2235
17905W        W38185  11.759  13.267   3.258  0.0662  0.0849 -0.1677
17906W        W38186   0.090   5.161   4.085  0.2780  0.1315  0.0962
17907W        W38187  17.486   2.297   0.225  0.1408 -0.1417 -0.2917
17908W        W38188   1.828  15.731  11.344  0.1091  0.1383  0.1715
17909W        W38189   2.867  16.390  13.596  0.0405  0.0469 -0.1196
17910W        W38190  15.079   1.219   2.604 -0.1086 -0.1414  0.1045
17911W        W38191  19.009   3.279   9.374  0.0737  0.0692  0.0262
17912W        W38192   3.258   2.117   0.403 -0.0914  0.0757  0.0158
17913W        W38193  17.277  17.017   2.805  0.2025  0.4360  0.0767
17914W        W38194   7.683  16.606   0.678 -0.4203 -0.3146 -0.1183
17915W        W38195  13.555  15.407   0.107 -0.2995  0.0710  0.1793
17916W        W38196   3.760   5.747   2.420 -0.0277 -0.2128  0.2013
17917W        W38197   7.868  17.750   2.461  0.3231 -0.2528  0.0774
17918W        W38198  15.479   7.898  13.819  0.1569  0.0879  0.0314
17919W        W38199   7.707  10.464  10.896 -0.1356 -0.2455 -0.2525
17920W        W38200   6.325   0.828  13.777 -0.1861 -0.1620 -0.1774
17921W        W38201  13.700  19.201  12.199 -0.2239 -0.2474 -0.2381
17922W        W38202  19.169  11.695  12.170  0.2713  0.2762 -0.2021
17923W        W38203   0.859  16.245   0.763  0.2412 -0.1769 -0.0250
17924W        W38204  17.277  14.421  10.604 -0.0853 -0.2077  0.2801
17925W        W38205  10.323   4.767  12.084 -0.0161 -0.1425 -0.3568
17926W        W38206  13.004   2.914  13.248 -0.0099  0.0151 -0.4825
17927W        W38207  19.119  19.283   3.120 -0.0167 -0.0218 -0.0705
17928W        W38208   9.111  15.957  11.935 -0.0181 -0.0183 -0.0521
17929W        W38209  11.863  17.517  12.173  0.1095  0.2625 -0.0106
17930W        W38210  13.359  12.701  11.305 -0.1693  0.0809  0.0728
17931W        W38211   2.384  11.673   3.494 -0.3603  0.1412  0.0212
17932W        W38212  17.250   4.821  12.351  0.0503  0.1483  0.1165
17933W        W38213  18.998   9.609   0.627 -0.0692  0.1361  0.2315
17934W        W38214  13.464   1.757   3.245 -0.3613  0.1483 -0.0725
17935W        W38215   0.807  11.669  10.619 -0.0255 -0.2191  0.1280
17936W        W38216  15.575  18.269   0.596  0.1216 -0.1828 -0.0084
17937W        W38217   0.131  19.645   2.014 -0.0350  0.2617  0.2521
17938W        W38218   2.785   9.289   0.420  0.3412 -0.3804 -0.1943
17939W        W38219  15.822  17.436  10.926  0.1564  0.0759  0.1992
17940W        W38220   9.555   6.061   2.298 -0.0561 -0.1540  0.0037
17941W        W38221  12.320  15.882   0.886 -0.1230 -0.0673 -0.1305
17942W        W38222   1.128   5.307  10.740  0.1563 -0.2953  0.3162
17943W        W38223  17.280  15.759  10.382 -0.0652  0.2836  0.2408
17944W        W38224   1.405  16.134  10.200 -0.1737  0.3474  0.1201
17945W        W38225   5.071   6.602  13.379 -0.2969 -0.0053 -0.0215
17946W        W38226  14.340  10.443  13.251 -0.2230 -0.0404  0.0812
17947W        W38227  12.403   8.146  11.519 -0.1565 -0.4271  0.2384
17948W        W38228   3.526   8.207   3.418  0.2651 -0.3951  0.3974
17949W        W38229  10.336  16.489   0.902 -0.1530  0.1128  0.1357
17950W        W38230  15.217  11.566  13.206  0.1668 -0.1331  0.0429
17951W        W38231  18.507   1.929   2.082  0.2824  0.3583  0.0616
17952W        W38232   7.859   7.169  12.427  0.0674 -0.0459  0.1282
17953W        W38233   5.926  14.655  12.460 -0.1602  0.0450  0.0649
17954W        W38234   2.215  12.280   1.770  0.2242  0.0058 -0.0338
17955W        W38235  15.095   3.076   3.748 -0.2013  0.1293  0.0986
17956W        W38236   9.939   9.273  13.025 -0.1796 -0.0049  0.1295
17957W        W38237  16.223  11.593  10.981 -0.2778  0.2957 -0.0867
17958W        W38238   9.546  18.468  12.109 -0.1080 -0.1267  0.0964
17959W        W38239  18.299  13.765   1.064 -0.3446  0.2084 -0.0928
17960W        W38240  17.413   6.467  13.599  0.3275 -0.0491  0.1249
17961W        W38241   0.340  13.137  13.707 -0.1393 -0.3623  0.1742
17962W        W38242   1.895   8.391   4.138  0.1320  0.1139 -0.0470
17963W        W38243  10.246   6.831   2.021  0.3538  0.3061 -0.2441
17964W        W38244   2.828  12.395   3.555  0.0958 -0.2174  0.0715
17965W        W38245  14.719   1.997   2.548 -0.0369  0.0438 -0.0303
17966W        W38246  16.661   2.815   4.702 -0.1571  0.0291 -0.4177
17967W        W38247  18.457   4.222  12.066 -0.0635  0.1899 -0.1320
17968W        W38248   4.523  14.480  11.118 -0.4063 -0.0908  0.0494
17969W        W38249   6.592   7.385   3.427  0.0691 -0.0768  0.0466
17970W        W38250  13.972   6.244   3.090  0.1411 -0.1757  0.0032
17971W        W38251  16.835  18.217   3.496  0.3390 -0.0594 -0.0615
17972W        W38252  17.374   8.699  11.713 -0.0171 -0.2794  0.3138
17973W        W38253   8.541   3.293  13.981  0.1707  0.0750  0.1600
17974W        W38254  10.646  17.171   3.685 -0.0992 -0.3863  0.0600
17975W        W38255  10.749   6.263   3.117 -0.2226  0.1026 -0.1397
17976W        W38256  11.047   7.089  11.078 -0.1603  0.3990 -0.1430
17977W        W38257   1.948  14.721   3.335  0.0807 -0.0548 -0.3949
17978W        W38258   4.012  18.281  11.992  0.0071  0.5226  0.1346
17979W        W38259   6.218  13.883  11.870 -0.1800 -0.1183  0.0990
17980W        W38260  13.490   0.040  10.344 -0.2028  0.0975  0.1964
17981W        W38261  17.138   6.518  12.549  0.1685 -0.1223  0.1009
17982W        W38262  11.100   9.787   1.787 -0.0980 -0.0355 -0.0628
17983W        W38263   3.706  19.239   3.902  0.0760  0.0372 -0.3276
17984W        W38264   7.198  17.091   2.188  0.0567  0.2209 -0.0520
17985W        W38265   0.565  12.832   2.266 -0.1488  0.0564 -0.1194
17986W        W38266   8.885  16.562  10.372 -0.1289  0.1171  0.2025
17987W        W38267  17.623  10.800  13.087 -0.2173 -0.1213 -0.0519
17988W        W38268   1.688   6.339  11.416 -0.1344 -0.1311 -0.0312
17989W        W38269   2.145  17.776   3.154 -0.2985  0.1210  0.0139
17990W        W38270   4.971   9.335  11.532 -0.2434  0.2489 -0.0358
17991W        W38271   5.552  13.062  13.445  0.1402  0.0496 -0.1385
17992W        W38272  16.171  10.289  12.952 -0.0072 -0.0468 -0.2390
17993W        W38273  15.346  19.079  13.636  0.4131  0.0542 -0.2517
17994W        W38274  10.545  16.068   1.643  0.0840 -0.1477  0.1451
17995W        W38275  11.930   7.799  12.444 -0.0457 -0.0421  0.2712
17996W        W38276   4.357   2.739   1.698  0.4660 -0.0994 -0.2600
17997W        W38277   8.205  16.022   3.291  0.0725  0.0033 -0.0083
17998W        W38278  16.971   2.269   0.493 -0.3441  0.4045  0.1673
17999W        W38279   2.270  12.367  12.807  0.0226  0.1381 -0.2942
18000W        W38280   3.508  12.005  12.230  0.1907 -0.1270  0.0505
18001W        W38281   1.877  14.881   0.877  0.0183 -0.1252  0.0237
18002W        W38282   3.093   1.139   0.750  0.2978 -0.2477  0.0199
18003W        W38283  13.035   9.673   1.229 -0.0590 -0.1639 -0.3538
18004W        W38284  10.353   8.410  13.551 -0.0296 -0.3365 -0.1462
18005W        W38285  16.454  15.225   3.050  0.1518 -0.0558 -0.2033
18006W        W38286  11.165  15.225  10.067  0.0896  0.2154 -0.2351
18007W        W38287   4.309  18.507  11.603  0.0942  0.0673  0.1572
18008W        W38288   6.328  10.351   0.903 -0.0606 -0.1642 -0.3366
18009W        W38289  14.396  19.153  11.082  0.1474 -0.1570 -0.2152
18010W        W38290   1.503   5.841  11.498 -0.0150  0.1863  0.2809
18011W        W38291  12.465   0.192   0.968  0.0790 -0.0257 -0.0930
18012W        W38292   7.410  16.349   2.446 -0.0534 -0.2059  0.1559
18013W        W38293  11.871   3.293   1.880 -0.0055 -0.0454 -0.0251
18014W        W38294   4.593   2.408  11.903 -0.0591 -0.0359  0.1995
18015W        W38295   0.699  19.364   0.435  0.0770  0.3672 -0.1062
18016W        W38296   5.241  15.695   2.669  0.0626 -0.1695 -0.1597
18017W        W38297  12.608   7.101   1.548 -0.2779  0.0101 -0.1373
18018W        W38298   5.634   4.221  13.795  0.3468 -0.0689  0.0546
18019W        W38299  17.951  13.726  10.767 -0.1232  0.3866 -0.1734
18020W        W38300   8.878  18.067   0.150 -0.0551  0.2716  0.0407
18021W        W38301  16.746  13.231  13.745 -0.2559  0.0369 -0.1124
18022W        W38302  10.255   8.040  10.646 -0.0611  0.1762  0.0799
18023W        W38303   5.657   1.202  11.611  0.1051 -0.2114 -0.1166
18024W        W38304  19.392   3.293   0.549 -0.0713 -0.1218  0.2385
18025W        W38305   9.612   7.397   2.372 -0.1837 -0.2048 -0.0043
18026W        W38306  14.099   3.451   0.461 -0.2473 -0.1866  0.1213
18027W        W38307  19.659   2.293  11.062  0.3143  0.4830 -0.1778
18028W        W38308  11.145  17.828   1.842  0.0769 -0.2240  0.1508
18029W        W38309  10.381   4.823  11.184  0.2023  0.0017  0.0147
18030W        W38310   1.414  10.512   5.007 -0.1264  0.0781  0.0184
18031W        W38311  15.777  18.005   9.356 -0.1642 -0.2669  0.0761
18032W        W38312  11.740   0.117   0.649 -0.0257  0.3394  0.0782
18033W        W38313   3.566   5.900  11.582  0.1165  0.1485 -0.1740
18034W        W38314   7.067  12.449  14.077  0.1543  0.0134 -0.0538
18035W        W38315   5.195  14.384   0.436  0.1517  0.2827 -0.2459
18036W        W38316  15.172   6.251  12.854 -0.0012 -0.0155  0.0691
18037W        W38317  16.433   5.120   2.903 -0.0772 -0.0010  0.0270
18038W        W38318   1.918   5.531   3.716 -0.1225  0.2931 -0.1010
18039W        W38319   5.117   2.436   9.974 -0.0160  0.1430 -0.3204
18040W        W38320  16.759   3.525   3.422 -0.1980 -0.2037 -0.3142
18041W        W38321  17.759   4.228  12.963 -0.1794  0.1764 -0.2595
18042W        W38322   4.559   6.352   1.005 -0.2283 -0.0565 -0.1580
18043W        W38323   3.366   9.321  13.768 -0.0367  0.0369  0.1282
18044W        W38324   8.509  11.278   1.955  0.5613  0.1930 -0.2362
18045W        W38325  12.880   2.284  11.948  0.1579 -0.1969 -0.0751
18046W        W38326   3.775  13.200   4.220  0.0004 -0.0554 -0.2395
18047W        W38327   6.629  16.212   1.588  0.2643  0.4964 -0.1638
18048W        W38328   8.599   3.258   0.436 -0.0481  0.1231  0.3007
18049W        W38329   8.409   4.502  11.634 -0.0738 -0.0071 -0.0828
18050W        W38330   8.787   3.254  10.727  0.0278  0.0092 -0.0287
18051W        W38331   8.290   1.552   3.205  0.0222  0.0559  0.2607
18052W        W38332   7.455  14.073   2.081  0.1264 -0.0556 -0.2498
18053W        W38333   4.083   2.373   2.706 -0.0121 -0.2691 -0.1223
18054W        W38334  16.982  18.308  10.425 -0.4700  0.3345 -0.1039
18055W        W38335   7.710   2.596  12.753  0.3279  0.0427  0.1174
18056W        W38336   3.285  19.068   9.754  0.1810 -0.1736 -0.0497
18057W        W38337  11.565  16.545  13.660  0.1252  0.0153  0.1198
18058W        W38338  19.488  13.669  13.979 -0.0238  0.0779  0.1068
18059W        W38339  17.903  11.747  10.905 -0.2244  0.0947 -0.0801
18060W        W38340  17.692  10.974  11.394  0.1718  0.1180 -0.0348
18061W        W38341   8.733   4.212  10.645  0.1559 -0.3845  0.3002
18062W        W38342  18.010  10.396   3.967 -0.0628 -0.1710 -0.1075
18063W        W38343   8.117  11.284  11.225 -0.1067 -0.0665  0.1619
18064W        W38344   9.110  16.660   0.319  0.1198  0.0140  0.1299
18065W        W38345   9.028  11.530  11.369 -0.1855  0.1223 -0.3460
18066W        W38346   3.600   0.803  12.796 -0.5134 -0.2152 -0.0434
18067W        W38347   0.193   3.534   3.701 -0.3100  0.3742  0.1664
18068W        W38348  15.679   5.095   3.474 -0.1006 -0.1632  0.2953
18069W        W38349  15.092   3.045  11.068  0.1208 -0.0165 -0.2863
18070W        W38350   1.417   5.594   3.530 -0.4168 -0.1482 -0.2394
18071W        W38351  19.406   2.356   2.511 -0.1296  0.2601  0.4339
18072W        W38352   7.390   3.530  11.183  0.2221  0.1815  0.0586
18073W        W38353  18.457  18.220  13.580 -0.1525 -0.2474  0.0191
18074W        W38354  14.119   8.412   0.423  0.1276  0.1075 -0.1950
18075W        W38355  16.671  15.166  11.448  0.0426 -0.1605 -0.0264
18076W        W38356   8.639  14.235  10.956 -0.5201  0.1038 -0.2504
18077W        W38357  10.686   6.455  13.598  0.1753 -0.2837 -0.1743
18078W        W38358  16.767  13.183  10.473 -0.1903  0.0446 -0.1333
18079W        W38359  18.116   6.215   2.182  0.3475 -0.1807  0.1408
18080W        W38360   1.563   5.117  12.471  0.0170  0.1133 -0.0692
18081W        W38361  10.565   9.953  13.058  0.1539  0.1206 -0.1236
18082W        W38362   4.307   0.778  12.045 -0.0058 -0.2067  0.1871
18083W        W38363   9.863  11.862  12.991  0.2245  0.0447  0.1147
18084W        W38364  14.942   1.936   3.407 -0.3227 -0.2031 -0.0259
18085W        W38365   8.640   7.021  11.790 -0.0005  0.2059  0.0715
18086W        W38366  10.304  12.682  11.520 -0.0009 -0.0383  0.0874
18087W        W38367   1.931  11.038   2.766 -0.1832 -0.2440 -0.0177
18088W        W38368   2.366  14.642   1.418  0.4440 -0.4069 -0.1396
18089W        W38369  14.302  11.076  10.121 -0.1069 -0.0571  0.1673
18090W        W38370  17.219   0.929  11.458 -0.1004 -0.0592  0.1743
18091W        W38371  17.658   9.010  12.111  0.0223  0.2162  0.1326
18092W        W38372   2.238   7.253  12.416 -0.2401 -0.0110 -0.2647
18093W        W38373  14.172  16.789  10.242 -0.2323  0.4113 -0.2656
18094W        W38374  16.899   2.006   0.924  0.0265  0.0814 -0.1360
18095W        W38375   6.171  10.245   2.353 -0.1405  0.0666 -0.2414
18096W        W38376  12.475   3.330  10.607 -0.0377 -0.3356  0.1391
18097W        W38377  16.169   3.291  10.402 -0.2438  0.0998 -0.0499
18098W        W38378  15.223   7.635   1.964 -0.2671 -0.0444 -0.0295
18099W        W38379  11.454   5.448  12.553 -0.0982 -0.0466 -0.2525
18100W        W38380   0.920   3.350  11.586 -0.2511  0.1506 -0.3002
18101W        W38381   4.370   8.137  13.190 -0.1443  0.0189 -0.1566
18102W        W38382  13.707  15.216   1.853 -0.2551  0.1071  0.2389
18103W        W38383   3.967   3.264  12.122  0.0484  0.2515  0.0817
18104W        W38384  11.988   9.599   2.592 -0.3914 -0.1858 -0.1467
18105W        W38385  18.671   6.947  13.644 -0.0939 -0.1054  0.1900
18106W        W38386  10.311   3.410  10.321  0.0529  0.0848  0.2937
18107W        W38387  18.774  18.613   4.063  0.2403 -0.1062  0.2312
18108W        W38388   3.079   6.671  11.452 -0.1995  0.0720 -0.0549
18109W        W38389  13.041  18.006   0.187 -0.2443 -0.0954  0.3110
18110W        W38390  11.424  14.085   0.870 -0.1124  0.1680 -0.0336
18111W        W38391  12.361   4.459   3.917  0.0075  0.2389  0.1255
18112W        W38392   3.937  16.244  12.808  0.1361  0.0513 -0.2120
18113W        W38393   9.379   5.444  13.908  0.1089 -0.0410 -0.2239
18114W        W38394  11.108  18.747   3.067  0.2057  0.0666  0.1694
18115W        W38395   6.383   9.497  13.640  0.0585 -0.0263 -0.0138
18116W        W38396  14.086  18.290   3.224 -0.1331  0.0331 -0.0058
18117W        W38397   7.128  16.957   1.500 -0.1503  0.1145 -0.0150
18118W        W38398  19.424  10.740   3.777  0.0154 -0.4183  0.0177
18119W        W38399   7.203  12.469   0.622 -0.0539  0.0422  0.2313
18120W        W38400  15.212   9.168   2.744  0.0519  0.3613 -0.1955
18121W        W38401  17.180   1.862   2.148 -0.2434  0.1144  0.0283
18122W        W38402   3.910   2.769   1.915 -0.1516  0.1486 -0.2490
18123W        W38403  12.531   6.099   1.804 -0.1151  0.0176  0.1921
18124W        W38404   5.350   2.057  12.919 -0.1482 -0.1154  0.2827
18125W        W38405  12.650  15.591   1.377 -0.2701  0.2645  0.1478
18126W        W38406  18.589   0.021  11.472 -0.0819 -0.0099 -0.1389
18127W        W38407   9.743   9.363   0.564  0.1208 -0.2992  0.0188
18128W        W38408  11.695   0.612  13.898  0.0282 -0.0401 -0.1048
18129W        W38409  14.838   8.136  12.001  0.5526  0.2117 -0.1841
18130W        W38410   5.019   4.674  12.418 -0.1539 -0.2251 -0.0359
18131W        W38411  14.227  15.063  10.023  0.3680  0.0982  0.1714
18132W        W38412  14.473  14.014   2.232  0.1494  0.0194 -0.1006
18133W        W38413  13.014   9.240  13.348  0.3056  0.0990  0.0943
18134W        W38414   5.100   6.923   1.707 -0.0060  0.3867 -0.0834
18135W        W38415  16.285   5.684   9.614 -0.3037  0.0269  0.0757
18136W        W38416   8.720  19.185   1.629 -0.2276  0.1171  0.1682
18137W        W38417   1.405  16.737  13.701 -0.0579 -0.0613 -0.0242
18138W        W38418   4.954   4.949   1.059 -0.0289 -0.3753 -0.0246
18139W        W38419  10.166  10.724   0.901  0.0747 -0.2166  0.1027
18140W        W38420   4.858  11.911   4.171 -0.1293 -0.1655 -0.3197
18141W        W38421   2.967   0.147  13.284  0.0972  0.1853  0.1966
18142W        W38422  12.981   6.143   3.510 -0.0601  0.1452  0.1346
18143W        W38423   3.033   2.928   0.530  0.2010 -0.1190 -0.1475
18144W        W38424   9.410  14.323  12.663  0.0099 -0.1422  0.0982
18145W        W38425  18.689  10.032   0.511  0.1268 -0.0390 -0.2961
18146W        W38426   6.888   7.231   1.716  0.0715  0.2184 -0.1810
18147W        W38427  17.152   7.242   2.700  0.2379 -0.0187  0.3534
18148W        W38428  11.058   3.913   2.694  0.1111  0.1100 -0.1048
18149W        W38429  11.209   8.795   2.465  0.0777  0.0319 -0.1960
18150W        W38430  12.269  11.430  10.521  0.0533  0.2337 -0.0927
18151W        W38431  13.790  18.252   2.293  0.0280  0.1531  0.1903
18152W        W38432   4.406  13.492  10.447  0.1026  0.0733  0.0042
18153W        W38433   8.116   5.356  12.321 -0.2726  0.1493  0.1432
18154W        W38434  12.677  11.721  12.653 -0.0134 -0.2729 -0.1494
18155W        W38435  17.641  18.344  12.560  0.0109 -0.0859  0.2692
18156W        W38436  11.949   6.779  14.007  0.0228  0.0226 -0.1701
18157W        W38437  11.410   5.236   3.515  0.1537 -0.0782  0.2153
18158W        W38438  16.376   0.937  13.484 -0.0423 -0.2003  0.1562
18159W        W38439   8.523  10.043  14.042 -0.1411 -0.3603  0.1781
18160W        W38440  16.804   5.302   2.363  0.0421  0.0335  0.0919
18161W        W38441   0.060  16.053   4.825  0.4381 -0.1541 -0.2014
18162W        W38442  16.541  19.261  12.020 -0.0056 -0.3368  0.0865
18163W        W38443   4.944  12.601   3.939 -0.0032 -0.2265  0.2170
18164W        W38444   1.051  16.718  12.779  0.0440 -0.1361 -0.0226
18165W        W38445   0.353   1.289   1.909 -0.0066 -0.0747  0.1729
18166W        W38446  13.022   1.364   1.747  0.0366 -0.1451 -0.0128
18167W        W38447   6.521   6.098   1.862  0.0132 -0.2870  0.0790
18168W        W38448   0.358  15.464  10.872  0.0969 -0.0561  0.1073
18169W        W38449  13.741  17.560  12.824 -0.0079 -0.0625  0.8075
18170W        W38450   1.876  14.075  12.783 -0.2286  0.2675  0.0970
18171W        W38451   9.823  19.026   0.881  0.2094 -0.0889  0.5116
18172W        W38452  13.252   2.045  12.096 -0.0727 -0.2295  0.0337
18173W        W38453   7.100  10.668   3.650  0.0330 -0.0303  0.3851
18174W        W38454  11.896  13.198  12.597  0.0738  0.2351  0.1814
18175W        W38455   0.820  11.931  11.566  0.1984  0.0368  0.1423
18176W        W38456  18.945   0.325   1.968 -0.0919  0.0606 -0.1589
18177W        W38457   7.959   5.191  13.683  0.2946  0.1243  0.0658
18178W        W38458   0.306   4.499   0.628  0.0677 -0.1910  0.3462
18179W        W38459   6.989  10.584  13.862  0.1908  0.1236 -0.0220
18180W        W38460   7.622   3.545  11.647 -0.1488 -0.0088  0.0587
18181W        W38461   7.375  13.926  12.140  0.0734  0.1857 -0.3969
18182W        W38462  14.215  13.878   9.109  0.1430  0.0608  0.0558
18183W        W38463  12.609   7.771  11.762  0.1049  0.4896  0.2580
18184W        W38464  12.352  16.005  11.367  0.1520 -0.1701 -0.0654
18185W        W38465  16.474  18.418  13.638  0.0428  0.1612  0.4613
18186W        W38466   2.378   9.681   2.290  0.0548 -0.0023 -0.2296
18187W        W38467   1.176  15.802   2.587  0.0854  0.0251 -0.0998
18188W        W38468   6.064  15.010  12.097  0.0996 -0.0535 -0.1609
18189W        W38469   1.009  10.428  13.953 -0.0130 -0.1148 -0.3439
18190W        W38470  14.646  11.652   1.407  0.0277  0.1128  0.0536
18191W        W38471   6.274   9.036   9.408  0.0949  0.1251 -0.2243
18192W        W38472  16.051  14.545  13.635 -0.0888 -0.3284  0.0597
18193W        W38473   2.473  12.646  11.505 -0.1775  0.3514  0.0264
18194W        W38474  16.221   0.519   1.345  0.1443 -0.0899  0.1380
18195W        W38475  16.686  17.814   2.604  0.0046 -0.1147 -0.0125
18196W        W38476   2.744   7.563  10.658 -0.0994  0.1873  0.0262
18197W        W38477  13.215  10.688  10.676  0.0447 -0.0019 -0.0134
18198W        W38478   1.889   4.986   2.657  0.3431  0.0062 -0.0025
18199W        W38479  10.548   6.964   2.480  0.2474 -0.1263  0.0887
18200W        W38480  14.060   2.338   1.700  0.0057  0.2086 -0.1707
18201W        W38481  16.339  17.787   4.187 -0.1843 -0.1228 -0.0723
18202W        W38482  12.501  17.775  13.461 -0.1091  0.1864 -0.1714
18203W        W38483   2.251   2.621  13.179  0.0423 -0.1812 -0.2848
18204W        W38484   9.995  10.709   4.069  0.0138 -0.0498 -0.0254
18205W        W38485   0.543  18.161   2.515 -0.1619 -0.0826  0.1542
18206W        W38486  15.529   8.596   1.374 -0.0540  0.1625 -0.1346
18207W        W38487  12.173   1.276  13.322  0.2739 -0.4863 -0.0740
18208W        W38488  14.478   4.961  12.712  0.1015  0.0382  0.0758
18209W        W38489   6.644  14.643   2.210 -0.2133  0.3063 -0.1236
18210W        W38490  16.922   7.601   0.560  0.0824 -0.2488 -0.1151
18211W        W38491   8.902   9.442  14.023 -0.3906  0.3092 -0.0308
18212W        W38492   3.851  11.529  13.128  0.1869 -0.0132  0.4999
18213W        W38493   0.612  12.473   0.063  0.2362  0.2453  0.3038
18214W        W38494   2.992  15.841   3.058  0.1034  0.2233 -0.2887
18215W        W38495  15.296   6.537   1.193 -0.3447 -0.0002 -0.0270
18216W        W38496   3.254  14.108   0.588 -0.1448  0.0647  0.0552
18217W        W38497   6.742   7.097   3.774 -0.2494  0.4395  0.0367
18218W        W38498   8.451   0.491  13.730  0.2002 -0.0727  0.0818
18219W        W38499   1.045  17.673   2.706  0.2110  0.1730 -0.1437
18220W        W38500   7.149   2.120   1.961  0.0671  0.0971 -0.0869
18221W        W38501  19.377   2.501   1.519  0.1182 -0.0172  0.0543
18222W        W38502  14.945  14.370  10.332  0.1593  0.0319 -0.4220
18223W        W38503   6.911   9.657   2.502  0.3329  0.0863  0.0140
18224W        W38504   3.321  16.140   0.707 -0.4130  0.4428 -0.2090
18225W        W38505  11.168   3.553   1.185 -0.5994  0.0282  0.1650
18226W        W38506  19.548   4.850  13.410 -0.5009 -0.0692 -0.0659
18227W        W38507   9.371   7.683  13.831 -0.2300  0.0299  0.1704
18228W        W38508   5.398  11.456   0.604 -0.1153 -0.0609  0.2511
18229W        W38509  13.347   2.635   3.532  0.1551  0.1430  0.0182
18230W        W38510  17.257   3.140  11.616 -0.2379 -0.2165 -0.1626
18231W        W38511  11.775   4.810   3.215 -0.0245  0.2802  0.1374
18232W        W38512   4.219  14.434  12.733  0.2157  0.0671 -0.0081
18233W        W38513   0.942  16.389   2.187  0.1203  0.0541  0.1335
18234W        W38514  14.926  12.765  11.817 -0.1654  0.1901  0.2581
18235W        W38515  15.408   6.262   9.939 -0.0185  0.0576  0.1074
18236W        W38516  12.727   2.532   9.606  0.1750 -0.3698  0.1283
18237W        W38517   0.245   6.309  13.907 -0.1049  0.0718 -0.1433
18238W        W38518  18.174   4.562  11.707  0.1446  0.1510  0.0234
18239W        W38519   0.907   2.509  13.799  0.0131  0.0992 -0.0060
18240W        W38520   1.637  17.751  13.808 -0.2759 -0.0572 -0.3599
18241W        W38521  14.290   7.256  12.960 -0.1030  0.1490 -0.1513
18242W        W38522   0.290  12.273  13.820 -0.1831 -0.2811  0.0050
18243W        W38523   9.802   2.310   3.381  0.0162  0.2106 -0.2365
18244W        W38524  18.733  12.788   3.915 -0.1814 -0.0018 -0.1447
18245W        W38525  10.045   3.461   9.880 -0.0769 -0.0168 -0.1331
18246W        W38526   4.100  17.019  12.846  0.1123  0.0147 -0.2476
18247W        W38527  18.572  11.478   3.668 -0.1250  0.0479  0.1765
18248W        W38528  16.890   3.572  12.443  0.2558 -0.1683 -0.1194
18249W        W38529  12.669   0.735  13.783 -0.2725  0.0489 -0.1146
18250W        W38530  13.151  13.316   1.018 -0.2203  0.0429  0.2904
18251W        W38531  11.063  18.522   0.278  0.2067  0.1175 -0.0665
18252W        W38532  13.084  15.625   0.240 -0.0058  0.2095 -0.0054
18253W        W38533  10.154   8.976   3.920 -0.1050 -0.1631 -0.0272
18254W        W38534   0.376   1.602  11.205 -0.1242  0.1023 -0.3061
18255W        W38535  10.511  10.508  13.484  0.0794  0.1280  0.1891
18256W        W38536  11.445   1.504  12.189 -0.1555 -0.0011  0.0881
18257W        W38537  18.959  11.651  13.435 -0.3074 -0.1672 -0.1059
18258W        W38538   1.528  17.105   3.082 -0.1470 -0.1751  0.3041
18259W        W38539   9.394  11.063  10.619 -0.0523  0.3204 -0.1594
18260W        W38540   2.758   3.350  12.501 -0.0317  0.2062 -0.1690
18261W        W38541   4.055   0.223  12.394 -0.0146 -0.0743 -0.0308
18262W        W38542  15.134  16.519  13.300 -0.1505 -0.0888  0.2060
18263W        W38543  10.640  12.227   3.974  0.1828 -0.3110 -0.0119
18264W        W38544   0.580  14.899   0.291 -0.1074  0.1843 -0.1890
18265W        W38545  12.182  11.466   3.918 -0.0567 -0.0256  0.2467
18266W        W38546   5.910  16.305   2.730  0.0505  0.0338 -0.0055
18267W        W38547   0.380   5.572  12.202  0.0934 -0.1366 -0.0504
18268W        W38548   7.344  17.083   3.178 -0.1008  0.1200  0.1266
18269W        W38549  12.753  18.913   0.360  0.0346  0.4397  0.4266
18270W        W38550   8.457  12.966   0.705  0.1941 -0.0712  0.0965
18271W        W38551   1.800   1.880  12.729  0.3115 -0.2276 -0.3149
18272W        W38552  19.744   7.886   2.859 -0.0825  0.4005  0.1081
18273W        W38553  15.009   2.057  12.135  0.1564 -0.1364 -0.0439
18274W        W38554  16.619   4.672   3.659  0.2005  0.1797  0.0944
18275W        W38555   6.916   6.220   0.515 -0.0738 -0.0613 -0.1803
18276W        W38556   3.292   9.434   3.517  0.2325  0.0401  0.1747
18277W        W38557   6.337   7.573  11.852  0.0268  0.0925 -0.1186
18278W        W38558   0.741   4.488   2.069 -0.1539  0.4764 -0.2774
18279W        W38559  11.475   0.010  11.720 -0.2091 -0.1679  0.0532
18280W        W38560  15.578   9.793  13.354 -0.2227  0.3251  0.1901
18281W        W38561  14.959  18.715   0.547  0.1415 -0.3433  0.1447
18282W        W38562   8.520  14.491   0.639  0.1659  0.0470 -0.3227
18283W        W38563   6.762   2.290  10.296 -0.4899  0.0305 -0.0977
18284W        W38564   5.485   2.402   0.799  0.1415 -0.1945  0.0252
18285W        W38565   9.941   3.000  11.562  0.2033  0.2207  0.0576
18286W        W38566  14.580  11.522  10.251 -0.0369 -0.1301  0.1062
18287W        W38567   3.444   9.432   1.951  0.0610 -0.1324 -0.2021
18288W        W38568  10.295  11.984  13.504  0.2137 -0.1241  0.0851
18289W        W38569   7.571   6.350  10.260  0.1381 -0.1004 -0.1109
18290W        W38570   7.959  14.065  12.967  0.1125 -0.4029  0.1263
18291W        W38571   7.309   5.972   3.180 -0.4971 -0.0799 -0.0699
18292W        W38572  18.567  17.803   0.376  0.2411  0.2939  0.0099
18293W        W38573   8.680   1.759   1.887 -0.0350  0.0052 -0.0471
18294W        W38574  10.829  11.304   3.546  0.0183 -0.1353 -0.2340
18295W        W38575  19.424  10.327   1.308 -0.2973  0.2939 -0.0514
18296W        W38576  16.845   1.687   3.414  0.1713  0.1959 -0.2037
18297W        W38577  15.493  16.516   1.545  0.1881  0.1215 -0.1992
18298W        W38578   5.997  12.110   1.105  0.0913 -0.0852  0.2686
18299W        W38579  19.660   3.779  13.800  0.0266  0.4439 -0.1571
18300W        W38580   4.412   5.348   1.747 -0.0114  0.1832  0.3544
18301W        W38581  10.880   7.696   3.991  0.1327 -0.3044  0.0091
18302W        W38582   5.246  13.688   0.153 -0.0996  0.1262  0.0538
18303W        W38583   4.424   6.309  11.024  0.2117  0.0744  0.1813
18304W        W38584  13.685  11.166   1.153 -0.3428  0.3213  0.2619
18305W        W38585  16.502  10.318  10.931  0.2214  0.0802  0.0654
18306W        W38586   2.170   6.976   4.283  0.0416  0.0100  0.0969
18307W        W38587  11.816  12.753  13.340  0.0573  0.0917 -0.3708
18308W        W38588  19.196  12.119  13.346  0.3168  0.0060  0.1117
18309W        W38589   9.577   4.594  10.425  0.0253 -0.0663 -0.1841
18310W        W38590  19.105  15.725  11.197  0.3952  0.1877 -0.2950
18311W        W38591  16.833   4.259  13.130 -0.2011  0.2382  0.1329
18312W        W38592  16.032  11.938   2.542 -0.2761 -0.2625  0.1019
18313W        W38593  13.251   8.182  10.916  0.2087  0.0690 -0.0299
18314W        W38594   7.807  19.614   0.258 -0.1070 -0.0154 -0.2982
18315W        W38595  13.539  13.207   0.690  0.0059 -0.2217 -0.0918
18316W        W38596  14.025  19.008  10.782 -0.1214  0.3369 -0.0470
18317W        W38597   6.141   8.447   1.522 -0.2506 -0.0802  0.1184
18318W        W38598   0.230   8.775  11.456 -0.2197 -0.1373  0.0243
18319W        W38599   5.936   5.300  11.137 -0.0855  0.3229  0.0013
18320W        W38600   6.902  13.222   0.295 -0.1020 -0.0765 -0.2031
18321W        W38601  13.173   1.469  11.186 -0.0651 -0.0967  0.0265
18322W        W38602   5.256  10.144  13.397 -0.1829  0.3416  0.0945
18323W        W38603  16.349  14.816  12.406  0.0296 -0.0520 -0.1476
18324W        W38604   3.353   5.799   0.558  0.1043 -0.1588 -0.3005
18325W        W38605   8.968  15.068  13.166 -0.0064 -0.1190 -0.0286
18326W        W38606  19.557  13.255   0.376  0.1221  0.0413 -0.0827
18327W        W38607  14.672  12.644   2.544 -0.0101 -0.0049 -0.1053
18328W        W38608   9.593  19.233   3.033 -0.0929  0.1623  0.2489
18329W        W38609  18.752  13.773   1.719  0.0549 -0.2538 -0.0087
18330W        W38610   4.729   6.330   2.407 -0.0684 -0.0466  0.0381
18331W        W38611  17.170  15.811   1.611  0.1233  0.0251  0.2791
18332W        W38612  16.708  11.105  13.957  0.0563 -0.0126  0.0034
18333W        W38613   6.190  18.462   0.258 -0.1047  0.2796 -0.2780
18334W        W38614  10.287  10.486   2.096 -0.1805 -0.0926  0.3305
18335W        W38615  15.761  15.086  11.447  0.0634  0.0436 -0.0443
18336W        W38616   5.295   1.394  10.919 -0.1739 -0.0315 -0.1176
18337W        W38617  13.212   7.154  10.398  0.2164  0.0290 -0.4131
18338W        W38618   4.832   1.407  11.213 -0.3550 -0.2239  0.5299
18339W        W38619  17.608   7.745  10.280  0.2605  0.2864  0.2395
18340W        W38620  13.644   5.537   3.582  0.0967 -0.1867 -0.0417
18341W        W38621  11.041   2.383   1.558  0.3047  0.0589 -0.0778
18342W        W38622   1.655   4.462  13.796 -0.1526 -0.2400 -0.0923
18343W        W38623  19.101   3.997   3.040  0.0477  0.0616 -0.0023
18344W        W38624   4.072  19.773   2.314 -0.1364 -0.0376 -0.4582
18345W        W38625  16.084  17.204   0.432  0.1706 -0.1901 -0.2147
18346W        W38626  17.884  17.616   2.846  0.1486 -0.1647  0.1852
18347W        W38627  19.280  16.476  10.094 -0.2555 -0.2604  0.2640
18348W        W38628   0.973   6.764  12.393  0.0079  0.2405 -0.1536
18349W        W38629  17.769  14.383  13.930  0.0312 -0.0160  0.1734
18350W        W38630   1.601   8.314   4.627  0.2177  0.0850 -0.1624
18351W        W38631   5.112  15.868  12.274 -0.0359 -0.1865 -0.2685
18352W        W38632  13.072  12.268   0.715  0.1335 -0.2983  0.2429
18353W        W38633   5.128   7.547  11.614  0.0417 -0.1820  0.1403
18354W        W38634   9.973  19.484   0.807 -0.1090  0.0113 -0.0536
18355W        W38635  13.630   4.897   2.190 -0.0772 -0.2162  0.1895
18356W        W38636   2.039  12.790  13.947  0.0930  0.1324 -0.3717
18357W        W38637   0.079   3.214  13.183  0.2650 -0.0914  0.0270
18358W        W38638   2.618   8.294  12.415 -0.1195  0.4628 -0.2440
18359W        W38639  18.179  17.897  13.223 -0.0512 -0.0640  0.0127
18360W        W38640   4.564  11.935   3.279 -0.1154 -0.1787  0.1910
18361W        W38641   1.764  13.053  11.453 -0.1484 -0.2025 -0.2429
18362W        W38642   7.454  13.336  12.051  0.1728  0.1878 -0.1841
18363W        W38643   7.317  17.630  10.882  0.0623  0.0103 -0.0359
18364W        W38644  17.854  13.199   0.452  0.2405  0.1219  0.0922
18365W        W38645  13.758   4.187  11.515  0.0888  0.2119  0.1970
18366W        W38646  17.314   3.984  13.077 -0.0442 -0.0688 -0.1642
18367W        W38647  15.629  13.705  11.512  0.0683  0.0760 -0.0878
18368W        W38648  11.045   2.184   0.527 -0.2315 -0.0788  0.0605
18369W        W38649  19.609   3.885   3.818 -0.2076  0.0662  0.0376
18370W        W38650   1.362   6.684   4.025 -0.1821 -0.2482 -0.1271
18371W        W38651   9.830  19.510  10.534 -0.0236 -0.3168 -0.0341
18372W        W38652  12.472   8.041  13.238 -0.0426  0.3034 -0.3049
18373W        W38653  18.279  15.978   0.011  0.3812 -0.0559  0.2290
18374W        W38654  17.017  18.131   3.027  0.4148 -0.3574  0.1048
18375W        W38655  19.389   3.105  13.388  0.0231  0.0872  0.2678
18376W        W38656   9.382  19.375   3.671  0.0626  0.0878 -0.0328
18377W        W38657   5.392   5.128   1.000 -0.2328 -0.0297 -0.2810
18378W        W38658   9.803  13.665  10.908 -0.2570  0.0842  0.0626
18379W        W38659  10.486  14.716   0.837  0.1960 -0.3912  0.0897
18380W        W38660  12.646   5.716  12.799 -0.0094  0.1940 -0.1997
18381W        W38661  16.382   0.826   3.537  0.0231  0.0564 -0.1165
18382W        W38662  19.677  17.846  11.045 -0.1772 -0.2697  0.0994
18383W        W38663   1.278   1.581   1.684 -0.1964  0.0255 -0.0826
18384W        W38664   7.969  16.453   0.227  0.0274 -0.0165  0.1958
18385W        W38665   2.611  10.796   4.192 -0.0727  0.2070  0.2405
18386W        W38666   5.260  10.567  10.906 -0.1568  0.2316 -0.0791
18387W        W38667   7.652   1.943   0.647 -0.2661  0.1545  0.4848
18388W        W38668   6.343  13.584   9.745  0.0438 -0.0928  0.0694
18389W        W38669  15.943   6.594   2.481  0.2439 -0.0840  0.0017
18390W        W38670  13.646   2.557  12.891  0.0947  0.0601 -0.1294
18391W        W38671   9.010   4.601  10.427  0.1477  0.2408 -0.3098
18392W        W38672   4.502  15.287  11.128  0.0564  0.0480 -0.1803
18393W        W38673   5.283   2.146   1.911  0.0472 -0.1473 -0.3698
18394W        W38674  11.189  11.691  12.881  0.2683 -0.0774  0.0306
18395W        W38675  13.596  10.275  13.995 -0.2229  0.2067 -0.0861
18396W        W38676   6.605   3.817   2.891  0.4372 -0.1356 -0.2346
18397W        W38677   1.880  19.017  11.176  0.0477  0.1221  0.0761
18398W        W38678  14.301   6.612   2.942 -0.2863 -0.1128 -0.2319
18399W        W38679  13.660   0.507   1.994  0.0464  0.1387 -0.2749
18400W        W38680  19.095  10.286  10.433  0.0181  0.2599  0.0920
18401W        W38681  19.766  16.407   3.012  0.2196  0.1779  0.0340
18402W        W38682   9.838  14.585   1.701 -0.2321  0.3210  0.1132
18403W        W38683  10.845  19.015   1.213 -0.1658  0.1438  0.1970
18404W        W38684   0.696   1.779   0.889 -0.2049  0.2396  0.0754
18405W        W38685  10.688  17.567  12.149 -0.0310 -0.0903  0.2087
18406W        W38686   7.564   7.573  13.641 -0.1117 -0.0271 -0.3892
18407W        W38687  12.615  12.435   1.805  0.0439  0.0965 -0.2054
18408W        W38688  17.003  10.269   3.028  0.0755  0.1032  0.1208
18409W        W38689   7.301   0.627  11.577  0.0034  0.0769  0.2854
18410W        W38690   0.493  14.572  10.546  0.0898  0.0021 -0.0236
18411W        W38691  17.196   6.859  13.377  0.0395 -0.0160  0.0527
18412W        W38692   9.721  10.622   9.544 -0.0674  0.0348 -0.1830
18413W        W38693   7.338   1.456   2.927 -0.1983  0.0986 -0.0598
18414W        W38694   3.114   5.403   0.609 -0.1154  0.1192 -0.0367
18415W        W38695   2.870  16.282   1.884 -0.0842  0.1786 -0.1766
18416W        W38696   1.308   9.388  11.603 -0.1139  0.1448 -0.0569
18417W        W38697   5.529   4.774  10.608  0.3205 -0.3095  0.2049
18418W        W38698  12.352   7.010  13.113  0.2599 -0.0881 -0.3009
18419W        W38699   8.069  18.166  13.078  0.0999  0.1359 -0.0949
18420W        W38700   0.392   3.581   0.870 -0.1596  0.1261 -0.0671
18421W        W38701   6.126  15.281   3.420 -0.0399 -0.2458 -0.1361
18422W        W38702  14.183   6.108   4.325 -0.0343 -0.1431  0.0519
18423W        W38703   8.120   7.858   2.479 -0.3511  0.0463 -0.0552
18424W        W38704  16.348  15.567   3.422  0.2884 -0.3335  0.1129
18425W        W38705   9.510  13.633   3.475 -0.0463 -0.0431  0.1832
18426W        W38706  14.283  12.266   2.554 -0.0044  0.1869  0.0908
18427W        W38707   3.197  17.679  13.659  0.0841 -0.2062 -0.1172
18428W        W38708  18.122   4.507   2.360 -0.0054 -0.1384 -0.4599
18429W        W38709   7.059   7.706  13.634  0.0020  0.4007 -0.1034
18430W        W38710   6.937  10.138   0.239  0.1256  0.2345 -0.0601
18431W        W38711  19.584  17.858   3.225 -0.2669  0.1726  0.0040
18432W        W38712   9.722   5.164  11.577 -0.0826 -0.0947  0.1814
18433W        W38713  10.205  11.131  11.777 -0.0607  0.4084 -0.2716
18434W        W38714  13.323  13.543   0.295 -0.0501 -0.0979  0.0679
18435W        W38715  14.606   2.668  11.860  0.0139  0.0052 -0.2395
18436W        W38716   2.700   3.048   9.740  0.0318  0.1523 -0.3536
18437W        W38717   0.898  14.214   2.447 -0.2580  0.5488  0.4100
18438W        W38718  18.261   6.192   3.685  0.1814 -0.2253 -0.0188
18439W        W38719  19.099   2.393   3.296 -0.1723  0.0959  0.0873
18440W        W38720  19.572   5.594   1.014 -0.1792 -0.0706  0.2157
18441W        W38721   7.645   3.019  11.274  0.0605  0.2636 -0.2089
18442W        W38722   3.072   2.183  10.927 -0.1546  0.4019 -0.0854
18443W        W38723  13.282   0.148   2.927  0.0436  0.0172  0.3842
18444W        W38724   0.131  19.667   3.659  0.0234  0.0990  0.3808
18445W        W38725   0.495  11.222   1.798  0.0262 -0.1246 -0.0666
18446W        W38726  14.352   8.566  10.025  0.0431  0.0281  0.0141
18447W        W38727  17.480   0.618   2.644  0.2040 -0.2092  0.0286
18448W        W38728   9.520   3.482   4.468 -0.0791 -0.3681  0.2252
18449W        W38729  19.276  17.428  11.210  0.2025  0.0132  0.2318
18450W        W38730   3.073  12.172   0.501 -0.2715 -0.0847 -0.0936
18451W        W38731   9.250   4.875  14.073  0.0452  0.0757 -0.0345
18452W        W38732  11.070  15.899  12.789 -0.0926 -0.1380 -0.1363
18453W        W38733   9.321  17.649  13.776  0.0975 -0.2765 -0.0778
18454W        W38734  17.541  11.828  12.286  0.2343  0.4083 -0.2730
18455W        W38735  18.088  11.258   0.181  0.0959 -0.1915 -0.1537
18456W        W38736   7.250  17.244  13.663 -0.3381 -0.1051 -0.0498
18457W        W38737   0.617  11.346  13.070  0.0527  0.1676  0.2005
18458W        W38738  12.055  12.373   9.727 -0.1680 -0.0306 -0.1412
18459W        W38739   6.648  12.019  11.212 -0.0954 -0.0549 -0.2356
18460W        W38740  19.624  12.997  13.194 -0.1355 -0.0527  0.2361
18461W        W38741   3.410   7.932  11.593  0.1161  0.1600  0.2082
18462W        W38742   2.685   6.260   1.664  0.1801 -0.0335 -0.1940
18463W        W38743  11.892   1.226   2.192  0.2956 -0.0532 -0.2191
18464W        W38744   1.611  15.565   2.258  0.1409 -0.3576  0.0144
18465W        W38745  18.221   3.521   1.043  0.0668 -0.0967 -0.1424
18466W        W38746   9.296  12.576  12.278 -0.0023 -0.0557 -0.0496
18467W        W38747   1.246   5.121   2.619  0.2394 -0.1117  0.2391
18468W        W38748  12.513   3.788  11.112 -0.1565 -0.0291  0.2258
18469W        W38749   5.996  13.565   2.910  0.3852 -0.0894 -0.4684
18470W        W38750  14.508  13.636   0.999 -0.0050 -0.0595  0.2913
18471W        W38751   0.535   9.677  11.906  0.0687  0.0575 -0.4267
18472W        W38752   7.072   9.721  11.072 -0.1151 -0.3255  0.1819
18473W        W38753   1.443  18.163  13.788 -0.1575  0.1851 -0.1527
18474W        W38754   0.147  15.087   1.184 -0.0075  0.0733 -0.1001
18475W        W38755  15.385  12.774   3.437 -0.0117  0.3132  0.3318
18476W        W38756   7.245  19.436   2.891 -0.0268  0.2551 -0.0562
18477W        W38757   6.554   4.289  11.911 -0.0442 -0.0534 -0.2695
18478W        W38758   4.368   9.241   0.896 -0.1061  0.3544 -0.1279
18479W        W38759  13.893  10.039   0.618 -0.2971  0.1395 -0.1153
18480W        W38760   8.808  11.988  11.361 -0.0834  0.0408  0.0271
18481W        W38761  13.995  13.160   9.650 -0.5267  0.1367  0.2960
18482W        W38762  10.002  19.484  14.044 -0.0343 -0.0241 -0.1551
18483W        W38763   3.069   9.208   1.155  0.0439 -0.1397 -0.0294
18484W        W38764   1.357   8.387  12.460  0.1081  0.0936  0.0748
18485W        W38765   9.006  19.683   2.690  0.0175 -0.3034  0.1783
18486W        W38766   9.692  13.265  12.310 -0.1564 -0.0695  0.1441
18487W        W38767  10.813  12.601  13.982 -0.1434  0.4437  0.0860
18488W        W38768   8.413   5.410   3.118 -0.2203  0.2184  0.2149
18489W        W38769  18.119   4.045   2.409 -0.0287 -0.1396 -0.2026
18490W        W38770   9.001   4.700  13.734 -0.0588 -0.0178  0.1150
18491W        W38771  15.509  14.193  11.705 -0.3167  0.0711 -0.0802
18492W        W38772   1.390  13.129   2.506  0.0826  0.1302 -0.0829
18493W        W38773   4.012   8.225   4.208  0.1742  0.1975  0.2832
18494W        W38774  16.730  10.652  13.753 -0.4278  0.0742  0.0934
18495W        W38775   5.955   2.939   3.122 -0.0432  0.2438  0.2496
18496W        W38776   9.434  10.792   0.300 -0.1239 -0.0706 -0.0965
18497W        W38777  15.799  13.044   1.580  0.0351  0.2962 -0.0639
18498W        W38778   9.120  16.867   2.947 -0.0253  0.0504 -0.4240
18499W        W38779  14.931  10.700  13.940 -0.2226 -0.0106  0.1243
18500W        W38780   0.008  12.737  13.711  0.2131  0.0569  0.1079
18501W        W38781   3.976   9.585  12.309 -0.1491 -0.0366  0.0394
18502W        W38782   5.370  19.424  11.874  0.1493  0.1161 -0.1555
18503W        W38783   9.704  19.425  12.432 -0.0786  0.1165  0.0027
18504W        W38784   2.204   1.662  11.945 -0.2805 -0.0848 -0.3742
18505W        W38785  16.888  18.454   1.102 -0.4095 -0.4718  0.0522
18506W        W38786   7.121   3.515   0.915 -0.0582 -0.1328 -0.1600
18507W        W38787  19.039   2.198   9.104 -0.0822  0.3202 -0.2515
18508W        W38788   2.455  12.447   3.873  0.0916  0.2255 -0.0670
18509W        W38789   5.366  18.766   3.522  0.1178 -0.2629 -0.1311
18510W        W38790  15.372   8.503   4.649 -0.1640 -0.1171 -0.1201
18511W        W38791  14.245  14.507   2.131  0.0788 -0.0501 -0.2614
18512W        W38792  17.896  10.602  12.699 -0.0831  0.0440  0.1934
18513W        W38793   1.792  11.794   0.539  0.2066  0.1198  0.4903
18514W        W38794   0.372  14.852   3.029 -0.1883 -0.0411  0.1035
18515W        W38795   9.599   4.340   1.679 -0.0607 -0.1042  0.3838
18516W        W38796   8.909   8.532  12.071 -0.0645  0.1464 -0.0941
18517W        W38797  19.539   8.213  12.908  0.1618 -0.0479 -0.1635
18518W        W38798  11.042  14.041  11.759 -0.0502 -0.1835  0.3672
18519W        W38799  17.859  19.594   0.912 -0.0628  0.0261 -0.0829
18520W        W38800  19.148   5.505   1.312  0.1049  0.1301  0.4125
18521W        W38801   1.888   1.658  13.633  0.2262 -0.0399  0.1218
18522W        W38802  16.113  11.212  12.793 -0.0466  0.0077 -0.0847
18523W        W38803  14.521  14.915  10.412  0.0579 -0.2191 -0.1716
18524W        W38804   2.584  13.407   0.141  0.0015  0.1276  0.3326
18525W        W38805  15.651  19.509   2.096  0.2095 -0.0828 -0.1182
18526W        W38806  19.096   2.433  12.714  0.3846  0.3250 -0.2672
18527W        W38807   8.602   4.143   1.892 -0.1632 -0.1558  0.2163
18528W        W38808   7.199   4.031   1.656 -0.1246  0.4586  0.0769
18529W        W38809  10.329  19.430   2.741  0.0421 -0.0929  0.3654
18530W        W38810  10.739  19.744   2.063 -0.0475  0.3700  0.0872
18531W        W38811  12.336   2.088   1.334 -0.0167  0.2620  0.0812
18532W        W38812   1.363  17.557   0.073 -0.2408 -0.2181 -0.0831
18533W        W38813   2.308  16.057  10.430  0.0046 -0.2979  0.1927
18534W        W38814  15.895  15.414   4.486 -0.2982  0.0852  0.2118
18535W        W38815  13.753   6.495   3.718  0.0577 -0.2987 -0.2226
18536W        W38816   9.937  13.213  10.632 -0.3012 -0.0876 -0.1214
18537W        W38817  18.436   6.457  10.228  0.0753 -0.2095  0.0474
18538W        W38818  11.813   4.478  13.468  0.0735  0.1331  0.1869
18539W        W38819   2.989   8.903  11.281 -0.3888 -0.2740  0.0421
18540W        W38820   1.726   9.438   1.870  0.1407 -0.2270  0.1267
18541W        W38821   9.937  13.936  13.482 -0.2262 -0.4722 -0.0358
18542W        W38822   9.127   4.272   2.170 -0.1026 -0.4845 -0.0382
18543W        W38823  11.313   0.454  11.359 -0.1034 -0.0841 -0.0358
18544W        W38824   2.146  10.371  11.355  0.0982  0.1084  0.1596
18545W        W38825  19.018   2.621  13.857  0.1148 -0.2387  0.1928
18546W        W38826  16.748   8.100   2.673  0.0226  0.0856  0.0130
18547W        W38827   1.371  19.024   2.286 -0.1284  0.3438  0.0927
18548W        W38828   7.356  13.582   3.930 -0.1857 -0.3486 -0.2333
18549W        W38829   7.609   0.342   3.505 -0.0939 -0.0492 -0.3064
18550W        W38830  15.138  15.461  10.161  0.0024  0.3326 -0.0684
18551W        W38831  16.343   8.759   9.151  0.0933  0.0759 -0.1757
18552W        W38832  15.427  19.036  10.141  0.1557 -0.0362 -0.0971
18553W        W38833   6.490   1.522   9.718 -0.2997 -0.0770  0.2056
18554W        W38834  13.668  16.043  13.208  0.0242  0.1885 -0.2799
18555W        W38835  13.320  16.919  11.477 -0.1695  0.5969  0.1377
18556W        W38836  19.462  10.469   1.775 -0.0723  0.1465 -0.0826
18557W        W38837  13.889   3.769   1.278  0.1837  0.0692 -0.0490
18558W        W38838   9.125  19.384   3.080 -0.0415  0.0687 -0.2078
18559W        W38839  18.163  12.951  13.398 -0.1253 -0.1574 -0.2684
18560W        W38840   6.379  15.148   2.259  0.0250  0.0590  0.0300
18561W        W38841   5.801   9.137   1.828  0.2416  0.0981  0.0824
18562W        W38842  16.162   2.474  12.695  0.1775 -0.3826  0.0285
18563W        W38843   7.390   8.092   0.693 -0.0697  0.0042  0.0543
18564W        W38844   6.749  12.692  11.914  0.0060 -0.0359 -0.3679
18565W        W38845  13.092   4.091  12.944 -0.0186  0.1817 -0.3010
18566W        W38846   4.005  14.209   0.148  0.2234  0.1844  0.2120
18567W        W38847   9.221   8.642   2.836 -0.0416  0.2687 -0.1775
18568W        W38848   6.149   2.627   1.251 -0.1720  0.1221  0.1989
18569W        W38849  11.432  15.460   2.188 -0.1349  0.2426 -0.0357
18570W        W38850  17.997   0.517   3.159  0.2546 -0.2004 -0.0340
18571W        W38851   7.969  14.762   3.236 -0.0353 -0.1379  0.1733
18572W        W38852  19.116   8.511   0.681  0.1210 -0.1738 -0.1094
18573W        W38853  17.672   8.943  12.927  0.0468  0.0636  0.1141
18574W        W38854  12.528  16.842   3.328 -0.1594  0.1099  0.0874
18575W        W38855  10.621   8.686  12.539  0.1872  0.1442  0.1631
18576W        W38856   2.424   4.652   0.264 -0.1348  0.0140  0.3357
18577W        W38857   8.116  14.706   0.408 -0.2546  0.4292  0.1374
18578W        W38858   5.757  13.037   2.882  0.1556  0.2441 -0.0782
18579W        W38859  10.703  15.937  10.936 -0.0516  0.4462 -0.0779
18580W        W38860   3.266   4.920  11.411  0.1171  0.3673  0.0685
18581W        W38861   6.605  15.421   1.864  0.1624  0.1778  0.1690
18582W        W38862   7.046   0.495   4.642 -0.2022  0.1656 -0.2871
18583W        W38863   4.440   6.186   0.399  0.0110 -0.2049  0.2942
18584W        W38864  12.391  18.248   3.934  0.4237  0.1159  0.1628
18585W        W38865  17.401   5.264   1.359  0.0270 -0.0096 -0.0134
18586W        W38866  14.943   0.414  12.863  0.0477  0.2717  0.1722
18587W        W38867  17.974   1.013   3.528  0.0027 -0.1484 -0.1531
18588W        W38868   5.396  14.413  11.525 -0.0190 -0.2606  0.0728
18589W        W38869   6.182   7.737  13.957 -0.0763  0.1376  0.1629
18590W        W38870   6.105   6.416   1.762 -0.0901 -0.0127  0.3332
18591W        W38871   1.106   7.135  12.963 -0.1424  0.0794 -0.1278
18592W        W38872   8.701  12.983   1.178  0.0014  0.3631  0.0140
18593W        W38873  17.004  19.394  10.959  0.0550 -0.1017  0.1709
18594W        W38874  17.770   0.359  11.538  0.2289 -0.0199 -0.0016
18595W        W38875   7.960  19.248   0.674 -0.2933 -0.0736  0.2672
18596W        W38876   7.115   8.311   2.230  0.2493 -0.3782  0.0054
18597W        W38877   6.698  10.602   4.870  0.1349 -0.3288 -0.0368
18598W        W38878   0.900  15.634   2.926  0.1015  0.0867  0.0402
18599W        W38879  11.867  16.061   0.212 -0.2562 -0.1066 -0.1024
18600W        W38880   3.563  18.257  11.042 -0.2591  0.0839 -0.2060
18601W        W38881   2.516   5.967  11.992  0.1380 -0.0287 -0.1351
18602W        W38882  18.180  12.482  13.215 -0.0673  0.1525  0.0917
18603W        W38883   3.752  13.205   2.683 -0.0590  0.5681 -0.0153
18604W        W38884   0.643   1.406   2.884 -0.1315 -0.1839 -0.1709
18605W        W38885  13.326   5.310   3.065  0.0754  0.3046  0.1719
18606W        W38886  19.146   6.549   0.282  0.1017  0.2120 -0.1114
18607W        W38887  14.252   9.636  10.554  0.0651 -0.2619  0.0162
18608W        W38888  15.206  15.947  10.088  0.0347 -0.2074 -0.0450
18609W        W38889   2.995  13.566  10.987 -0.2510  0.2704  0.1958
18610W        W38890  14.650  16.831  12.116 -0.4978  0.0478  0.1286
18611W        W38891  14.182   4.081  10.258 -0.0279  0.1228  0.0513
18612W        W38892   3.349  18.583  13.013  0.1333  0.0380 -0.1406
18613W        W38893   0.280   9.729  13.103  0.2157  0.1715  0.0166
18614W        W38894  18.348  17.175  13.431  0.2145  0.0487  0.3081
18615W        W38895   6.087  18.992  13.341 -0.0265 -0.0450  0.0708
18616W        W38896  10.805   8.728  11.302  0.1560 -0.0289 -0.1324
18617W        W38897   4.235  10.521   4.268  0.0516  0.1356  0.2815
18618W        W38898  16.627  18.060  10.775  0.0706  0.0949  0.1296
18619W        W38899  12.949  10.791  12.837 -0.1662 -0.0706 -0.0300
18620W        W38900   2.347  15.347   1.537  0.1005 -0.5796 -0.1461
18621W        W38901  18.000  10.243   2.765  0.2967 -0.1720 -0.1826
18622W        W38902   1.828   7.560   9.410 -0.2389  0.0052 -0.0252
18623W        W38903  10.874   5.742   0.060  0.3701 -0.1532  0.0488
18624W        W38904  16.939   1.896  11.120 -0.0110  0.0994 -0.0800
18625W        W38905   9.856   1.646  12.917  0.1262  0.2382 -0.0517
18626W        W38906  18.901   0.938   3.420 -0.1501  0.5808 -0.0735
18627W        W38907  17.988   7.829   4.619 -0.2598 -0.1388 -0.0702
18628W        W38908   7.403  18.753  10.327  0.4354 -0.2509  0.3250
18629W        W38909  18.585  14.510  10.178 -0.1999  0.1527  0.1270
18630W        W38910  18.937   2.692  11.720 -0.0986  0.0749  0.0795
18631W        W38911  11.216  14.510  11.331 -0.3661 -0.2820 -0.1171
18632W        W38912   4.586   6.926   3.874 -0.0300  0.1288  0.1255
18633W        W38913  11.860   1.366  10.526 -0.0391  0.2671  0.2255
18634W        W38914  14.071   7.269  11.242  0.1358 -0.2309 -0.2359
18635W        W38915   2.808  14.375   0.704  0.3381 -0.1895  0.0838
18636W        W38916  11.721  11.114   2.862 -0.0606  0.1962  0.1646
18637W        W38917   4.552  17.183  10.421 -0.1743  0.4567  0.0176
18638W        W38918   9.485  19.370  13.674 -0.2431 -0.0038 -0.2775
18639W        W38919   6.847  19.005  10.859 -0.1015  0.4503 -0.2459
18640W        W38920   8.437   3.319  12.887 -0.1637  0.1325  0.1914
18641W        W38921   6.315  14.191   2.263  0.0682  0.0894  0.2610
18642W        W38922   8.825   0.096  13.688 -0.2899  0.0461 -0.1956
18643W        W38923   0.628   2.238   4.010  0.0018 -0.3958 -0.0635
18644W        W38924   9.852   9.777  12.178 -0.1417  0.0889  0.2434
18645W        W38925  11.536  14.274  10.351 -0.0750 -0.1764 -0.1946
18646W        W38926   4.242  11.290  11.282  0.0502 -0.5239 -0.0908
18647W        W38927   2.077   6.100  11.148  0.1486 -0.0572 -0.0506
18648W        W38928   5.349   5.494  11.386  0.0158 -0.0871  0.0265
18649W        W38929   4.920   2.333   2.714  0.2115  0.2820  0.0062
18650W        W38930   5.127   1.887   2.861 -0.2852  0.1359  0.2399
18651W        W38931   8.706  14.113   1.457 -0.4072  0.2274  0.0609
18652W        W38932   7.675   4.981   0.077  0.3233 -0.0890  0.1153
18653W        W38933  15.187  12.694  10.935 -0.2084  0.0147 -0.0553
18654W        W38934  16.752   0.009   1.226  0.0928 -0.1998  0.1784
18655W        W38935   8.488  17.098  12.805  0.0496  0.0912 -0.2364
18656W        W38936   4.238   9.320   3.160  0.3170 -0.1085 -0.1187
18657W        W38937  16.974   8.376   1.875  0.1108 -0.1041 -0.2346
18658W        W38938  13.919   8.542  12.234  0.1386  0.0997 -0.3464
18659W        W38939   2.936  11.565   3.601 -0.2155  0.0794 -0.1149
18660W        W38940  18.046  11.738   4.197 -0.2016  0.3636 -0.0728
18661W        W38941  14.221   1.495   1.440  0.0232  0.3243 -0.1230
18662W        W38942   9.922  15.476  10.551  0.0932 -0.3575  0.0903
18663W        W38943  17.930  18.889  11.071  0.0628  0.0463  0.1116
18664W        W38944   9.557  18.150   3.069  0.0941  0.0263 -0.0288
18665W        W38945  18.273  19.339   2.395  0.0294 -0.1295 -0.2270
18666W        W38946   8.941   7.466  13.533 -0.2634 -0.0035 -0.0331
18667W        W38947   3.689   2.281   0.436 -0.0548 -0.1855  0.3223
18668W        W38948   2.169  10.097  12.589 -0.1928  0.2200  0.3854
18669W        W38949   5.039   9.134   3.693  0.1885 -0.0660 -0.4359
18670W        W38950   6.566   7.810  13.018  0.1360 -0.0574  0.1957
18671W        W38951  18.169  10.912   1.283 -0.0460 -0.1495  0.3486
18672W        W38952   1.687   4.156  12.935 -0.1181 -0.1136 -0.0242
18673W        W38953  16.888  11.703   3.213  0.0748  0.2125 -0.2952
18674W        W38954   6.240  13.913   3.903  0.0156  0.2227 -0.1609
18675W        W38955   8.352  16.939   3.206 -0.2493  0.2269  0.0305
18676W        W38956   9.790   8.368   3.535  0.2333 -0.0824  0.1471
18677W        W38957  13.277   8.664   0.903  0.2238  0.1870  0.0634
18678W        W38958  18.153   2.839  12.644 -0.0200 -0.1482 -0.1569
18679W        W38959  17.000   6.254  10.870  0.0056  0.1207 -0.0039
18680W        W38960   0.987   1.891   3.880  0.0721 -0.0800  0.2879
18681W        W38961  15.078   8.949   4.780 -0.0044 -0.0853 -0.0974
18682W        W38962  18.621  18.248   3.606  0.0259 -0.3612 -0.4904
18683W        W38963   4.571  18.450   1.072 -0.0222 -0.2874  0.3167
18684W        W38964   8.037   4.306  12.507 -0.2931  0.1753  0.0801
18685W        W38965  19.421   2.694  11.381  0.0413 -0.1828 -0.1197
18686W        W38966   0.673   5.019   0.929 -0.6258  0.2462  0.2583
18687W        W38967   6.238   4.293   2.966  0.0288 -0.1760  0.0731
18688W        W38968   2.574  13.760  12.894 -0.1972 -0.2520 -0.1793
18689W        W38969  18.377   6.376   3.093 -0.1989 -0.2367 -0.0202
18690W        W38970  15.227   7.307  12.670  0.1623  0.0180  0.0066
18691W        W38971  16.604   5.580  13.692  0.2951 -0.0709  0.1054
18692W        W38972  13.508  14.081  11.239  0.0300  0.0574 -0.5657
18693W        W38973   3.772  14.992  13.979  0.2660  0.2636  0.2139
18694W        W38974  12.990   8.710   9.950  0.0777  0.0660 -0.1735
18695W        W38975  11.008   0.276   9.819  0.4575  0.0009  0.0028
18696W        W38976  17.241   3.237   0.085 -0.2778  0.1463 -0.1605
18697W        W38977   2.879   5.434   2.637  0.1468  0.2183 -0.4643
18698W        W38978  13.198   7.647   1.011 -0.0057  0.0616 -0.0551
18699W        W38979  17.359  12.943   3.334 -0.1883 -0.1407  0.2711
18700W        W38980   1.270  14.530   5.433 -0.0285 -0.2339 -0.0399
18701W        W38981  15.412  11.886   0.432  0.0626  0.0979  0.1500
18702W        W38982   2.671  13.918  13.367 -0.0956  0.0672  0.1445
18703W        W38983   7.012  15.214  12.188 -0.0782  0.1987 -0.0295
18704W        W38984   0.480  15.015   2.512  0.0149  0.0740  0.0575
18705W        W38985   9.588  19.481   2.566  0.4319 -0.0285  0.0359
18706W        W38986  14.589   3.696   0.019  0.2705  0.1169  0.0398
18707W        W38987  10.071   5.244   3.844  0.0444 -0.2385  0.0905
18708W        W38988  18.877   2.139  11.763  0.2873 -0.1706  0.2681
18709W        W38989  18.016  18.666   1.818 -0.0435 -0.0823 -0.0860
18710W        W38990  11.281   0.491  10.660 -0.2561 -0.1054 -0.0638
18711W        W38991   2.788   1.520  10.255 -0.2607  0.2624  0.0854
18712W        W38992   6.924   2.916  11.947  0.1773  0.1617  0.2708
18713W        W38993  13.143  10.173  13.228  0.2484 -0.0354 -0.0680
18714W        W38994   7.322   2.681   1.294 -0.2103  0.2312  0.1357
18715W        W38995   1.388   7.571   2.780  0.1051  0.1541  0.0216
18716W        W38996   3.177  10.247  13.465 -0.2029 -0.1187  0.0947
18717W        W38997  17.865  16.909   0.574 -0.1245 -0.0129 -0.0486
18718W        W38998  12.235   6.218  10.984  0.1650  0.1442 -0.1160
18719W        W38999  11.178  18.763  11.562 -0.1669  0.1116  0.2688
18720W        W39000  11.637   9.242   3.916 -0.2418  0.0019  0.1953
18721W        W39001  18.219   6.436   4.220  0.1125  0.2604 -0.3642
18722W        W39002  13.859   1.722  10.949 -0.1449  0.1056  0.0445
18723W        W39003  15.105   4.102  12.602 -0.0887  0.0307  0.0024
18724W        W39004   2.799  17.980  11.773 -0.1897 -0.0323  0.1703
18725W        W39005  12.724  12.823   0.937 -0.1459  0.3590 -0.1043
18726W        W39006   3.978   3.097  13.569  0.3091 -0.1779 -0.1884
18727W        W39007   9.619   9.072  11.603  0.0886  0.0636  0.1223
18728W        W39008   9.303  18.790   0.843 -0.0372 -0.0495 -0.2813
18729W        W39009   0.748  14.578  10.977  0.4523 -0.0669  0.2545
18730W        W39010  18.834   0.132   0.057 -0.2267  0.0842 -0.1371
18731W        W39011   5.373  19.763  11.433 -0.1839  0.3171 -0.2578
18732W        W39012   2.003  10.071   3.196  0.2468 -0.0502  0.1968
18733W        W39013   6.259  10.207   2.899 -0.3874  0.3273 -0.2075
18734W        W39014   6.877  18.668  12.551 -0.0228 -0.0740  0.1635
18735W        W39015   7.333  14.359  12.365  0.1034 -0.0380 -0.3870
18736W        W39016  14.331  16.115  12.250  0.2190 -0.1495  0.1156
18737W        W39017  12.437  14.654  12.921 -0.1329 -0.0214  0.0745
18738W        W39018   9.553   2.503  12.553  0.2466  0.1235 -0.1721
18739W        W39019   9.225  17.073  12.056 -0.1891  0.0619 -0.0183
18740W        W39020   4.367   5.049  11.884 -0.0207  0.2249 -0.0369
18741W        W39021  17.256  17.738   0.885  0.0374 -0.1460  0.1925
18742W        W39022   6.121  15.560  12.958  0.0493 -0.0983  0.4479
18743W        W39023   1.738   2.860   3.288  0.0347  0.0685  0.0627
18744W        W39024   1.340   7.682   0.730 -0.2410  0.1089 -0.2259
18745W        W39025   6.337   1.387  13.541 -0.0784 -0.3604  0.2499
18746W        W39026   1.398  11.081   2.945 -0.1832  0.1026 -0.2791
18747W        W39027   2.983  12.958   2.062 -0.1185  0.3246 -0.0811
18748W        W39028  11.617   8.104   2.843  0.1088  0.3398  0.0869
18749W        W39029   3.815   2.286   2.305 -0.1957 -0.0413  0.1171
18750W        W39030  14.794   9.129   0.669 -0.0476 -0.3336  0.0708
18751W        W39031  13.686   5.151  12.184  0.2850 -0.2928  0.1012
18752W        W39032   1.517   7.952  13.504  0.2944 -0.2066  0.3100
18753W        W39033   1.901   3.547  10.191 -0.0567  0.0573  0.0187
18754W        W39034  18.137   5.673   0.894  0.1658 -0.0271 -0.0300
18755W        W39035  19.748  18.666  11.114  0.2406  0.5634  0.3089
18756W        W39036   6.716  14.696  11.809  0.2358  0.0366  0.2673
18757W        W39037   9.636   9.913   3.426 -0.0243 -0.2165  0.1447
18758W        W39038  16.593   1.483  13.286 -0.0025  0.3281 -0.1320
18759W        W39039  12.243  18.583   3.510  0.0749  0.1743 -0.0484
18760W        W39040  11.330  17.641  11.876 -0.0048 -0.0527  0.2781
18761W        W39041   6.354   6.523  13.697 -0.2370  0.1800 -0.2615
18762W        W39042  11.020   6.959  12.171 -0.2819  0.1969  0.0881
18763W        W39043   7.956   9.853  11.600 -0.0047 -0.0461 -0.1815
18764W        W39044  11.561  10.156   5.026 -0.2711  0.4509 -0.3378
18765W        W39045   1.092  16.254  11.476  0.0999 -0.1521  0.2965
18766W        W39046  10.177   6.404   1.531 -0.0862  0.0859  0.0757
18767W        W39047   8.534  10.995  10.266  0.0412 -0.3302  0.3928
18768W        W39048   1.314   9.862  12.636 -0.0311 -0.0911 -0.1554
18769W        W39049  13.017   7.089   2.956 -0.2788 -0.1869 -0.0605
18770W        W39050   1.619   1.622   0.768 -0.4895  0.3260  0.3648
18771W        W39051  18.749  15.352   3.259  0.0705 -0.0760 -0.2599
18772W        W39052   0.992   5.712   1.459  0.0913  0.1979 -0.1587
18773W        W39053   7.288  16.066   1.237 -0.4207  0.1524 -0.0806
18774W        W39054   9.885  10.641   0.088  0.1097 -0.0433  0.1082
18775W        W39055  12.876  15.027   3.330  0.2346  0.2292 -0.0184
18776W        W39056   3.872   3.255  10.665 -0.1776  0.0133  0.1638
18777W        W39057  18.558   5.191   3.750 -0.0677 -0.1301 -0.1085
18778W        W39058   2.322  17.048  12.003  0.3083  0.1862  0.1713
18779W        W39059  10.773  17.770  12.671 -0.1383  0.1129 -0.1159
18780W        W39060  15.416  11.151   1.089 -0.2468  0.0927  0.0730
18781W        W39061   2.036  13.235  11.907  0.1855  0.1083 -0.0340
18782W        W39062   8.477   2.524   3.323  0.0056 -0.2245  0.1493
18783W        W39063  14.705   9.869   1.288  0.0937 -0.1416 -0.0076
18784W        W39064   9.376   9.750  11.394  0.2420  0.0135  0.1235
18785W        W39065  17.547   5.781  12.419 -0.0865 -0.0866 -0.0953
18786W        W39066   2.665  10.774   2.721 -0.0347 -0.0840  0.1254
18787W        W39067  16.222   6.921   1.262  0.2062 -0.1062 -0.3756
18788W        W39068  14.743  14.847  11.755  0.0247 -0.1021  0.1412
18789W        W39069   4.657   2.196   4.009 -0.0922  0.0724  0.0955
18790W        W39070  14.962  18.520   1.616  0.0685  0.1458 -0.2620
18791W        W39071   7.959  16.742  10.526 -0.2456 -0.1468  0.1212
18792W        W39072  15.112   0.304  12.003 -0.0212 -0.2713 -0.1970
18793W        W39073   2.177  14.450  11.361  0.2818  0.1392 -0.2116
18794W        W39074   3.545   2.512  14.098 -0.3269 -0.0713 -0.1003
18795W        W39075   1.677  10.058  11.359  0.1417 -0.0027 -0.0632
18796W        W39076  17.841   4.777  13.929 -0.0205  0.0717  0.3847
18797W        W39077   2.131   8.719   0.462 -0.1785 -0.1598  0.1594
18798W        W39078   7.193   2.143   2.464 -0.0424  0.0920  0.4153
18799W        W39079   8.971   7.284   4.936  0.2918 -0.2004  0.0520
18800W        W39080   3.128   6.720   1.634  0.0088  0.0934  0.0623
18801W        W39081  14.979  15.847  10.531  0.0803  0.0803 -0.1385
18802W        W39082  16.932  12.407  11.264 -0.0672 -0.1355  0.2570
18803W        W39083  15.558   1.218   1.309 -0.1231 -0.0002 -0.3998
18804W        W39084  12.639  10.975   4.081  0.2581  0.1921  0.0936
18805W        W39085   2.793  10.711  11.987  0.0219  0.1143  0.0230
18806W        W39086   2.887   4.009   3.640 -0.0040  0.0309  0.3527
18807W        W39087   9.555   5.934  13.874  0.1241 -0.2191  0.3384
18808W        W39088  11.971  12.349  12.716 -0.0782 -0.0596 -0.1055
18809W        W39089   6.800   6.259  13.640  0.0379 -0.0323  0.0053
18810W        W39090   5.121  13.990   3.912  0.3103 -0.0102 -0.1219
18811W        W39091   0.108   8.130  13.831  0.2318  0.2068  0.1336
18812W        W39092  11.025   0.327   0.069  0.1778 -0.2571  0.2199
18813W        W39093   4.123  15.515   1.896  0.0440  0.1898 -0.0096
18814W        W39094  13.717   8.058  12.617  0.2499  0.1873  0.2769
18815W        W39095  14.041   2.731  13.401 -0.0055  0.2317 -0.0132
18816W        W39096  13.653   7.711  10.036  0.1556  0.0360  0.2215
18817W        W39097   2.839   3.246   5.201  0.3657 -0.1444 -0.0380
18818W        W39098  15.201  18.613  13.843  0.1582  0.0513 -0.0183
18819W        W39099  19.111  15.885   0.110  0.1365  0.2082  0.1799
18820W        W39100   8.638   1.901   0.196  0.1465  0.1745 -0.2884
18821W        W39101   8.009   4.113  13.026 -0.1791  0.0605  0.3751
18822W        W39102   0.934  18.017  12.271  0.3177 -0.1530  0.0777
18823W        W39103  13.773  16.995  10.563  0.1952 -0.0236  0.2241
18824W        W39104  16.804   7.959  11.651  0.0473  0.4513  0.0660
18825W        W39105   1.342   5.283  12.056 -0.0811  0.3009  0.2394
18826W        W39106  12.884   6.395   3.114 -0.3121  0.0226  0.4212
18827W        W39107  10.829  17.974   2.543 -0.0245 -0.2954  0.0589
18828W        W39108  16.812  14.366  13.682  0.0518  0.1850 -0.1333
18829W        W39109  16.418  15.539  12.095 -0.0414 -0.0988  0.0841
18830W        W39110   0.602  12.198   1.499 -0.0211 -0.1094 -0.1923
18831W        W39111  19.523  17.773   0.493 -0.0932 -0.0120 -0.0631
18832W        W39112   1.998  17.329   2.915  0.0749 -0.1627 -0.1593
18833W        W39113  18.511   8.537   1.371 -0.2051 -0.1278 -0.0087
18834W        W39114   5.034   0.972   2.665 -0.2393 -0.2187 -0.0521
18835W        W39115   2.679   5.740   0.144  0.2944 -0.2354  0.2090
18836W        W39116  15.147   7.240   4.184  0.2476  0.1405  0.0734
18837W        W39117   7.908   5.830   0.299  0.2947  0.0607 -0.3305
18838W        W39118   3.312  11.315   1.624 -0.0653  0.0614  0.2477
18839W        W39119   4.444  15.743   3.336 -0.0822  0.3157  0.1840
18840W        W39120   5.657   2.886   0.755 -0.0265  0.1190  0.0222
18841W        W39121  14.165  18.618  12.866 -0.1419 -0.1941 -0.1940
18842W        W39122   2.115   8.641  13.114  0.2300 -0.0263 -0.0520
18843W        W39123   3.646  15.392   3.639  0.1834  0.0371  0.1166
18844W        W39124  10.963   6.124  13.216  0.0205  0.0129 -0.0927
18845W        W39125  12.498  11.377   2.688 -0.0932  0.1484  0.0577
18846W        W39126   7.976   0.295   2.698  0.1317  0.2636  0.2977
18847W        W39127   3.676   2.123   3.669  0.0410 -0.1085  0.1479
18848W        W39128  15.296  19.773   8.943 -0.1978 -0.1589 -0.0721
18849W        W39129  17.760   9.295   1.781 -0.1089 -0.0584 -0.0540
18850W        W39130  17.929   3.578  11.847 -0.0765 -0.0243  0.2063
18851W        W39131   1.759   7.001   2.277  0.3382  0.2866 -0.1257
18852W        W39132   0.837  15.490  10.441  0.1135 -0.0228  0.1865
18853W        W39133  15.780   0.764   1.306  0.0597 -0.0936 -0.3500
18854W        W39134   0.778  18.514   2.177  0.3875  0.1878  0.2995
18855W        W39135   7.375  11.803   3.715  0.3220 -0.1971  0.1500
18856W        W39136   4.902   7.098   3.003 -0.0831  0.2275  0.1140
18857W        W39137  10.127  17.679  12.210 -0.0812 -0.1333 -0.0662
18858W        W39138  12.858   7.869  10.686  0.1118 -0.0777 -0.0380
18859W        W39139  11.840   7.648   3.181 -0.0035  0.1239 -0.1585
18860W        W39140   1.157  16.324  14.030 -0.1238  0.4136  0.1661
18861W        W39141   6.420  16.782  13.262  0.2733  0.1908  0.1625
18862W        W39142  19.558   2.917   0.812 -0.1007 -0.0295 -0.0111
18863W        W39143   8.237   7.907  11.802 -0.3869  0.0330 -0.1713
18864W        W39144   8.541  18.372   1.099 -0.0029 -0.1969  0.1558
18865W        W39145  17.022   6.162  11.362 -0.0074  0.2552 -0.1517
18866W        W39146  11.517  17.059   2.278 -0.2311 -0.3916 -0.0055
18867W        W39147   8.881  12.227   2.574 -0.5103 -0.1442  0.0428
18868W        W39148   5.637   2.685   1.346  0.1470  0.0347 -0.1166
18869W        W39149   1.555   7.417   0.233  0.0857  0.1480  0.1067
18870W        W39150  11.108   6.116  11.248  0.2200 -0.0309  0.6281
18871W        W39151   0.338   3.057  12.664  0.3260  0.0145 -0.0060
18872W        W39152  12.162  10.285  11.500  0.2019 -0.0111  0.1439
18873W        W39153   1.257  12.106  12.845  0.3910  0.2884 -0.2946
18874W        W39154   3.386  16.183   0.218 -0.0394  0.0623  0.0833
18875W        W39155  17.399   8.879   0.381  0.3138 -0.1283 -0.0164
18876W        W39156  16.643  18.681   9.657  0.1054  0.2075 -0.0585
18877W        W39157   0.893   0.971  12.518 -0.1492 -0.2220  0.1067
18878W        W39158  17.464  10.169   0.064  0.1744  0.3519  0.0153
18879W        W39159   7.952  13.199   2.761  0.3003  0.4964  0.1810
18880W        W39160  14.425  17.866   1.909  0.2856 -0.0996 -0.0525
18881W        W39161   8.644  13.739   3.070  0.0557  0.1598  0.3182
18882W        W39162  11.325   8.514   2.873 -0.1943  0.0712  0.2963
18883W        W39163   2.541  10.085  11.474 -0.2442  0.0765  0.2258
18884W        W39164  11.369   8.985   3.167 -0.1881  0.1278  0.0181
18885W        W39165  12.962   1.853  10.842  0.0920  0.1814 -0.0860
18886W        W39166   0.460   4.786  11.921 -0.3995 -0.0436  0.2369
18887W        W39167  12.772   2.893   0.069 -0.0848 -0.2420  0.0999
18888W        W39168   3.960   8.584  13.797 -0.2019  0.2037 -0.0769
18889W        W39169  19.627   1.562   0.346 -0.4211 -0.0710  0.0384
18890W        W39170   1.612   8.162  12.070 -0.1882 -0.0296 -0.1525
18891W        W39171  17.839   7.672   3.461  0.0204  0.0457  0.1977
18892W        W39172  19.011   0.891  13.601  0.1202  0.1981 -0.0616
18893W        W39173  13.085  17.096  14.023 -0.1613 -0.1311 -0.0750
18894W        W39174  15.694  19.050   2.131 -0.1234  0.1126 -0.1853
18895W        W39175  18.044  10.522   4.924  0.1625  0.0028  0.2198
18896W        W39176  17.228   0.849  10.238 -0.3535  0.2569  0.0193
18897W        W39177   4.776   2.966  11.261 -0.0149  0.1982  0.4163
18898W        W39178  11.718   1.125   0.601 -0.1644 -0.1161  0.0979
18899W        W39179   6.425   5.355  10.660 -0.1163 -0.0636 -0.1001
18900W        W39180  15.053  10.291  10.949 -0.0541  0.2757  0.0866
18901W        W39181   6.856  13.184   9.664 -0.0180  0.4738 -0.5583
18902W        W39182  19.021   7.518   1.909  0.0690  0.0296 -0.0711
18903W        W39183  14.718   5.999  12.935  0.1487  0.1393 -0.1593
18904W        W39184  11.184   9.175   0.142  0.0178  0.0853 -0.2291
18905W        W39185   9.775   7.041  12.530  0.0149 -0.1860 -0.0062
18906W        W39186  18.566  10.127   2.653 -0.1161 -0.1080 -0.1315
18907W        W39187  13.734   2.750   3.104 -0.0746 -0.3375  0.2545
18908W        W39188   7.821   9.260  12.187  0.0203 -0.1327  0.0987
18909W        W39189  10.393  17.880   0.240  0.2263  0.2113  0.0622
18910W        W39190  19.013  17.329   1.055 -0.0045  0.2852 -0.0846
18911W        W39191   4.795  11.949  12.777  0.1289  0.1558 -0.0433
18912W        W39192   1.967  16.045  10.970  0.1071  0.2070  0.0988
18913W        W39193  17.828  10.463   3.499  0.1409  0.1868  0.0630
18914W        W39194   4.011  14.763  13.062  0.3229  0.1851 -0.2580
18915W        W39195   2.142   1.424   2.264 -0.1067 -0.2559  0.0894
18916W        W39196   0.450   3.286   3.118 -0.1818 -0.3133 -0.1272
18917W        W39197   7.103   5.532  13.473  0.0299  0.1621  0.0653
18918W        W39198   1.323  12.087   3.086 -0.2051 -0.0273  0.2855
18919W        W39199  14.964  11.759   1.784 -0.2661 -0.0134  0.0265
18920W        W39200  14.678  15.071  12.908 -0.1041 -0.1715 -0.3871
18921W        W39201   8.135  15.403   4.004  0.0047  0.2470  0.1146
18922W        W39202   4.375   6.367   3.596 -0.1074  0.1255  0.1629
18923W        W39203  12.864   4.192  10.505 -0.3620  0.0670  0.2023
18924W        W39204  14.279   7.509   3.076 -0.0097 -0.3004  0.1598
18925W        W39205   8.174   9.545  11.283 -0.0884  0.0348 -0.1701
18926W        W39206  18.948   7.395  10.187  0.1420  0.0240  0.0864
18927W        W39207   5.179   9.343   1.694  0.3306  0.1400  0.0389
18928W        W39208  13.842  12.415   0.102  0.0165 -0.0869 -0.2749
18929W        W39209   4.769  15.174   2.681  0.1975 -0.1851 -0.0028
18930W        W39210  13.491  10.089   0.370  0.1252 -0.0620 -0.0617
18931W        W39211   0.436   0.695   9.389  0.3564  0.0329 -0.2162
18932W        W39212  14.881  11.192  13.399  0.1471 -0.0484  0.1225
18933W        W39213   8.328  19.082  11.958 -0.0120  0.0237  0.3132
18934W        W39214   9.823   4.363   3.471  0.1808  0.0553 -0.2182
18935W        W39215   4.489  17.586  11.084 -0.1435  0.1037 -0.2458
18936W        W39216   4.784  15.673  10.973  0.0097 -0.2050 -0.0633
18937W        W39217  11.825   3.678   2.246  0.0140 -0.1482  0.1046
18938W        W39218  12.928   2.167  11.231 -0.1393  0.1799  0.0825
18939W        W39219  14.723  11.797   2.925  0.1164 -0.4762  0.0226
18940W        W39220  18.652  10.667  11.308  0.0581 -0.2839 -0.0042
18941W        W39221  17.955  13.878   0.626  0.1594 -0.1744 -0.0454
18942W        W39222   7.138   4.851  13.929  0.2361 -0.1092 -0.0873
18943W        W39223  10.875   1.406  12.636 -0.1904  0.2725  0.2320
18944W        W39224   2.960  10.209  12.261  0.1975 -0.0643  0.0771
18945W        W39225   9.152  11.514   2.174  0.0320  0.3381  0.0726
18946W        W39226  11.286  12.334   2.268 -0.3149  0.0320  0.2746
18947W        W39227  10.079  16.102   0.766  0.1532  0.3967  0.1958
18948W        W39228  11.785   9.713   0.778  0.1580  0.3536 -0.0053
18949W        W39229   0.097   8.795  13.647 -0.0184 -0.0447 -0.0414
18950W        W39230   3.955  15.623   3.350  0.0770 -0.0156 -0.0545
18951W        W39231   8.555   5.392   3.597 -0.2445 -0.1432 -0.0876
18952W        W39232  14.515   4.584   3.650 -0.1996 -0.0597 -0.5176
18953W        W39233  12.509  10.509  12.608  0.1424  0.0782 -0.0387
18954W        W39234   2.216   3.381   4.540 -0.3956 -0.2314  0.0756
18955W        W39235   8.248  18.328   1.536  0.3585 -0.0953 -0.1902
18956W        W39236  11.198  12.412   0.658  0.2331  0.3042  0.0794
18957W        W39237  15.869   4.609   1.772 -0.0741  0.1517  0.1455
18958W        W39238   1.655   4.715   1.747 -0.2004 -0.0135 -0.3228
18959W        W39239  17.489   5.534   2.946 -0.0671 -0.0019 -0.0028
18960W        W39240   8.304   4.653   3.733  0.1318 -0.0688 -0.2536
18961W        W39241   4.089   8.640  13.299  0.0311  0.0121 -0.3368
18962W        W39242   9.880  14.935   9.722  0.0685 -0.1661 -0.0017
18963W        W39243  18.043   3.565  10.938  0.1668 -0.3538 -0.0823
18964W        W39244   3.395  15.578   1.788  0.1898 -0.0766 -0.0555
18965W        W39245  18.562   2.320   3.346  0.4033  0.0988  0.0396
18966W        W39246   2.347   4.648   2.363 -0.0967 -0.1357 -0.0935
18967W        W39247  19.118  13.422  13.003 -0.0638  0.0827  0.3409
18968W        W39248   8.903   1.136  12.098 -0.1962 -0.1076  0.2028
18969W        W39249  11.324   1.140  13.747  0.3310  0.0767  0.0235
18970W        W39250   5.080   4.383  10.382  0.0033 -0.1643  0.1383
18971W        W39251   9.256   5.784  11.782 -0.2972 -0.1961 -0.1569
18972W        W39252  14.891  13.310   2.092  0.1780  0.0316  0.2058
18973W        W39253  14.646  15.306  10.112  0.1237  0.0822  0.1107
18974W        W39254  16.274   2.061   1.897 -0.2028 -0.2681 -0.2109
18975W        W39255   2.069   0.481  10.000 -0.4016  0.2666 -0.1338
18976W        W39256   2.162  11.499   3.068  0.1157 -0.0331  0.0736
18977W        W39257   0.904  11.379  13.584 -0.0099  0.1584  0.0031
18978W        W39258  10.757   2.650  11.217 -0.0592  0.2665  0.0015
18979W        W39259   3.094   2.325  13.875  0.0946 -0.0233 -0.2244
18980W        W39260  13.694  13.753   0.657  0.3767 -0.3070  0.0716
18981W        W39261  15.316  14.665   0.139  0.4359  0.0345  0.2501
18982W        W39262   1.890  18.484   3.732 -0.0640  0.0130  0.0407
18983W        W39263  14.758  11.228   3.105 -0.0716 -0.0009 -0.0216
18984W        W39264   8.327   3.399   3.929 -0.0148  0.2544  0.1031
18985W        W39265  10.279   5.840   2.975 -0.1858  0.2839 -0.2203
18986W        W39266  10.308  16.700  14.089 -0.1406  0.0463  0.2500
18987W        W39267  13.012  11.565  13.233 -0.0906  0.0162  0.1924
18988W        W39268   0.265   5.598   0.734  0.2806 -0.1592  0.1836
18989W        W39269  11.758  12.155  11.868 -0.3723 -0.1273 -0.0282
18990W        W39270   6.066  10.699   3.633  0.0620  0.2730 -0.1507
18991W        W39271  11.788  19.234   2.336 -0.2325  0.2844  0.0009
18992W        W39272  15.202  14.201   2.611  0.3522  0.1808 -0.0083
18993W        W39273  16.659  10.872   4.657 -0.3458  0.2021  0.0173
18994W        W39274  12.091   9.475   0.337  0.3635 -0.2173  0.4273
18995W        W39275  14.610  16.261   3.288  0.0442  0.0172  0.0290
18996W        W39276   6.388   2.266   0.801  0.1306 -0.0013  0.0440
18997W        W39277  17.559  10.797   0.532  0.2813  0.0111 -0.1955
18998W        W39278   6.251   9.419  11.925 -0.0871  0.3377  0.2194
18999W        W39279  19.421  15.260  13.204  0.0798 -0.1346  0.1834
19000W        W39280  15.932   3.643  12.841  0.0206 -0.1349  0.2294
19001W        W39281  15.578  17.786   3.541 -0.1720 -0.0658  0.2011
19002W        W39282   7.403  19.610   1.184 -0.0482 -0.1605 -0.2999
19003W        W39283  17.029   8.886   0.710  0.1053  0.0609 -0.1559
19004W        W39284  11.283   0.741  14.086 -0.0367 -0.0301  0.1748
19005W        W39285  18.030  18.433  12.063 -0.3060  0.1661  0.1845
19006W        W39286   1.281   7.035   3.000  0.3727 -0.0921  0.3293
19007W        W39287  12.395  14.956   3.545 -0.1403 -0.1639 -0.1997
19008W        W39288   3.598   1.501   3.785  0.3307  0.1063  0.0844
19009W        W39289   7.611   2.235  10.804 -0.0385  0.1656  0.2130
19010W        W39290   8.355   9.301  12.010 -0.0955 -0.2372 -0.2554
19011W        W39291   3.558  18.063   1.690  0.3125  0.0085  0.1496
19012W        W39292   9.410   1.565  13.122 -0.0938  0.0248 -0.1397
19013W        W39293   9.698  18.344   0.889  0.3900  0.1922  0.0848
19014W        W39294   9.314   9.241  13.231 -0.0909 -0.2291  0.1324
19015W        W39295   5.967  18.411  12.610 -0.0128  0.3575 -0.0120
19016W        W39296   6.223  19.134  12.265 -0.0387  0.1421 -0.2257
19017W        W39297  17.780  16.196  14.080 -0.0302 -0.2811  0.0242
19018W        W39298  16.232   4.370   3.605 -0.2672 -0.0557  0.1332
19019W        W39299  17.334   3.380  13.186 -0.3076 -0.1566 -0.0539
19020W        W39300   1.224  15.266  13.254 -0.1982 -0.0319 -0.0826
19021W        W39301  13.878  10.129   3.658 -0.0628 -0.1823  0.0187
19022W        W39302   6.236   8.943  11.773  0.1344 -0.0411  0.1937
19023W        W39303   2.507  14.573   0.301  0.3124 -0.0374  0.0741
19024W        W39304  14.818  14.475   1.253  0.1363  0.1470 -0.0552
19025W        W39305  17.602  17.247   1.053  0.0236 -0.2301  0.1037
19026W        W39306  18.578  19.184  11.305  0.2240  0.0668 -0.2931
19027W        W39307   3.727  14.553  11.808  0.0586  0.2166  0.1584
19028W        W39308   4.031  18.937   0.581 -0.0785 -0.1185  0.0784
19029W        W39309  18.902  13.660  13.872 -0.1118 -0.0496 -0.0920
19030W        W39310   3.958  16.363   4.564 -0.5703  0.1647 -0.1938
19031W        W39311   1.870  10.816  11.033 -0.0867  0.4106 -0.1547
19032W        W39312  19.343   1.036   1.124  0.0078 -0.1140 -0.1557
19033W        W39313  11.739   8.654   2.135  0.2171 -0.0015  0.0927
19034W        W39314   1.482  19.388   0.346  0.0434 -0.1987 -0.1418
19035W        W39315  17.772   4.360   0.568  0.1016  0.3844 -0.0743
19036W        W39316  19.517   0.255  11.465  0.0487  0.2548 -0.0768
19037W        W39317   3.312   6.938  12.403 -0.0496 -0.0151  0.1188
19038W        W39318   2.348  13.500   2.227  0.1197  0.1513  0.1470
19039W        W39319   3.301   1.158   1.773 -0.2068 -0.0222 -0.0814
19040W        W39320   1.679   4.257   3.076  0.5655 -0.0496  0.0850
19041W        W39321  11.543   8.769   4.804 -0.1570 -0.2739 -0.0321
19042W        W39322  16.317   3.237  11.440  0.1697  0.0460 -0.1386
19043W        W39323   9.450  18.291   2.023  0.1474 -0.1427 -0.0535
19044W        W39324   6.865  10.993  13.540 -0.0640  0.1827 -0.1042
19045W        W39325  16.973   2.593  12.854 -0.0305 -0.1147  0.1953
19046W        W39326  14.909   6.226  13.354 -0.0134 -0.0750 -0.2546
19047W        W39327   7.973  11.408   1.924  0.1516  0.1921 -0.2876
19048W        W39328   6.203   5.697  10.243 -0.1794  0.1013 -0.2507
19049W        W39329  16.801   4.915   3.239 -0.0920 -0.0363  0.2132
19050W        W39330  19.505  14.716   4.155 -0.0985 -0.0452  0.2645
19051W        W39331   9.328   6.605  13.398  0.1797  0.1319 -0.1572
19052W        W39332  14.712  17.712  13.997  0.0563 -0.0818  0.0816
19053W        W39333  13.647   6.281   0.155  0.0918 -0.0892 -0.5231
19054W        W39334  15.456   3.248  13.850 -0.0964 -0.0959  0.2375
19055W        W39335   3.914   8.181   2.484  0.2246 -0.0412 -0.2365
19056W        W39336  16.437   1.003   0.315 -0.1652 -0.1094 -0.0078
19057W        W39337   3.295   6.571  14.042 -0.0164 -0.1336  0.0976
19058W        W39338   2.353  12.162  13.348  0.0414 -0.1998 -0.1336
19059W        W39339   7.353   1.760   4.771  0.5224  0.1655 -0.0716
19060W        W39340   5.811  15.803   4.959  0.1408  0.2006 -0.0996
19061W        W39341  12.872   8.935   0.715  0.0307 -0.0319  0.4218
19062W        W39342   0.340   9.860  12.393  0.1845 -0.0287 -0.2364
19063W        W39343  14.960  12.164  10.936  0.0116  0.2627  0.0588
19064W        W39344   7.840   6.517  10.719 -0.1202 -0.4420  0.1594
19065W        W39345  18.693  16.303   0.146 -0.1485 -0.3460 -0.0755
19066W        W39346  10.568   5.314   1.142  0.0127  0.2968  0.2255
19067W        W39347  10.216   6.671  11.494  0.2268  0.0325  0.0706
19068W        W39348  17.607  16.590   2.657 -0.4143 -0.1988  0.0989
19069W        W39349  12.710  19.694  10.424 -0.0871  0.1669 -0.1426
19070W        W39350  16.603   4.759  11.053 -0.0678  0.1883  0.3509
19071W        W39351  16.813  12.957  11.379 -0.2407 -0.3211  0.0351
19072W        W39352   8.540   4.628  12.649  0.1355 -0.3164 -0.1741
19073W        W39353  13.768   7.479   3.484 -0.0392  0.2524 -0.1127
19074W        W39354  13.332   2.702   2.518 -0.0301  0.1374  0.2425
19075W        W39355  15.469  15.084   1.957 -0.5866  0.2476  0.0759
19076W        W39356   8.413  15.470   0.126 -0.1327 -0.1588 -0.0518
19077W        W39357   2.980   0.715  10.746  0.0935 -0.0974 -0.1812
19078W        W39358  13.220   0.434   1.659 -0.0225 -0.0859 -0.0539
19079W        W39359   9.542   8.159  13.706  0.0655 -0.0837  0.0230
19080W        W39360   2.459  18.803   1.668  0.1015  0.1736  0.3517
19081W        W39361   4.999  11.895  10.452  0.1047  0.1894  0.0031
19082W        W39362   4.239  13.375   3.459  0.1176  0.0433 -0.0389
19083W        W39363   2.161   5.872  11.687  0.0301  0.0484 -0.0038
19084W        W39364  13.988   9.623   3.928 -0.2190 -0.1560  0.1100
19085W        W39365  10.843  13.573  10.735 -0.1016 -0.2397  0.1702
19086W        W39366  11.749  17.101  12.481 -0.0342  0.0813  0.0472
19087W        W39367  14.668   6.736   3.415 -0.1077 -0.0700  0.1252
19088W        W39368   6.018   3.116  10.982  0.1453 -0.0969 -0.0376
19089W        W39369   6.226  19.734  12.419  0.0884 -0.0057 -0.0390
19090W        W39370   6.951   1.598   3.188 -0.0439 -0.1216  0.0336
19091W        W39371  18.867   4.107   0.373  0.0810  0.1033  0.1748
19092W        W39372   6.907  19.451  10.185  0.1270 -0.1165  0.3193
19093W        W39373   4.548   4.785   3.170 -0.2566  0.0343  0.1090
19094W        W39374   9.911  12.459   2.777 -0.1338  0.0180 -0.1987
19095W        W39375  17.939   2.626  10.824  0.1124  0.0070 -0.0051
19096W        W39376  18.068   0.377  10.483  0.0011 -0.0241 -0.2313
19097W        W39377   9.197   6.826  14.025  0.5332 -0.1329 -0.1358
19098W        W39378   9.562   4.285   1.191  0.1660  0.0649 -0.2774
19099W        W39379   6.482   5.474  14.013 -0.2197  0.1791 -0.3739
19100W        W39380   2.460   8.680   1.090 -0.1664 -0.3430  0.0597
19101W        W39381  15.877  17.858   2.330 -0.0713 -0.4618  0.6484
19102W        W39382   5.394  19.608  13.469 -0.2049  0.1000  0.0948
19103W        W39383   9.963   1.457  10.039 -0.0624 -0.1672  0.0872
19104W        W39384   3.707  11.158  12.193  0.1754  0.2031 -0.2012
19105W        W39385   1.042  15.956   1.147  0.3242 -0.2797  0.0895
19106W        W39386  10.282   7.895  12.314 -0.0446 -0.1223  0.1358
19107W        W39387  17.908   6.203   0.090  0.1161  0.1021 -0.0116
19108W        W39388  17.197  19.000   1.584  0.1409 -0.0404 -0.1080
19109W        W39389  18.638  19.421   1.378  0.0769 -0.0813  0.0140
19110W        W39390  16.533  16.036   3.372 -0.1397 -0.1096  0.2308
19111W        W39391   3.965   4.884   5.097  0.2763  0.1585 -0.0601
19112W        W39392  19.150  16.868   0.104 -0.1313 -0.3927  0.2012
19113W        W39393  19.581   1.908   2.386 -0.1860 -0.0565  0.1103
19114W        W39394   2.172  11.273   9.940 -0.0506 -0.1642 -0.2369
19115W        W39395  13.085  16.748  12.799 -0.1678 -0.1024  0.2172
19116W        W39396  11.181  11.302   0.262 -0.0539 -0.1114  0.2284
19117W        W39397   1.438  19.565   1.635 -0.1242  0.1661  0.0411
19118W        W39398  18.421  15.707   2.603  0.0470 -0.1397 -0.2204
19119W        W39399  14.253   5.424  10.400  0.0248 -0.3116 -0.2696
19120W        W39400   0.999   2.750  13.420 -0.0209 -0.2024 -0.1572
19121W        W39401   5.693  14.363  13.842 -0.1728  0.1143 -0.0612
19122W        W39402   2.952  15.132  11.149  0.1625  0.0146 -0.2802
19123W        W39403   6.492   2.914  13.709 -0.3844 -0.0308  0.0615
19124W        W39404   3.833  19.073   9.879  0.0145  0.1714  0.0401
19125W        W39405   7.527   8.424   4.157 -0.1855  0.4377 -0.0962
19126W        W39406   6.879   9.005   3.936 -0.0855  0.1723  0.1799
19127W        W39407  19.379   9.333  12.260 -0.1368  0.0872  0.0239
19128W        W39408  14.633   1.091   2.844  0.2830 -0.0405 -0.0298
19129W        W39409  14.112  18.568  13.460  0.2202 -0.3001 -0.2600
19130W        W39410  17.359  10.636   0.087  0.0626 -0.0545 -0.0546
19131W        W39411  10.351  16.072  12.339 -0.1548  0.4765  0.1261
19132W        W39412  10.698   9.518  13.528 -0.0461 -0.1231 -0.0688
19133W        W39413   3.742  12.552  12.123  0.3044  0.1184 -0.0923
19134W        W39414  16.423   3.899  13.052 -0.2585  0.0370  0.1026
19135W        W39415   0.793  10.307  10.893  0.0857 -0.0610 -0.0325
19136W        W39416  11.905  17.810  11.684  0.4206  0.1297 -0.1258
19137W        W39417  18.663   7.112  11.134 -0.2343  0.1530 -0.0016
19138W        W39418  14.913   1.024   0.237 -0.0312  0.0646 -0.3113
19139W        W39419   4.889  11.799  13.277 -0.1669  0.0316 -0.3170
19140W        W39420  16.199   2.530  11.126 -0.1295 -0.0846  0.2410
19141W        W39421   7.355  15.318  12.794  0.0732 -0.0524  0.3541
19142W        W39422   3.136   6.782   0.409 -0.2786 -0.2660 -0.1372
19143W        W39423   6.940  14.241   9.332  0.0585 -0.0263 -0.0133
19144W        W39424   5.426  12.585  13.616  0.1947 -0.1380  0.1079
19145W        W39425   2.217  11.853  13.799  0.0456 -0.2361  0.1047
19146W        W39426  12.887   9.793   0.356  0.1351  0.0600  0.3620
19147W        W39427  14.134   7.570   1.603 -0.0540  0.1777 -0.1633
19148W        W39428   7.846   4.423   2.855 -0.0709  0.0791 -0.0073
19149W        W39429   0.860  15.409   1.959 -0.0800  0.1088 -0.0070
19150W        W39430  13.299   9.557   2.314 -0.0166  0.2343  0.2293
19151W        W39431   5.802   5.146   1.334  0.2114 -0.0910 -0.1097
19152W        W39432  17.156  11.607  13.140 -0.3097  0.2028  0.3793
19153W        W39433   7.945   4.711  12.881 -0.2839 -0.1633  0.2143
19154W        W39434  19.727  18.184   0.686  0.0533  0.3909  0.1223
19155W        W39435   9.170  13.951  12.825  0.2343 -0.0477 -0.0302
19156W        W39436  10.774  14.340   0.839 -0.1034 -0.1788  0.2274
19157W        W39437   5.663  18.430  10.276  0.0525  0.2787  0.0297
19158W        W39438   1.463  10.757   3.397 -0.1100  0.4613 -0.1232
19159W        W39439  18.743  13.222   3.068 -0.2362  0.1236 -0.1494
19160W        W39440  19.471  18.332  13.134  0.1425  0.0073 -0.0526
19161W        W39441  16.743   6.485   2.107  0.2022  0.1216 -0.0433
19162W        W39442   9.237  12.380   2.260 -0.1211 -0.2243 -0.2974
19163W        W39443   7.765   3.273   3.276 -0.0819  0.0490  0.1869
19164W        W39444  10.732   3.046  10.810 -0.3083 -0.0074 -0.0613
19165W        W39445   2.769   0.233   2.746  0.1762  0.2163  0.1414
19166W        W39446  17.168  19.021  13.365  0.0170 -0.1180  0.1239
19167W        W39447   5.185  10.290   3.118  0.1355 -0.0340  0.5070
19168W        W39448   6.343  13.434  11.508  0.4317 -0.0082 -0.0992
19169W        W39449  19.256   0.580   0.182 -0.1532 -0.0501 -0.3058
19170W        W39450   0.321   4.664   3.957  0.1044 -0.3390 -0.0337
19171W        W39451  11.581   9.495   1.550  0.2936  0.2642  0.2433
19172W        W39452   5.930  19.724   0.715  0.1469  0.0752 -0.1540
19173W        W39453   9.751  12.414   1.862 -0.0578  0.1410  0.0295
19174W        W39454  10.038   1.948  13.743 -0.0194  0.1869  0.2820
19175W        W39455   7.661   9.516  13.504  0.0802 -0.0639 -0.1608
19176W        W39456   8.334  13.102  12.968  0.0930 -0.0679  0.1061
19177W        W39457  10.605   6.790   1.537 -0.4349 -0.0856 -0.0646
19178W        W39458   2.692  17.235  11.472  0.0846 -0.4088  0.0256
19179W        W39459   2.263   4.537  12.535 -0.1015 -0.1684 -0.1134
19180W        W39460   0.509  15.605   1.663  0.1661 -0.1099 -0.2435
19181W        W39461   2.489   4.169  12.252 -0.3044 -0.1670 -0.0824
19182W        W39462   6.563   9.734  10.665 -0.1221 -0.2184 -0.1403
19183W        W39463  18.331   1.347  12.713 -0.1777  0.1116 -0.0051
19184W        W39464  12.759  16.051  14.083  0.1098  0.0625 -0.2438
19185W        W39465   8.244   9.789   1.391 -0.0346  0.0826 -0.0629
19186W        W39466   9.365  10.310   0.152  0.1205  0.0033 -0.0879
19187W        W39467   5.689   5.536   0.995  0.0789 -0.0207 -0.0105
19188W        W39468   6.970  17.610   2.159 -0.1588 -0.2746 -0.4756
19189W        W39469  12.214   7.726   2.853 -0.1123  0.0537 -0.2041
19190W        W39470   5.519  15.687  10.396  0.1991  0.0741 -0.1214
19191W        W39471  19.486  19.258  11.809  0.1067 -0.1340  0.1785
19192W        W39472  18.046   0.754  13.297 -0.1708 -0.0842  0.1824
19193W        W39473   5.791  17.805  10.710  0.0630  0.1869 -0.2074
19194W        W39474  17.704   9.570  11.920  0.2163 -0.1082  0.1445
19195W        W39475  18.684   4.257  11.526 -0.0981 -0.0950 -0.0350
19196W        W39476   7.132   0.493  12.062  0.0081  0.3203 -0.2126
19197W        W39477   0.843  18.030   3.266  0.2423 -0.0806 -0.0054
19198W        W39478   1.852  15.164   0.315 -0.1327  0.0017 -0.0705
19199W        W39479   5.661  13.343   3.285 -0.0623  0.4049  0.0766
19200W        W39480   0.154  18.641   2.905  0.0080 -0.1067  0.2021
19201W        W39481   0.367  18.998  10.982  0.0770 -0.1498  0.3305
19202W        W39482  18.581   7.922   2.475 -0.0487  0.0588  0.2034
19203W        W39483  14.123  10.571  10.717 -0.1179 -0.1400  0.0721
19204W        W39484  17.629   7.036  12.070  0.0607 -0.1928 -0.1955
19205W        W39485  14.900  12.461  10.533 -0.0690  0.0367 -0.0929
19206W        W39486   0.101  16.824   3.901  0.0618 -0.0233  0.0805
19207W        W39487   3.741   0.988  11.321 -0.0178  0.1721  0.0614
19208W        W39488   0.829   5.849  12.075 -0.2618 -0.2078  0.0836
19209W        W39489  18.020   8.158  13.253  0.2258  0.3997 -0.0570
19210W        W39490   1.000   1.519  12.373  0.2111 -0.0799 -0.1524
19211W        W39491   9.130  16.853  13.447  0.3218 -0.0954 -0.1189
19212W        W39492  16.304  13.856  10.416 -0.0488 -0.2129  0.2271
19213W        W39493   6.757  14.329  10.031 -0.0668 -0.1836  0.3210
19214W        W39494  14.999  16.306   2.780 -0.1103 -0.2040  0.1297
19215W        W39495  19.216   1.318   9.633  0.1268  0.0669  0.0218
19216W        W39496   9.928  18.936   3.315 -0.2312 -0.1961 -0.2739
19217W        W39497  18.064   9.597  10.370 -0.1142 -0.0150 -0.2456
19218W        W39498  18.884  16.739   3.629  0.1153  0.0472 -0.4425
19219W        W39499  17.646   8.541  13.210 -0.1450  0.0328 -0.4567
19220W        W39500   9.764   4.628  12.586  0.1831 -0.0108  0.3413
19221W        W39501  11.639   9.895   1.245 -0.2778  0.0008  0.0365
19222W        W39502   2.683   3.421  12.014 -0.0180 -0.2288  0.1427
19223W        W39503   9.578  17.587  10.338 -0.2646  0.1002 -0.1805
19224W        W39504  11.258   8.526  12.833 -0.1977 -0.2076 -0.2369
19225W        W39505   9.016  14.129   2.383 -0.0830  0.2678 -0.2830
19226W        W39506   1.935  15.916   4.339  0.4043  0.0062 -0.1468
19227W        W39507  11.141  13.655   4.306 -0.0701  0.0045 -0.0449
19228W        W39508  15.642   1.397   0.482  0.0295 -0.2132  0.1387
19229W        W39509   1.953  12.557   0.724  0.0262  0.1138  0.0003
19230W        W39510   7.821   0.712   1.878  0.0244  0.0404 -0.1996
19231W        W39511   3.428   1.655  11.729 -0.0871  0.0069 -0.2161
19232W        W39512   5.563  10.986  13.920 -0.0184 -0.1267 -0.0471
19233W        W39513   8.559   8.288   2.619 -0.0799 -0.1376 -0.0233
19234W        W39514  17.418   0.673   9.224  0.1099 -0.0392  0.0400
19235W        W39515  16.667   8.497   1.160  0.3667 -0.1513 -0.2009
19236W        W39516  13.391  12.678  13.982 -0.1735 -0.0368  0.0168
19237W        W39517  10.191   6.098  11.492  0.1456 -0.1622  0.0894
19238W        W39518   0.092   0.643   3.290 -0.1234 -0.0406 -0.2043
19239W        W39519   6.894  16.106   0.831  0.0480  0.2291  0.1602
19240W        W39520  16.198  15.337  11.639 -0.0263  0.0877  0.1969
19241W        W39521   8.700   3.334  13.353  0.2797 -0.0905  0.1594
19242W        W39522   5.750  19.473   2.998 -0.2576 -0.1573  0.3269
19243W        W39523  14.482   9.004  13.497 -0.2284  0.0205 -0.1982
19244W        W39524   9.712  18.746   3.736  0.3923 -0.0068 -0.1064
19245W        W39525  11.758   2.585  11.978  0.2174  0.0934  0.1820
19246W        W39526  12.230   7.790  13.562  0.1937  0.0052  0.3974
19247W        W39527  18.584  12.541   1.680 -0.3469 -0.0583  0.0683
19248W        W39528  11.900  10.288   0.402  0.1904  0.4037  0.0826
19249W        W39529   8.472   7.071   1.831  0.3056 -0.0736  0.0407
19250W        W39530   2.343   6.312  11.572  0.0211  0.3341  0.3085
19251W        W39531   3.533  17.274  11.946  0.2013 -0.0816  0.0902
19252W        W39532   3.312   9.965   0.733  0.1624  0.0008 -0.4263
19253W        W39533   2.600   7.101  13.557  0.0068  0.1735  0.0879
19254W        W39534   4.016  14.633   3.275 -0.2160 -0.3169 -0.3224
19255W        W39535   3.404  14.530   1.193 -0.1161  0.3209 -0.0969
19256W        W39536  10.965   0.687  10.974  0.1610 -0.0075 -0.1578
19257W        W39537   0.036   3.206   9.474  0.1211  0.1787  0.4756
19258W        W39538   9.077  16.453   1.622 -0.1548 -0.3244 -0.0773
19259W        W39539  15.358   5.846   3.610 -0.1010  0.0092  0.2957
19260W        W39540  10.706  12.446  13.028 -0.2696  0.0118  0.3305
19261W        W39541  19.222   4.982   1.494  0.1340  0.0689  0.0070
19262W        W39542  14.099   4.308  12.383 -0.0923  0.0445  0.2247
19263W        W39543  13.561   5.901  13.964  0.0523  0.1067  0.1364
19264W        W39544  14.353  11.472  12.557  0.1290  0.1020 -0.3036
19265W        W39545   2.636   1.228   2.083  0.0994  0.0991 -0.2114
19266W        W39546  15.652   6.358  11.089  0.2645 -0.1761 -0.0026
19267W        W39547  11.532  16.773   2.860  0.2725  0.1357 -0.0687
19268W        W39548   7.730  13.919   0.186 -0.2809  0.1233  0.1185
19269W        W39549  10.784   4.498  13.474 -0.0616 -0.3400 -0.0793
19270W        W39550  16.708   2.153   0.016 -0.1951 -0.1134  0.3986
19271W        W39551  16.242  19.641   3.571 -0.0023 -0.3509 -0.1752
19272W        W39552   0.621  10.810   2.531 -0.2839 -0.1438 -0.0057
19273W        W39553   8.029  17.612   0.811 -0.0175 -0.0749  0.1892
19274W        W39554  14.326   8.599  12.646  0.0578  0.1743  0.1471
19275W        W39555   0.948   8.754  10.772 -0.0296  0.1376 -0.1347
19276W        W39556   4.537  13.466   2.876 -0.1424  0.0630 -0.6292
19277W        W39557   6.902  17.151   0.136 -0.0292  0.2350 -0.0582
19278W        W39558   1.991   7.430   1.514  0.3610  0.4040 -0.0266
19279W        W39559  15.847  16.839  10.868  0.1784 -0.0534 -0.2591
19280W        W39560  19.628   7.649  12.812 -0.2782 -0.2844  0.2233
19281W        W39561  15.849  14.780   2.410 -0.1787 -0.1496 -0.2146
19282W        W39562   1.820  12.926   3.301 -0.2733  0.0998 -0.0078
19283W        W39563  16.353  10.205   2.872 -0.2619 -0.1353 -0.0960
19284W        W39564   5.483   6.478   2.884 -0.0054 -0.2444  0.2030
19285W        W39565   3.063  13.077  10.100  0.0788  0.2470 -0.1640
19286W        W39566   4.159   8.584   3.882 -0.5855  0.0123  0.1954
19287W        W39567   0.216  11.723  13.455 -0.2197 -0.0046  0.0223
19288W        W39568   7.803  13.880   3.346 -0.2420 -0.1949  0.0733
19289W        W39569   0.634  17.569  13.615 -0.2297  0.4527 -0.4483
19290W        W39570  16.054  19.264   1.676  0.0174 -0.2150 -0.3801
19291W        W39571   2.597  17.012   0.671 -0.0047 -0.1435 -0.2268
19292W        W39572  16.603  12.165  11.636 -0.1659 -0.1121 -0.0067
19293W        W39573   5.256   1.302   2.959 -0.0181 -0.1322 -0.1388
19294W        W39574  16.154   5.523   2.678 -0.3275  0.3723 -0.1806
19295W        W39575   6.730   5.734  13.694 -0.0507 -0.1688 -0.2992
19296W        W39576   0.240  10.774  13.859 -0.3560 -0.1671 -0.2187
19297W        W39577  16.761   0.840  13.838 -0.0836  0.2044 -0.2121
19298W        W39578   9.079  11.073   1.838 -0.1155 -0.2766 -0.0604
19299W        W39579   9.197   9.996   0.571  0.1968  0.1849 -0.0159
19300W        W39580  14.469   7.430   2.600  0.2529 -0.1986  0.1256
19301W        W39581  19.483  17.368   1.358  0.2505 -0.2634  0.0820
19302W        W39582  13.304   8.849   0.396  0.1458 -0.0835 -0.2739
19303W        W39583  13.468   7.135   3.278 -0.2783 -0.0940  0.0165
19304W        W39584  16.594  14.392  11.325  0.0148  0.0417 -0.0019
19305W        W39585  18.917  14.761   3.388 -0.0659  0.3649  0.0223
19306W        W39586  10.893  13.173   3.503  0.1107  0.2282 -0.0741
19307W        W39587   9.806  17.776  11.758  0.0502  0.0987 -0.2091
19308W        W39588   0.131   6.912  10.327  0.0295  0.1974  0.1215
19309W        W39589  18.915  10.186  13.094  0.1914 -0.0875 -0.0269
19310W        W39590  16.518   7.013   2.906  0.2163 -0.2881  0.3775
19311W        W39591  18.705  17.199   5.093  0.0036  0.1227 -0.2569
19312W        W39592  17.549  15.402   1.147 -0.1933 -0.0697  0.2227
19313W        W39593  14.504  18.248   1.533 -0.0470 -0.0986  0.0129
19314W        W39594  13.520   0.536  10.056 -0.0354  0.2802 -0.0703
19315W        W39595   2.069  13.731   2.934 -0.0141 -0.0686 -0.0925
19316W        W39596   7.985  13.552  13.538  0.0525 -0.0390  0.1824
19317W        W39597  17.248   4.443   1.076 -0.5726  0.0024  0.1755
19318W        W39598   3.747   5.069   1.327  0.0226  0.3066  0.0347
19319W        W39599   7.371  15.549  10.944  0.0905 -0.1900 -0.2128
19320W        W39600   2.358   6.829  14.093 -0.0645  0.0018 -0.0056
19321W        W39601  15.076   5.964   1.821  0.2670  0.1004 -0.3120
19322W        W39602   0.837  15.716  12.130 -0.0715  0.3937 -0.0800
19323W        W39603   3.513   4.838  13.529 -0.2024 -0.0387 -0.0441
19324W        W39604   8.461  13.531   2.624  0.2291  0.0510 -0.2144
19325W        W39605   5.422   4.669  13.728  0.2045 -0.0165 -0.1447
19326W        W39606  19.111  19.067  11.430  0.1167 -0.1835  0.0272
19327W        W39607   5.430   9.503  11.661 -0.0471  0.2022  0.0127
19328W        W39608  10.119   5.243  11.180 -0.2902 -0.1520 -0.1088
19329W        W39609  12.340   2.789   9.385  0.0889  0.0174  0.0259
19330W        W39610  11.288  12.946  13.912  0.1169 -0.0634  0.1050
19331W        W39611  15.233  13.573  11.166  0.1331 -0.0624  0.2380
19332W        W39612  10.901  15.135   1.534 -0.1103 -0.4467 -0.2033
19333W        W39613  10.701  18.722   1.891  0.0334 -0.2796 -0.1659
19334W        W39614   8.163   1.397  13.661  0.0350 -0.2121 -0.2014
19335W        W39615   6.565  14.923   2.642 -0.1626  0.0874  0.1877
19336W        W39616  16.641   0.936   1.675 -0.0531  0.0040 -0.2775
19337W        W39617   8.140   6.817   1.531 -0.1957  0.0154  0.0588
19338W        W39618  13.062  14.442   0.253  0.2965  0.1281  0.0497
19339W        W39619  16.595   6.958  12.704  0.0035  0.3610  0.5144
19340W        W39620   4.544   6.286  12.346 -0.0705 -0.1630  0.0701
19341W        W39621  11.516  19.587   0.970 -0.0705 -0.1075 -0.2878
19342W        W39622   2.493  15.992  10.875  0.0555  0.1644  0.0343
19343W        W39623   5.721  14.571   3.238  0.2133 -0.0463  0.0101
19344W        W39624   5.297   7.079  13.268  0.1089 -0.1695 -0.0093
19345W        W39625   6.753  15.044  13.481  0.5769  0.0814  0.0703
19346W        W39626  10.510   9.319   0.287  0.1536  0.2088 -0.1477
19347W        W39627  14.858  11.820  11.895 -0.1497  0.0565  0.2185
19348W        W39628  10.625   0.502   1.925  0.0517 -0.2537  0.0475
19349W        W39629   0.400  16.869  11.877 -0.1705 -0.0050 -0.2535
19350W        W39630  19.019   2.188  10.814 -0.0973  0.0809 -0.1653
19351W        W39631  12.660  16.323   3.474 -0.4275 -0.4020 -0.0570
19352W        W39632   5.006   7.786  11.210 -0.0202  0.1340 -0.2163
19353W        W39633   1.931  19.635   1.495 -0.1811 -0.1088 -0.0453
19354W        W39634  16.514   6.276  13.182  0.0336 -0.0739  0.0740
19355W        W39635   4.822   1.958  13.488  0.1230 -0.2513 -0.2007
19356W        W39636   9.643  18.926  12.303 -0.3512 -0.0912 -0.0846
19357W        W39637   1.611   0.388  10.263  0.0335 -0.0995  0.0065
19358W        W39638   7.868   2.650   0.223 -0.0462 -0.0179 -0.2130
19359W        W39639  17.423  17.042   0.368 -0.1852  0.0136 -0.3450
19360W        W39640   0.257   1.126  10.262  0.0475 -0.1472  0.0199
19361W        W39641  14.661   3.575   1.702 -0.0319 -0.0942  0.1933
19362W        W39642  11.810   5.501  11.146 -0.1310 -0.1942 -0.0572
19363W        W39643   6.485  17.229  10.978 -0.1535  0.0557 -0.1116
19364W        W39644   0.727  10.468   1.529 -0.0676  0.1408  0.3670
19365W        W39645  15.721   5.617  13.310  0.3289  0.1953 -0.2694
19366W        W39646  16.255   2.963   1.807  0.4227 -0.0072 -0.0901
19367W        W39647  16.952   6.708   1.128 -0.1741  0.1703  0.1778
19368W        W39648   0.897   6.168   3.026 -0.1358 -0.3363  0.3610
19369W        W39649   1.601  14.900  10.210 -0.1293  0.1001 -0.0813
19370W        W39650   6.414  15.045  13.059  0.0082 -0.3263 -0.2492
19371W        W39651  13.760   6.856  11.272  0.0386 -0.4147  0.1353
19372W        W39652   2.662   8.885   9.573  0.0474 -0.2528 -0.4872
19373W        W39653   6.557  12.518  12.348  0.0530 -0.2454  0.2256
19374W        W39654   5.970  16.992  10.911 -0.1678 -0.2186 -0.0346
19375W        W39655  15.727   4.298   0.275 -0.2109 -0.1478  0.1909
19376W        W39656   2.564   2.850   1.594  0.1702  0.0135 -0.0937
19377W        W39657   2.939   4.546   1.056 -0.1167  0.0267  0.1477
19378W        W39658  12.149  14.528  12.363  0.2126  0.2151 -0.3306
19379W        W39659  15.015   7.581   3.798  0.0596  0.3342  0.2543
19380W        W39660   0.405   0.231  11.523  0.0586  0.0972 -0.2158
19381W        W39661   6.542   9.395   2.893  0.1894  0.1298  0.0075
19382W        W39662  10.495   0.898  11.297  0.0243 -0.1312  0.3284
19383W        W39663   2.463  18.217   1.967  0.0316  0.2781 -0.1166
19384W        W39664  18.265   0.576   1.448  0.0500  0.2803 -0.0179
19385W        W39665   7.795  17.908  12.250  0.0840 -0.1619  0.2784
19386W        W39666   1.178   4.049  13.934  0.1657  0.0239 -0.3462
19387W        W39667  13.282  19.712   1.924 -0.2198  0.0894  0.2125
19388W        W39668  19.617  18.575   2.096 -0.0528 -0.1081  0.0814
19389W        W39669  10.414   6.028   3.398 -0.0963  0.0168  0.2166
19390W        W39670  14.176   4.008  11.575 -0.0747 -0.2884  0.2754
19391W        W39671   2.655   4.364  13.779  0.1203 -0.0440  0.2909
19392W        W39672   8.004  12.570  12.344 -0.0320 -0.0446 -0.2534
19393W        W39673  15.838  14.671   1.113 -0.0217 -0.0267  0.1081
19394W        W39674   6.009  11.595   4.046  0.1945  0.0784  0.1437
19395W        W39675   2.935  16.654   2.288 -0.4522  0.1484 -0.0507
19396W        W39676  15.738   9.910   2.318 -0.1422  0.4071  0.1952
19397W        W39677   3.356   0.596   2.535  0.0052  0.0314 -0.0140
19398W        W39678  12.759   0.396  11.687 -0.0954 -0.0854 -0.1854
19399W        W39679   1.464   4.677  12.135  0.0204  0.3694  0.2575
19400W        W39680   2.759  13.344  12.712  0.1694  0.1159 -0.2653
19401W        W39681   2.117  18.762   3.244 -0.1551  0.1122  0.0183
19402W        W39682   5.741  16.446   2.275  0.2079 -0.1719  0.0828
19403W        W39683  17.531  17.072  10.874 -0.0131  0.2608  0.2504
19404W        W39684   2.429  15.765   0.469 -0.1539 -0.2837 -0.0384
19405W        W39685   5.965   0.455  13.734 -0.0021 -0.1382  0.3408
19406W        W39686  16.258  12.168   1.492 -0.1656  0.1584  0.1917
19407W        W39687   2.185   0.921   1.980  0.1356 -0.0986  0.2020
19408W        W39688   3.440  10.212   3.882 -0.1348  0.0317 -0.0475
19409W        W39689  16.946   9.690  12.251 -0.0127  0.0818  0.2470
19410W        W39690   4.515  14.942  10.569 -0.1033  0.3518  0.0078
19411W        W39691   3.389   4.379  13.255 -0.0365  0.0966  0.0370
19412W        W39692  11.632   1.039   0.128  0.3021  0.1068 -0.1314
19413W        W39693  12.253   1.115   3.564  0.0992 -0.0058 -0.1323
19414W        W39694  11.593  19.587  10.360 -0.0243  0.2931  0.1118
19415W        W39695   5.969   3.618   3.142 -0.1718  0.0076 -0.0410
19416W        W39696  13.024   0.996  10.088 -0.1983 -0.1426 -0.1130
19417W        W39697  15.919   7.467   3.002  0.0534  0.0962  0.0054
19418W        W39698  13.115   0.238   0.311 -0.1014  0.3671 -0.1977
19419W        W39699  18.468  11.979   3.605  0.0569 -0.3319  0.1636
19420W        W39700  16.679   7.883   3.959 -0.3200 -0.1952 -0.1212
19421W        W39701  17.347  12.151  13.184 -0.0106 -0.0206  0.3294
19422W        W39702   1.900   2.665  10.630 -0.2941 -0.0149 -0.2452
19423W        W39703   1.282   9.623  12.132  0.2690 -0.2223  0.2072
19424W        W39704   0.045  17.324   0.486 -0.1710  0.2881  0.2415
19425W        W39705   5.711   1.023  13.056  0.2189  0.1334 -0.1520
19426W        W39706   0.070  19.700  12.849  0.1280 -0.1230 -0.3433
19427W        W39707   3.249  19.038   0.092 -0.0606 -0.0883 -0.1631
19428W        W39708   1.015   2.508  12.345  0.0406 -0.0836 -0.0537
19429W        W39709   2.778   3.296  13.990  0.0799 -0.0253  0.0926
19430W        W39710  12.733  15.786  10.278 -0.0601 -0.2535  0.3257
19431W        W39711   0.712   9.742  10.969 -0.0774 -0.0130 -0.0692
19432W        W39712   2.574   7.447  11.480 -0.0169 -0.1666 -0.0658
19433W        W39713   0.957   5.937  11.442 -0.0492 -0.2596  0.0456
19434W        W39714  14.561   1.883   3.060  0.0446 -0.4964 -0.0346
19435W        W39715   8.508  10.907   2.339 -0.2728 -0.1672  0.2987
19436W        W39716   0.691  16.328   0.094 -0.3048  0.1732 -0.2429
19437W        W39717  16.640   6.679  11.036  0.1694  0.1920  0.2088
19438W        W39718   5.523  13.248   3.754 -0.0190 -0.3507  0.3830
19439W        W39719   0.988  12.157   1.817 -0.0547  0.2982  0.1305
19440W        W39720   9.749  18.993  10.246  0.5057  0.0605 -0.2316
19441W        W39721   1.431   2.058   0.513  0.0278  0.3895  0.3401
19442W        W39722  11.383  13.016  13.331  0.1268  0.1158  0.0329
19443W        W39723  15.362  11.009  11.297 -0.1817 -0.2190 -0.0675
19444W        W39724   7.328   1.490  11.933  0.0720  0.0989 -0.4023
19445W        W39725   1.429   1.537   9.710  0.0130 -0.1587 -0.3072
19446W        W39726   2.528   7.748  11.116 -0.0383  0.0484 -0.3236
19447W        W39727  11.273  12.717  10.265 -0.0799 -0.1385  0.0066
19448W        W39728  11.966   9.767   2.107 -0.0287  0.3039 -0.1163
19449W        W39729   6.270  13.023   3.782 -0.1104 -0.0521 -0.2167
19450W        W39730  10.710   3.253   0.935  0.1239  0.0104  0.1853
19451W        W39731  14.942   6.444  11.652  0.0750  0.0423  0.0433
19452W        W39732   0.428  16.260   0.537  0.3048 -0.3286  0.2601
19453W        W39733   7.181   5.058   0.359  0.1289  0.1054 -0.2738
19454W        W39734   7.271  18.096  13.093 -0.1449  0.0028 -0.1106
19455W        W39735  13.215   5.663  13.009  0.0811  0.1606  0.4499
19456W        W39736   3.886   2.942  11.716 -0.3066 -0.0509  0.0019
19457W        W39737  16.437  13.325   4.145  0.0017  0.3103 -0.4013
19458W        W39738   9.154  15.022   1.171  0.3054 -0.0921  0.0795
19459W        W39739  12.923   9.782  12.990 -0.1438  0.1362  0.2804
19460W        W39740   9.348  15.603  10.824  0.2351  0.1852 -0.1708
19461W        W39741  16.028   4.065   2.639 -0.2641  0.0006 -0.1594
19462W        W39742  15.629   5.509  13.835  0.1057 -0.3017  0.1732
19463W        W39743  18.404   1.013  10.892 -0.2798 -0.0087  0.2452
19464W        W39744   6.019   9.071  12.903  0.0515 -0.2165 -0.3324
19465W        W39745   8.305  19.339  10.286 -0.2210 -0.2334 -0.0114
19466W        W39746   7.648  14.962   0.736  0.1786 -0.5692  0.2981
19467W        W39747  17.904   8.435   2.858 -0.2015  0.3254 -0.2868
19468W        W39748  16.636  10.597   0.940 -0.1664 -0.4884  0.2083
19469W        W39749  18.166   0.247   3.538  0.0061  0.0605 -0.1814
19470W        W39750   5.021   1.560  10.351 -0.0203 -0.0320 -0.2502
19471W        W39751   3.164   3.689  12.624 -0.1593 -0.2439 -0.1155
19472W        W39752   4.701  18.349   4.818  0.0574  0.1781  0.1618
19473W        W39753  19.189   4.030  12.317  0.0492 -0.0011  0.1184
19474W        W39754   6.746   2.064  11.651 -0.1371  0.1689 -0.2257
19475W        W39755   2.389   1.670  11.382  0.1445  0.2534 -0.0026
19476W        W39756  17.910  13.652   3.308 -0.0381  0.0712 -0.3393
19477W        W39757   6.426   6.082   2.768  0.0206 -0.0350  0.2172
19478W        W39758   1.865  11.298   4.262 -0.0141 -0.0028  0.0630
19479W        W39759   1.792   3.089   4.912 -0.2351  0.1208  0.1681
19480W        W39760   0.628   9.812   2.813  0.0221  0.2686  0.2004
19481W        W39761   8.996   2.283  10.931  0.1515 -0.1319 -0.2952
19482W        W39762  13.437  18.438  11.549 -0.2012 -0.1890 -0.2398
19483W        W39763   8.945   0.689  12.826 -0.1554 -0.1243 -0.2017
19484W        W39764  14.761  11.752  12.372  0.0660  0.0350 -0.0975
19485W        W39765   9.625  19.642  11.555  0.0260 -0.0245 -0.1389
19486W        W39766  13.483  11.078   2.811  0.2091  0.0759  0.1241
19487W        W39767   7.121   5.611   3.418  0.0696  0.1721 -0.1157
19488W        W39768  15.804  10.563  11.179  0.2431 -0.2213  0.3196
19489W        W39769  12.315  15.455  11.498  0.0138  0.2342 -0.0659
19490W        W39770   4.231  15.350   2.408 -0.4444  0.0940 -0.1261
19491W        W39771   2.106   2.247  11.220 -0.2793 -0.3677 -0.0543
19492W        W39772  15.931  15.572  11.270 -0.0045 -0.1108  0.0001
19493W        W39773   3.987  19.481   0.499 -0.1576  0.0953 -0.1263
19494W        W39774   6.330   2.100  10.383  0.0137 -0.3574  0.0410
19495W        W39775   9.988   3.659  10.639 -0.0559 -0.1199 -0.0664
19496W        W39776   9.703  11.573   9.640 -0.2273 -0.1492 -0.0220
19497W        W39777  19.310  19.106  13.427 -0.0655  0.0690  0.2766
19498W        W39778   4.238  19.389   1.497 -0.2555 -0.2013  0.2795
19499W        W39779  13.044   3.952   0.130  0.0725 -0.1751 -0.3414
19500W        W39780   1.297  13.676   4.339  0.0404 -0.1342  0.1446
19501W        W39781  19.163   9.912   3.387 -0.3622 -0.0754 -0.3421
19502W        W39782  17.670  11.871  12.932 -0.1868  0.0135 -0.0681
19503W        W39783  11.521  16.969  11.469 -0.2036  0.3136  0.1219
19504W        W39784  18.788   9.606   3.528  0.0418  0.3266 -0.1558
19505W        W39785  16.785   1.180  12.961 -0.1741  0.0418  0.1603
19506W        W39786   8.758  15.961   0.932 -0.1612 -0.1224  0.0369
19507W        W39787  10.117  18.536   2.519 -0.1337 -0.1406  0.3139
19508W        W39788  19.015   2.480   2.810  0.2570 -0.0358  0.0289
19509W        W39789   8.018  11.928  10.218  0.1679 -0.0695  0.1850
19510W        W39790   6.455  15.851   3.836  0.1072 -0.2436 -0.0357
19511W        W39791  10.171  18.693   3.985 -0.1345 -0.2035 -0.1741
19512W        W39792   2.240   5.149   4.005  0.3767  0.0365  0.2775
19513W        W39793  18.898  11.142  13.174 -0.0781 -0.2133  0.0209
19514W        W39794  19.140   6.206  10.996  0.0200 -0.0610 -0.1816
19515W        W39795   0.465  15.804  12.900 -0.0757 -0.2331 -0.2428
19516W        W39796   9.053  18.525   3.174  0.0473 -0.2679 -0.0552
19517W        W39797  10.658   4.986  13.428 -0.2465 -0.1013 -0.0859
19518W        W39798   3.685  10.941   1.992 -0.2581  0.0054  0.5094
19519W        W39799   2.107   5.847  12.695 -0.1742  0.3278 -0.1643
19520W        W39800   4.116  19.123  11.138  0.2083  0.1797 -0.1122
19521W        W39801  11.880  17.529   3.456 -0.2145 -0.0164 -0.2231
19522W        W39802   8.914   6.218   0.589  0.1024  0.1448 -0.0859
19523W        W39803   9.738   0.110  12.541  0.0447 -0.2758  0.3594
19524W        W39804   5.642  18.207   4.126  0.0532  0.1011 -0.5233
19525W        W39805  10.064   6.079  12.343 -0.0170 -0.3507 -0.3357
19526W        W39806   1.367   9.927  11.722 -0.0336  0.0866  0.0453
19527W        W39807   9.545  11.399  13.642  0.1125  0.0096 -0.3579
19528W        W39808   7.051   9.433  10.069 -0.0553  0.0028  0.1677
19529W        W39809   8.508  19.006   2.460  0.0267  0.0183 -0.2538
19530W        W39810   6.281  10.245  10.815 -0.1687 -0.0234  0.0773
19531W        W39811  17.715  18.314  10.397 -0.1005 -0.1338  0.0960
19532W        W39812  10.363  10.149   3.756 -0.0670 -0.0709  0.1197
19533W        W39813  19.139  13.984   0.712  0.0617 -0.5381  0.3201
19534W        W39814  10.166   3.629  11.178  0.3916  0.1283  0.1666
19535W        W39815   6.080   9.060   0.824  0.0636  0.2646  0.0775
19536W        W39816  16.486   8.958   9.952 -0.0602 -0.0750  0.0632
19537W        W39817   4.124   4.208  11.574 -0.1643  0.3734 -0.0660
19538W        W39818   3.277  15.406   2.240 -0.0987 -0.1159  0.1208
19539W        W39819  18.640  16.677  11.963  0.0008 -0.0493  0.2710
19540W        W39820  19.324  15.450   2.737 -0.0536 -0.1695 -0.1647
19541W        W39821   7.256  16.487   3.822 -0.3352  0.0252  0.1204
19542W        W39822   6.299  19.739   3.254 -0.1518  0.2841  0.0362
19543W        W39823   8.318   8.398   4.151 -0.0984  0.0355 -0.1237
19544W        W39824   8.935   5.277  13.721  0.3524 -0.3833  0.1020
19545W        W39825   2.044  12.103   2.268  0.0383 -0.0411 -0.1630
19546W        W39826   6.753   3.806  12.015 -0.0426 -0.0812 -0.0898
19547W        W39827  16.907  17.634  14.041  0.3359  0.2332 -0.0204
19548W        W39828  14.868   6.981  11.762 -0.2662 -0.2122  0.2410
19549W        W39829   3.843   2.660   4.169  0.0634  0.3038  0.2539
19550W        W39830  11.238   9.103  10.202 -0.5623 -0.0499 -0.0676
19551W        W39831   6.889  14.359   0.151  0.3056 -0.1435 -0.2539
19552W        W39832  15.906  12.956  12.128  0.1260  0.3437 -0.3345
19553W        W39833   1.701  18.119  11.231  0.0785 -0.4138 -0.1473
19554W        W39834  16.900  12.056   0.306  0.4194  0.0448 -0.0611
19555W        W39835  17.652  15.923   3.245 -0.2903  0.2584 -0.1908
19556W        W39836   9.545   9.958  10.785 -0.1628 -0.1236  0.0792
19557W        W39837  12.935  13.953  12.470  0.0447 -0.3122 -0.2254
19558W        W39838   0.161   2.385  13.146  0.1128  0.0593 -0.0047
19559W        W39839   9.324   0.309  12.923 -0.1210 -0.0312 -0.1010
19560W        W39840  17.115   6.977  12.851  0.3565 -0.0721  0.2488
19561W        W39841   2.373  14.112   1.613  0.1042  0.2460 -0.0703
19562W        W39842  14.261   0.770  13.216  0.0230 -0.1366 -0.1263
19563W        W39843  17.233  13.412   0.622 -0.2865 -0.0684  0.1476
19564W        W39844   3.409   7.363  10.726 -0.1334 -0.1208 -0.0066
19565W        W39845  12.277  17.927  12.654 -0.0876 -0.1637 -0.0625
19566W        W39846   4.945  12.216  10.799  0.0090 -0.2800  0.0725
19567W        W39847   5.325   2.250   0.208  0.2957  0.1302 -0.1803
19568W        W39848  19.107   2.073  10.294  0.0190 -0.0043  0.1126
19569W        W39849   7.232  19.312  12.146 -0.0107 -0.1772 -0.1706
19570W        W39850  16.730   7.430   1.994 -0.0485 -0.1631 -0.0055
19571W        W39851  10.153  17.345   1.608  0.2006  0.3154 -0.1086
19572W        W39852  10.577  12.723  13.397  0.0917  0.1213 -0.1579
19573W        W39853  10.204  19.187  10.359  0.4291  0.0381 -0.0895
19574W        W39854  12.329  14.638  10.880 -0.1404 -0.1300 -0.2976
19575W        W39855  19.077  15.656  13.363 -0.2187 -0.1751 -0.0161
19576W        W39856  19.419   6.800   4.943  0.2724  0.0547  0.0637
19577W        W39857  15.004   1.626   2.824  0.1797 -0.0557 -0.0597
19578W        W39858  13.181   5.563   2.643  0.4751 -0.0385  0.1016
19579W        W39859   2.356  19.289   0.743  0.3658  0.1204 -0.0776
19580W        W39860  12.579  12.329   0.840  0.0784  0.1052 -0.0782
19581W        W39861  10.110  13.066  12.396  0.0957  0.1416 -0.0192
19582W        W39862  14.285   8.894   2.411  0.0428  0.1210  0.0251
19583W        W39863  11.252   3.483   0.221 -0.0734  0.0065  0.1353
19584W        W39864  16.395   6.926  11.523 -0.0654 -0.0695  0.2427
19585W        W39865   2.485   9.738   1.489  0.1198  0.1780  0.1739
19586W        W39866   6.252  19.556   4.657  0.2565 -0.1623  0.0491
19587W        W39867  12.832   6.739   0.434  0.4951 -0.0754  0.1077
19588W        W39868   6.803  17.701   2.734 -0.3055 -0.1166  0.3170
19589W        W39869  16.448  19.317   0.198 -0.1103 -0.2530 -0.0399
19590W        W39870   6.861  13.885   3.317  0.2787  0.2651  0.1659
19591W        W39871   7.919   1.274  11.130 -0.2397 -0.0311  0.5598
19592W        W39872   2.964  12.128  12.128  0.2095  0.0486 -0.0387
19593W        W39873  10.616  16.153   0.676 -0.0092  0.5270 -0.1331
19594W        W39874   2.334  12.724   1.425 -0.2154  0.0447 -0.0754
19595W        W39875   7.233   4.111  11.705 -0.0117  0.1354  0.0909
19596W        W39876   2.344   2.995  13.532 -0.4415 -0.2438  0.1817
19597W        W39877  14.593  17.770   1.412 -0.1731 -0.2176  0.2357
19598W        W39878   4.506  17.042   3.657 -0.0362 -0.2420  0.1134
19599W        W39879   7.564  12.178   5.199  0.1677  0.1835  0.4202
19600W        W39880  19.355  17.385  12.870 -0.0185 -0.2050 -0.1441
19601W        W39881  16.265  19.260   2.657  0.4684 -0.0170 -0.2829
19602W        W39882   8.948   2.339   1.304  0.2897 -0.0718  0.0736
19603W        W39883   0.105   1.577   1.578 -0.0302 -0.4745  0.1664
19604W        W39884  13.318   9.760   0.064  0.1185 -0.1065  0.0379
19605W        W39885  18.455   0.271   1.923  0.2503  0.1224  0.1631
19606W        W39886  19.264  19.361   3.975  0.2154 -0.4836  0.0116
19607W        W39887   1.621   5.199   4.482 -0.0517  0.0481  0.1400
19608W        W39888   5.911   0.524   3.836  0.0761  0.0735 -0.1628
19609W        W39889  17.532  16.896  11.484 -0.2913 -0.0258  0.2069
19610W        W39890  12.931   9.022  11.486  0.4615 -0.1940 -0.1418
19611W        W39891   1.003   5.512   0.590 -0.0325  0.1893 -0.0503
19612W        W39892  18.623  11.855   0.576  0.1193 -0.0552 -0.2087
19613W        W39893   7.890   3.895  14.005 -0.1118  0.0303  0.2488
19614W        W39894   4.382   7.727   1.331 -0.1714  0.0439 -0.1543
19615W        W39895  19.347   0.570  10.810  0.1222  0.0083  0.2028
19616W        W39896   6.055  17.211  12.473  0.1879  0.0260  0.2193
19617W        W39897   5.769   7.211   1.129 -0.3626 -0.0903 -0.0157
19618W        W39898   6.777  10.222  12.202  0.1052 -0.0935  0.1411
19619W        W39899  11.953   8.196  13.220  0.0535 -0.3121 -0.0443
19620W        W39900  17.942  12.398   0.730 -0.1118  0.1064 -0.0477
19621W        W39901  10.554  13.079  13.854  0.0265 -0.2028  0.4006
19622W        W39902  17.119  12.579  13.105  0.4054  0.0243  0.1733
19623W        W39903   1.466   6.791  13.719  0.0893  0.0586 -0.1484
19624W        W39904  17.384  15.033   1.900 -0.0446  0.0033 -0.0414
19625W        W39905  17.482   1.504   0.212 -0.2063  0.2570 -0.1431
19626W        W39906   7.005  16.299  10.928  0.0042  0.0761 -0.0757
19627W        W39907  13.132  13.087   2.095  0.3508  0.1586  0.1034
19628W        W39908   7.896   5.846   2.030  0.2181 -0.0865 -0.0489
19629W        W39909   1.147   6.219   0.573  0.2789  0.0804 -0.2235
19630W        W39910  17.539   7.968   9.850  0.0697 -0.3921 -0.2427
19631W        W39911   8.129   4.718  13.485 -0.2921  0.1184 -0.1266
19632W        W39912   3.674  19.262   9.465 -0.3018 -0.0338 -0.1250
19633W        W39913   1.937   3.507   2.986  0.1072  0.0466 -0.0520
19634W        W39914   1.541   8.103   3.076  0.1158  0.1655 -0.1880
19635W        W39915  13.750  16.336  12.009 -0.2437  0.0502 -0.0768
19636W        W39916  18.983  14.797  10.307  0.0833  0.0713  0.1353
19637W        W39917   5.749   6.854  11.539  0.3156  0.1496  0.1024
19638W        W39918   6.498   9.052  12.181  0.0246 -0.1768  0.1925
19639W        W39919   2.133  18.391  13.291 -0.1737  0.2759 -0.0812
19640W        W39920   1.300  11.677   3.564 -0.1029  0.3513  0.3125
19641W        W39921   5.614  17.349  12.744  0.3525 -0.1012 -0.1209
19642W        W39922   6.469  18.904   2.698 -0.0615 -0.1008  0.3143
19643W        W39923   2.568  16.613   1.048 -0.0611 -0.3419 -0.0363
19644W        W39924   5.809   3.671  12.223 -0.3096 -0.1940  0.1137
19645W        W39925  14.165  11.247  11.522 -0.0746  0.2368 -0.3161
19646W        W39926  18.050   8.512   1.174  0.1227 -0.0082 -0.0558
19647W        W39927   8.543  11.379  13.620  0.2243 -0.0423  0.0927
19648W        W39928  16.962   7.525   1.514  0.1226  0.1608  0.2737
19649W        W39929  15.010   0.099  13.392  0.1413  0.2920  0.3120
19650W        W39930  19.201   9.117   9.890  0.0692  0.0206  0.0918
19651W        W39931  10.714  10.262  11.124  0.2514  0.2133  0.2319
19652W        W39932  14.612  12.907   0.334  0.1863 -0.2093 -0.1070
19653W        W39933  18.920  12.876   4.407  0.0687  0.1610  0.0206
19654W        W39934  17.624  18.812  13.553  0.1253  0.2623  0.1161
19655W        W39935  17.908  10.686   1.952  0.3230  0.2239 -0.1842
19656W        W39936  13.369   7.941   1.927 -0.0036 -0.0967 -0.0455
19657W        W39937  13.296   2.056  13.473  0.0410  0.1133  0.4642
19658W        W39938  19.305  18.640   3.249  0.1583  0.1507 -0.2858
19659W        W39939   3.434   1.607   9.274  0.1248 -0.0067 -0.0395
19660W        W39940  13.317  11.837   1.995  0.0863 -0.1393 -0.1587
19661W        W39941   2.265   8.350   1.393 -0.2695  0.1786  0.0733
19662W        W39942   9.373   1.270   1.086  0.2877 -0.2916 -0.1497
19663W        W39943  11.622   6.684  10.450  0.1394 -0.0648  0.1319
19664W        W39944  10.431  19.087   1.476  0.0836 -0.3640 -0.0159
19665W        W39945  13.679   2.542  10.876  0.1247 -0.0970 -0.0973
19666W        W39946   7.392  15.064  10.970 -0.3211  0.2238  0.2856
19667W        W39947  14.427  10.700   0.648  0.1851  0.1383  0.0327
19668W        W39948   1.228   5.258   1.641  0.0235 -0.1253 -0.0007
19669W        W39949   8.668  12.076   9.217 -0.1749  0.0186 -0.1109
19670W        W39950  10.203   4.735   2.404 -0.1441 -0.1640  0.3916
19671W        W39951  12.775  10.192   3.499 -0.2000  0.1168 -0.2625
19672W        W39952  13.940  18.962  13.194 -0.1128  0.0548 -0.4753
19673W        W39953   4.104  11.814  11.453 -0.4733  0.2704  0.1044
19674W        W39954   5.236  17.840   9.094  0.1525 -0.2060 -0.0854
19675W        W39955  15.075   9.589   2.478  0.0825  0.1346 -0.1161
19676W        W39956   7.590   4.350  11.108  0.2619  0.2109 -0.2363
19677W        W39957   3.008  14.502  13.249  0.2377 -0.2719  0.1874
19678W        W39958   9.630  14.867   3.358 -0.2639 -0.5464  0.1781
19679W        W39959  16.873   1.287   0.089  0.0643 -0.1397 -0.3095
19680W        W39960  11.712  12.270   1.465 -0.1132  0.3017 -0.0278
19681W        W39961   0.803  13.908  11.190 -0.1673  0.0249 -0.1590
19682W        W39962  10.023  19.145  12.680 -0.1056  0.4108  0.1948
19683W        W39963   8.796   6.946  13.298  0.0298 -0.1087 -0.2789
19684W        W39964   9.857  16.041  11.658  0.1016  0.1274 -0.1108
19685W        W39965  19.417  12.482  10.434 -0.1238  0.3353  0.1293
19686W        W39966  17.315  16.756   3.588  0.0783  0.4276  0.2652
19687W        W39967  16.082  14.911   1.869 -0.1240 -0.3160 -0.1716
19688W        W39968  16.448   3.265   3.040  0.1500 -0.0696  0.0433
19689W        W39969   6.495  10.435   3.459  0.0177 -0.0615  0.1295
19690W        W39970   1.250  16.844  11.453  0.5701 -0.1370  0.2312
19691W        W39971   8.320   1.040  10.045 -0.1107 -0.2688  0.2264
19692W        W39972   8.473   3.746   2.146  0.2616  0.1271 -0.0515
19693W        W39973   0.745  15.201  13.401 -0.2800 -0.1211  0.0378
19694W        W39974   2.868   3.735   4.043 -0.0031  0.2363 -0.0449
19695W        W39975   4.575  19.138  12.144  0.3356  0.0600  0.0163
19696W        W39976  16.424  15.612  11.265 -0.1820 -0.0120  0.0272
19697W        W39977   3.669  18.747  10.865  0.0250 -0.0321  0.1872
19698W        W39978   4.965   0.510   3.432  0.1256 -0.0055  0.2315
19699W        W39979   2.704  11.354   0.379 -0.2347 -0.1660  0.0752
19700W        W39980  19.230  10.178   2.501  0.3225  0.1185  0.1182
19701W        W39981   6.862  16.776   3.890  0.0295 -0.0014 -0.1289
19702W        W39982   2.155  13.251  10.454 -0.1836 -0.0936  0.2431
19703W        W39983   1.138   1.348   2.674  0.5688 -0.0679 -0.1049
19704W        W39984  11.275  11.664  13.880  0.2232 -0.2893 -0.0791
19705W        W39985  10.842  16.616  13.419 -0.1268  0.0916  0.2512
19706W        W39986  13.008   8.801  13.725 -0.0054 -0.1149 -0.1208
19707W        W39987   9.830   2.164  13.357  0.2050 -0.1482  0.1898
19708W        W39988   5.966   8.852   3.513  0.0361  0.2196 -0.2119
19709W        W39989  13.207   8.149   0.928 -0.2094  0.1763 -0.2456
19710W        W39990  10.885  18.496   1.330  0.1065 -0.0113 -0.0744
19711W        W39991   4.041   7.057   1.650  0.1153 -0.4715  0.1552
19712W        W39992   1.908   1.367  12.834 -0.0537  0.2393  0.0905
19713W        W39993   7.589  18.159   1.099 -0.0802 -0.0614  0.3176
19714W        W39994  17.727   9.027   2.232 -0.2839  0.2598 -0.1237
19715W        W39995  13.200  14.782  12.623  0.0309 -0.0614  0.1816
19716W        W39996  14.962   0.290   1.564  0.0472  0.0023  0.0692
19717W        W39997   0.798  12.832  13.874 -0.0684 -0.1866  0.1250
19718W        W39998   0.359   3.909  12.284 -0.0467  0.0459 -0.1820
19719W        W39999  16.204   5.298  10.922  0.1797 -0.1545 -0.1290
19720W        W40000   6.256  11.992  12.219  0.2528 -0.0535  0.1650
19721W        W40001   6.935  14.737   1.398 -0.0228 -0.1726  0.1714
19722W        W40002  12.734  11.678   3.541  0.1082 -0.0903 -0.2381
19723W        W40003  11.770   7.403  10.272 -0.0560  0.0094  0.1196
19724W        W40004  10.111  14.404   3.760  0.2801 -0.2633  0.2601
19725W        W40005   0.183  14.089   3.067  0.1677  0.0217 -0.1126
19726W        W40006  18.608  18.357  10.409  0.0467 -0.3077  0.1555
19727W        W40007  11.575  13.951   3.045  0.0154  0.0913  0.1257
19728W        W40008  16.938  15.776  12.227 -0.1644  0.2385 -0.1462
19729W        W40009  14.568   2.383  13.304 -0.4249  0.2288 -0.0011
19730W        W40010  12.348   1.295  11.276 -0.3033  0.0405  0.0487
19731W        W40011   0.487  10.573  11.323  0.2059 -0.0306 -0.5219
19732W        W40012   1.418   7.359  13.517  0.1881 -0.1281 -0.1239
19733W        W40013   8.444  11.042  10.929  0.0890 -0.1299  0.1863
19734W        W40014   1.920  19.514  11.982  0.1287  0.3501 -0.0097
19735W        W40015   6.332   1.343   1.752  0.0495  0.3529 -0.1295
19736W        W40016  19.347  14.746   3.584 -0.1934 -0.1820  0.1812
19737W        W40017  14.140   5.598   4.074  0.0251  0.1476  0.0284
19738W        W40018   1.131   4.537   5.302 -0.0729 -0.1371 -0.1131
19739W        W40019  10.895  18.320  12.485 -0.0623  0.1378 -0.0844
19740W        W40020   7.541   0.892   2.297 -0.0022  0.0034 -0.0040
19741W        W40021  16.529   4.061  11.588  0.0236  0.0134  0.1768
19742W        W40022   1.354   9.046  11.195 -0.0110 -0.1851  0.1931
19743W        W40023   4.301  10.098  11.041 -0.1490  0.0278 -0.0239
19744W        W40024  15.666  19.369  13.945  0.0651 -0.0952  0.1345
19745W        W40025  14.500   1.562   2.670 -0.0349  0.0100 -0.0497
19746W        W40026   3.013  16.515   9.777  0.2168 -0.1539 -0.0244
19747W        W40027   6.072   8.829   2.085  0.2027 -0.0982  0.1350
19748W        W40028  10.040   9.649   1.795  0.2071 -0.0413  0.2074
19749W        W40029  17.196   3.072  13.693 -0.1964 -0.5429 -0.6105
19750W        W40030   2.662  18.497   2.818 -0.2468  0.0116  0.0577
19751W        W40031   7.770  15.581   2.468  0.3446 -0.2001  0.0998
19752W        W40032  11.665  11.380   3.314 -0.1279  0.0933 -0.2077
19753W        W40033  13.657  15.761   1.067  0.1182  0.0701 -0.3045
19754W        W40034  15.447  17.915   0.195  0.1300  0.1461 -0.0193
19755W        W40035   1.765   9.727  13.331  0.0858  0.2039 -0.1655
19756W        W40036  11.799  16.872   9.290 -0.0625 -0.0018 -0.4756
19757W        W40037   7.933   8.311   2.431 -0.1192  0.1184  0.1415
19758W        W40038   8.879   7.714  12.073 -0.0686 -0.5544 -0.0386
19759W        W40039   5.700  15.674  11.166  0.1482 -0.2150  0.0681
19760W        W40040   8.950  15.410  11.937  0.3321 -0.0308 -0.0991
19761W        W40041  14.964  16.886  11.290  0.0287 -0.0035  0.0868
19762W        W40042   6.754   6.916   1.241 -0.0194  0.0833 -0.0872
19763W        W40043   8.385   7.808   2.980 -0.1810  0.1347  0.3470
19764W        W40044  12.618   0.196   9.453  0.0188 -0.0289  0.1808
19765W        W40045  12.668  18.064   1.136  0.1716 -0.2166 -0.3690
19766W        W40046  14.066  13.302   0.835 -0.2368  0.0270 -0.2514
19767W        W40047   2.574  17.540  13.380  0.0442 -0.0195 -0.0968
19768W        W40048  16.936  17.944   1.203  0.1487 -0.0180 -0.1977
19769W        W40049  14.545   0.857   0.612  0.0082 -0.1445 -0.1747
19770W        W40050   1.616  16.824   0.494  0.2556  0.1084 -0.0442
19771W        W40051  13.061  12.991  12.188  0.0335  0.0223 -0.1221
19772W        W40052   7.928  18.204   3.855  0.0800  0.0840 -0.0478
19773W        W40053   8.567   8.946   0.766  0.2224 -0.0522  0.0062
19774W        W40054  15.948  13.188  12.651  0.1351  0.0469 -0.0337
19775W        W40055  12.517   2.326  12.323 -0.2606  0.2352  0.1520
19776W        W40056  11.305  15.684  11.812  0.1618 -0.2326  0.1349
19777W        W40057   3.644   9.791   3.604 -0.1861  0.0132 -0.0576
19778W        W40058  14.309  18.015   0.654 -0.2305  0.0153  0.0275
19779W        W40059  13.608   5.683   4.074 -0.2852  0.0285  0.0651
19780W        W40060  12.363   3.147   1.856  0.2507  0.0787  0.2122
19781W        W40061   8.601   0.204  11.687  0.1315  0.3681  0.2396
19782W        W40062   2.661   2.893   0.121 -0.1365  0.0248  0.0745
19783W        W40063  18.251  17.242   2.976 -0.3472 -0.4815 -0.2265
19784W        W40064   4.044   2.070   1.281  0.2000  0.0338 -0.1039
19785W        W40065  17.291  18.958   2.369 -0.0832  0.0143 -0.3858
19786W        W40066   8.674   5.333   1.163  0.0802 -0.1121  0.3088
19787W        W40067  11.858  13.191  13.096  0.0939 -0.1901  0.3013
19788W        W40068   0.383  14.011   0.503 -0.0598  0.1292 -0.0559
19789W        W40069  12.308  14.703  11.919  0.0229  0.0327 -0.0808
19790W        W40070  17.063   5.961   2.924  0.1223 -0.0635  0.1386
19791W        W40071  11.525   3.825   3.217 -0.1960 -0.1029  0.0689
19792W        W40072   8.361   9.476  14.079 -0.1729  0.0844 -0.0890
19793W        W40073   2.149  19.184  13.854  0.0220  0.0329  0.0163
19794W        W40074  13.810  11.729   3.141 -0.0570 -0.1880  0.0759
19795W        W40075  11.244  16.109   1.151 -0.0729 -0.0042 -0.0492
19796W        W40076   4.753   1.640   9.814  0.0608  0.2927  0.0636
19797W        W40077  13.625  10.837   0.077  0.0131 -0.1097 -0.1184
19798W        W40078   3.487   9.085  11.269  0.2231 -0.0382 -0.0345
19799W        W40079   0.488  16.191   1.257  0.3136 -0.1520  0.1460
19800W        W40080   5.758  11.782  10.712 -0.3867 -0.4153 -0.1360
19801W        W40081   4.868  13.857   4.755  0.2041 -0.0384 -0.2018
19802W        W40082  16.289  11.892   9.485  0.0562 -0.0718 -0.1342
19803W        W40083   6.250  19.597   1.989  0.1328 -0.0634  0.0299
19804W        W40084   3.971   2.236  13.020  0.1767  0.0398 -0.0042
19805W        W40085   7.483  13.301  13.106  0.0354  0.2734  0.1655
19806W        W40086   7.518  19.587  10.874 -0.2142 -0.3999 -0.0541
19807W        W40087  14.935  12.716   1.849  0.0267 -0.4637 -0.0677
19808W        W40088  12.335  16.185  13.227  0.1067 -0.1420 -0.3292
19809W        W40089   9.311   6.727  10.618  0.0417 -0.1249 -0.1433
19810W        W40090  16.082  16.503   2.084 -0.0111  0.2824  0.1453
19811W        W40091  16.821   6.564  13.501  0.0161  0.0177  0.1149
19812W        W40092  13.159   6.795  12.643  0.1898  0.2293  0.0774
19813W        W40093   3.332  15.542   5.185 -0.1255 -0.0037 -0.0265
19814W        W40094  14.240   9.809   9.988  0.2049  0.0499 -0.0939
19815W        W40095   3.323   1.942  14.052  0.1434 -0.2091  0.0050
19816W        W40096  14.926  14.178   2.077 -0.2027  0.0386 -0.2419
19817W        W40097   2.156   8.236   0.887  0.1563  0.2155 -0.2309
19818W        W40098   0.948  13.494   1.700 -0.1250  0.1145  0.4209
19819W        W40099  19.420  18.707   0.655  0.3250  0.1144  0.2042
19820W        W40100   7.234   3.627  12.901 -0.0853  0.1617  0.1886
19821W        W40101   2.052   8.046  11.993 -0.1536 -0.0912  0.2080
19822W        W40102   0.313   1.421   3.635 -0.0576 -0.0866 -0.3416
19823W        W40103  14.547   4.295   2.665 -0.1523  0.2488 -0.1288
19824W        W40104  10.656   7.723  12.967  0.0008  0.1140 -0.0040
19825W        W40105   6.553  16.008  12.403 -0.1332  0.0502 -0.1427
19826W        W40106  19.250   0.088   4.366 -0.0791 -0.1268 -0.0244
19827W        W40107   6.724   9.746   1.502 -0.0538  0.0628 -0.0264
19828W        W40108  18.618  15.261   0.542  0.0185 -0.1799 -0.3912
19829W        W40109  19.601  11.726   2.831 -0.1291  0.1904  0.1030
19830W        W40110  12.834  13.161  11.684  0.4774 -0.0034 -0.2486
19831W        W40111  15.741   0.560  11.381  0.0678 -0.0839  0.2271
19832W        W40112   2.182  12.973  13.388 -0.0310  0.4807 -0.3401
19833W        W40113   8.648  13.829   2.209 -0.1895 -0.2087  0.0128
19834W        W40114  11.083  16.725  12.069 -0.0712 -0.3279 -0.0819
19835W        W40115   6.103   2.501  11.570  0.1637  0.2650  0.2896
19836W        W40116  14.942   7.742  13.895 -0.0775  0.1166 -0.0478
19837W        W40117  16.536  19.516   3.928 -0.0225 -0.0499  0.1009
19838W        W40118  18.478  17.673   3.175  0.0494  0.0186 -0.0561
19839W        W40119  13.108  14.927   0.926  0.0236 -0.2275 -0.2088
19840W        W40120  13.135  18.265   1.198  0.2049  0.1164 -0.0723
19841W        W40121  17.956  18.409  13.459  0.1332 -0.1897  0.0763
19842W        W40122  12.429   2.048  11.925  0.1645  0.1222 -0.1725
19843W        W40123  10.624  11.006   0.980  0.3306 -0.2455  0.0405
19844W        W40124  10.391  14.963   2.522 -0.0694  0.0642  0.2480
19845W        W40125  10.608   9.184  12.431  0.2017  0.1540 -0.3565
19846W        W40126   5.161   1.098   1.059  0.2224  0.2017  0.0722
19847W        W40127   4.264   0.174  11.552 -0.1800 -0.1427 -0.2072
19848W        W40128  12.094   8.234  13.805  0.2381 -0.3336 -0.0565
19849W        W40129  10.270  10.980  13.348 -0.0326 -0.0965 -0.3691
19850W        W40130  14.341  17.106  13.319  0.0129 -0.2161  0.0934
19851W        W40131   4.964   7.762  10.638 -0.4084  0.1106  0.1847
19852W        W40132   3.807  12.813   3.130  0.2686 -0.3102 -0.1965
19853W        W40133   4.189  12.284   1.339  0.2221 -0.1260  0.2188
19854W        W40134   4.535   0.490  12.486 -0.1566  0.1177  0.0828
19855W        W40135  15.998  15.048  12.147  0.1898  0.4338 -0.1353
19856W        W40136   1.697  14.532  12.758  0.1042  0.5213 -0.1568
19857W        W40137   0.738   8.793   0.160  0.0200 -0.3380  0.3203
19858W        W40138   7.765  19.621  10.370  0.0486  0.0312 -0.2263
19859W        W40139  10.042  15.053   1.716 -0.1846 -0.2243 -0.1947
19860W        W40140  19.434  16.466  11.484  0.0448 -0.1825 -0.2924
19861W        W40141  13.792  12.178   3.357  0.2118  0.0076  0.0785
19862W        W40142   2.798  15.509   2.328 -0.2066  0.0376  0.1687
19863W        W40143   1.737  10.780   0.558  0.1717  0.2489  0.1066
19864W        W40144  10.947   8.060   3.549 -0.0743 -0.2128 -0.1814
19865W        W40145   6.143   6.496  12.880 -0.1225 -0.0995 -0.0218
19866W        W40146   2.958   7.255   0.516  0.0378 -0.2873  0.1648
19867W        W40147   7.383   6.421  11.505 -0.2653  0.0872 -0.0426
19868W        W40148   0.298  17.046   4.636  0.1123  0.0177  0.2302
19869W        W40149   0.639   6.203  13.569 -0.2082  0.0552  0.0074
19870W        W40150  11.877  11.867  11.356 -0.1932  0.1019 -0.0323
19871W        W40151  17.229  11.251   1.362  0.1772 -0.2142 -0.0064
19872W        W40152   0.244   1.673   3.202 -0.0896  0.2109 -0.0985
19873W        W40153   0.018  17.465  13.075 -0.0260 -0.2271 -0.4157
19874W        W40154  16.180   8.819   0.140 -0.1551 -0.1189  0.0857
19875W        W40155   6.222  19.709  12.908  0.1313  0.0398  0.0571
19876W        W40156  15.525   0.421   0.889 -0.0068  0.1964  0.2364
19877W        W40157   6.047   6.910   3.324  0.1804 -0.1559  0.0703
19878W        W40158   1.119   3.321   3.569  0.2035 -0.2348 -0.0682
19879W        W40159  17.957   8.332   3.633  0.2462  0.3011 -0.2351
19880W        W40160   5.491  12.971   0.412  0.3990  0.1531 -0.3917
19881W        W40161  17.043  17.891   3.855  0.1128  0.4497 -0.0911
19882W        W40162  18.877  18.081  11.878 -0.0367  0.0607 -0.2252
19883W        W40163  13.280  15.236   1.597  0.2025 -0.1809 -0.1363
19884W        W40164   7.614  11.413   1.549  0.1165  0.0867 -0.1107
19885W        W40165   8.578   6.714  12.213 -0.0045  0.2716  0.1810
19886W        W40166   5.495  11.691   3.342 -0.1528  0.2854 -0.2185
19887W        W40167   6.079  19.195   2.434 -0.0378  0.2301 -0.1699
19888W        W40168   4.598   6.935   2.543  0.3005  0.2711 -0.0217
19889W        W40169  10.044  12.779   1.369  0.0982 -0.1506  0.0590
19890W        W40170   5.098   9.236   0.356  0.1025  0.0332 -0.0450
19891W        W40171  15.417   1.458   3.514 -0.2079  0.3214 -0.0176
19892W        W40172  19.660  19.065   2.076 -0.1414  0.2174  0.2093
19893W        W40173  17.754  13.039  11.953  0.3443  0.4119  0.0896
19894W        W40174   5.433   9.893   3.470 -0.1791 -0.0111 -0.1074
19895W        W40175   1.384  14.384  10.269  0.1658  0.2771  0.0759
19896W        W40176  14.292   1.823   2.232  0.0244 -0.1375  0.0861
19897W        W40177   1.814   2.592   1.877 -0.2632  0.0810  0.1015
19898W        W40178  15.154   9.894  10.368 -0.1587 -0.1079  0.1993
19899W        W40179  14.863  17.174   2.679 -0.1895  0.2817 -0.0690
19900W        W40180   7.977   6.726  12.163  0.0725  0.0294  0.3144
19901W        W40181   7.994   4.015  11.046  0.0540 -0.2296 -0.0097
19902W        W40182   2.334   8.713   4.227  0.3601  0.0445  0.1564
19903W        W40183  11.589   5.289   2.764  0.3052  0.1415  0.0555
19904W        W40184  10.931  17.596   2.926  0.2569 -0.1196  0.1804
19905W        W40185  17.614  17.220   1.548 -0.0116  0.1221 -0.1172
19906W        W40186   9.565  11.364   0.367 -0.0311 -0.3686 -0.0937
19907W        W40187  10.430   8.711   5.087 -0.0100  0.0835 -0.1275
19908W        W40188   1.705  19.713  13.720  0.2614 -0.3620 -0.0780
19909W        W40189   0.962   9.549   2.407  0.0625 -0.2789  0.0819
19910W        W40190  10.060  14.678   9.327 -0.1952 -0.3935  0.1052
19911W        W40191   5.944  15.462  10.757  0.1785  0.1924 -0.0246
19912W        W40192  13.865   2.079  11.338 -0.3365 -0.0100 -0.1521
19913W        W40193   8.104   9.113  13.567 -0.1022  0.0794 -0.0623
19914W        W40194  12.608  14.375  12.219 -0.0029  0.2499  0.2118
19915W        W40195  13.296  16.588  11.921 -0.1700 -0.0118 -0.2664
19916W        W40196   6.598  17.496  13.983  0.0710 -0.1115  0.1775
19917W        W40197  16.706   3.831  10.828  0.0263 -0.1892  0.2350
19918W        W40198   0.832   7.542   0.011 -0.2593  0.1605 -0.4301
19919W        W40199   3.921   0.417  12.834  0.1121 -0.0582 -0.3354
19920W        W40200  12.333  17.656   3.282  0.0512  0.1264  0.1617
19921W        W40201   8.620   4.184   0.359  0.0028  0.4256  0.1114
19922W        W40202  19.315   8.504  11.188  0.0160 -0.0734  0.0203
19923W        W40203   6.164  12.199  13.203  0.2900 -0.3891  0.1006
19924W        W40204   2.116  18.599  11.031 -0.0234 -0.1051  0.1367
19925W        W40205   9.349   1.424  13.577 -0.0277  0.3413  0.3754
19926W        W40206   7.144   3.602  11.630  0.1995 -0.0270 -0.2947
19927W        W40207  15.119   0.074   0.270  0.2441  0.3437 -0.0769
19928W        W40208   4.899  19.405  10.101  0.2513 -0.0817  0.0526
19929W        W40209   6.730  15.424  13.019  0.2048  0.2751  0.0105
19930W        W40210  12.415  16.716   0.577  0.2533 -0.3353 -0.1657
19931W        W40211   9.269   8.179   3.921 -0.1154  0.0038 -0.0640
19932W        W40212  11.816  12.965   5.157 -0.1208 -0.4201 -0.2491
19933W        W40213  11.508   7.243   3.344 -0.0867 -0.0626  0.1427
19934W        W40214  10.805  13.737   2.496 -0.0554  0.0897 -0.1123
19935W        W40215   7.025  14.386   1.019  0.0004  0.0834 -0.2763
19936W        W40216   9.505  15.311   2.427 -0.1340 -0.0063 -0.0533
19937W        W40217  16.391   3.452   0.582  0.3279  0.0099  0.0812
19938W        W40218  16.171  13.777   1.443 -0.1344 -0.0550  0.1961
19939W        W40219  12.408   5.180  13.385 -0.0634 -0.2518  0.0565
19940W        W40220   4.330  14.408  13.708  0.1858 -0.0207 -0.2286
19941W        W40221   5.839  18.888  12.547  0.0788 -0.0266  0.3234
19942W        W40222   0.934  10.549   3.379  0.0552 -0.4273  0.0839
19943W        W40223   8.903  10.202  12.597 -0.2939  0.4250  0.1623
19944W        W40224  12.608   1.491  10.874  0.1929 -0.0652 -0.0481
19945W        W40225  11.358   7.084   1.970  0.0393 -0.0794 -0.4497
19946W        W40226   2.998  19.376  12.616  0.2920 -0.0897 -0.1241
19947W        W40227  19.436  12.751   0.069 -0.0087 -0.0954  0.4274
19948W        W40228   6.223  11.460   1.344  0.1037  0.1231 -0.2928
19949W        W40229  11.426  13.134   2.724 -0.0127  0.0683  0.0295
19950W        W40230   9.659  16.423  13.019 -0.1238  0.1472  0.1400
19951W        W40231   9.369   4.655  10.892  0.0586 -0.1485  0.0074
19952W        W40232  15.313   1.808  13.275  0.2290 -0.0925 -0.1433
19953W        W40233   8.380   4.760  11.206 -0.0013 -0.3475 -0.0638
19954W        W40234  11.586  19.231  12.754  0.1117 -0.6027  0.1149
19955W        W40235   3.985   6.829   2.984 -0.0882 -0.3113 -0.0517
19956W        W40236   5.857   4.950   3.445 -0.4096 -0.1319 -0.0621
19957W        W40237  11.566   9.909  11.831 -0.3963 -0.1856  0.2602
19958W        W40238  17.340  15.074  13.838 -0.1972 -0.2764  0.1162
19959W        W40239   4.500   3.072   3.144  0.1034  0.2448  0.0318
19960W        W40240  19.603   4.409   3.820  0.2746  0.1921  0.2552
19961W        W40241  10.609  10.597  12.973  0.1945  0.2903 -0.1850
19962W        W40242  18.449   9.351  13.970  0.1759 -0.1169 -0.0876
19963W        W40243  14.205  15.612  12.161 -0.0476 -0.2502 -0.1202
19964W        W40244  11.326  10.289   0.707 -0.0148  0.0227 -0.1959
19965W        W40245   9.572   0.887   1.281  0.0301 -0.1350 -0.2354
19966W        W40246  15.604  19.723  13.415  0.0303 -0.0152 -0.0677
19967W        W40247   0.387   3.417  11.492 -0.2681  0.5139 -0.3501
19968W        W40248   8.849   7.869   3.880  0.0404 -0.1992  0.0960
19969W        W40249   0.645   8.811   2.643  0.0440  0.0765 -0.2739
19970W        W40250  15.980   4.404   9.460 -0.0664 -0.3326 -0.1606
19971W        W40251   1.311  18.682  12.437  0.1653 -0.0304 -0.1326
19972W        W40252  17.439  12.054   3.711 -0.3593  0.2939  0.2087
19973W        W40253  18.142  17.611   1.914  0.2309 -0.0945  0.1059
19974W        W40254  10.325  16.447  13.582 -0.1116 -0.0995  0.0740
19975W        W40255  15.884  13.474  12.199 -0.0806  0.0688  0.3317
19976W        W40256   7.859  10.959   3.047 -0.0355  0.0357 -0.1284
19977W        W40257   7.219   1.381   3.615  0.1551  0.1318 -0.2271
19978W        W40258  14.227  19.403  10.382  0.0467  0.2005 -0.0608
19979W        W40259   0.926   2.918   2.283 -0.2674  0.1362  0.0160
19980W        W40260   0.558  14.601   9.997  0.0325 -0.2487  0.1761
19981W        W40261   1.510  13.195  12.832 -0.0227  0.3055 -0.2201
19982W        W40262   3.999  10.689  12.937 -0.0190 -0.0939  0.3162
19983W        W40263   2.034   4.534   0.469  0.0224  0.0611  0.1759
19984W        W40264  14.367   8.045  11.934 -0.0430 -0.2635 -0.3728
19985W        W40265   7.199   6.948   0.020  0.1404 -0.1082 -0.2044
19986W        W40266   7.183  13.898  10.135 -0.0426 -0.0278 -0.2693
19987W        W40267  17.333   6.150  12.188  0.1430  0.3167 -0.0321
19988W        W40268   1.537   8.601  12.912  0.3800  0.4168  0.1874
19989W        W40269   4.792  11.223  12.465  0.2655  0.2632  0.2308
19990W        W40270  18.545  12.309  10.882 -0.0214 -0.0490 -0.1630
19991W        W40271  11.223   4.881  10.181  0.1054  0.1140  0.1142
19992W        W40272  11.731  14.709  10.182 -0.1831  0.1590  0.2692
19993W        W40273   6.044  12.640  11.448 -0.3173  0.2681 -0.1655
19994W        W40274  17.107  10.621   0.655  0.0522  0.0087  0.1867
19995W        W40275  13.265  18.956  13.341 -0.0762  0.2087 -0.0421
19996W        W40276  10.389  15.299  12.666 -0.1825 -0.0030 -0.3083
19997W        W40277   8.195  15.349   2.000 -0.1351  0.3645  0.0651
19998W        W40278  13.695  16.289   1.692  0.0517  0.0713  0.1670
19999W        W40279  16.781   1.803   2.435  0.0579 -0.0573  0.3877
20000W        W40280   5.222  15.094   2.454 -0.1371 -0.6854 -0.2887
20001W        W40281  15.384   1.246   9.262 -0.0156 -0.0856  0.1352
20002W        W40282  11.393   1.565   3.773 -0.0259  0.0413  0.0342
20003W        W40283  15.090  12.329  13.168  0.0208 -0.0957 -0.1161
20004W        W40284   9.700  10.270  12.170 -0.1010 -0.1064  0.0833
20005W        W40285  13.427   1.377   2.072  0.3808  0.0008 -0.3912
20006W        W40286  18.086   7.168   2.921 -0.1281 -0.0345  0.3383
20007W        W40287  10.227  17.823  13.908  0.3340 -0.0434  0.4359
20008W        W40288  15.784  19.736  10.447 -0.0660  0.2861  0.0441
20009W        W40289   8.882  10.115  13.103  0.3811 -0.1451 -0.3865
20010W        W40290   6.958  15.824  11.132 -0.0077 -0.2549  0.1341
20011W        W40291  17.439  18.425  13.762 -0.0405 -0.4059  0.0131
20012W        W40292  18.233   3.553   2.584  0.3038  0.0863  0.0419
20013W        W40293  16.955  17.184   3.755  0.1262 -0.2884  0.2444
20014W        W40294  17.938   1.718   0.792  0.0031 -0.1762 -0.1117
20015W        W40295   5.483  16.573  13.434  0.2081  0.2429  0.3457
20016W        W40296  19.554  13.206  12.255 -0.0778  0.1888  0.1084
20017W        W40297   2.578   6.841   0.433 -0.1749 -0.0517  0.3484
20018W        W40298   5.256  14.586  12.459  0.2562  0.0058  0.1889
20019W        W40299  10.531  11.738  12.270 -0.2719 -0.2710 -0.0091
20020W        W40300  18.654   4.631   0.617  0.2819 -0.3106 -0.0152
20021W        W40301  16.988  12.489  12.298 -0.0374 -0.1486 -0.0540
20022W        W40302   9.362   2.616   1.119  0.0141 -0.1801  0.1010
20023W        W40303   7.276  17.016   3.680 -0.4445  0.3125 -0.2679
20024W        W40304  15.603  10.530   2.450  0.0142  0.1893 -0.0975
20025W        W40305   7.967  12.095  13.850 -0.1717 -0.1151 -0.1255
20026W        W40306  17.412  18.144   1.431 -0.3915  0.2083  0.0638
20027W        W40307  19.007   5.899   2.170 -0.1838 -0.1238  0.1763
20028W        W40308  12.447   2.305   0.784 -0.1406  0.1673  0.2498
20029W        W40309  19.543  12.005  12.156  0.0064  0.1440  0.3201
20030W        W40310  15.521   1.686  10.959  0.2939  0.2024 -0.0430
20031W        W40311   4.272  18.761  12.029 -0.0244  0.2125  0.0584
20032W        W40312  18.307  11.758  11.750 -0.1673 -0.0332 -0.1607
20033W        W40313  11.691   6.752   3.380 -0.1576 -0.0389  0.2119
20034W        W40314   4.043  19.511   1.044 -0.1560  0.2396 -0.2249
20035W        W40315  16.099   1.481   1.252  0.2843  0.2370  0.2072
20036W        W40316  17.742  13.211  10.968  0.0480  0.1528  0.2628
20037W        W40317  12.897   6.554   2.568  0.3667 -0.5523  0.0547
20038W        W40318   1.986   0.932   2.448  0.0303 -0.3931 -0.3268
20039W        W40319  18.686   3.544   4.178  0.2917  0.0145 -0.1507
20040W        W40320   7.337   5.947   0.403 -0.0724  0.1694  0.0003
20041W        W40321   7.717  18.739   2.152 -0.1419 -0.1242 -0.2367
20042W        W40322   8.588  19.545  12.030  0.0788  0.4051 -0.0897
20043W        W40323  18.290   6.691   3.778 -0.2262  0.0094  0.0870
20044W        W40324   1.073   3.707  11.123  0.1494 -0.1021  0.2211
20045W        W40325   8.446   0.881  12.934  0.1159 -0.1102  0.0126
20046W        W40326   6.119   1.638   0.305 -0.2271  0.1825  0.2137
20047W        W40327  11.864   0.739   1.826 -0.2238 -0.0146 -0.0795
20048W        W40328  19.052   4.742   9.883 -0.1435  0.0125 -0.1867
20049W        W40329   8.707  19.633  11.230  0.2053 -0.1193  0.1843
20050W        W40330  10.733  16.966   0.755 -0.3970 -0.2061 -0.2152
20051W        W40331   0.100  18.115  12.702 -0.2194  0.0305  0.3005
20052W        W40332  11.153   9.580  10.957 -0.2478  0.1849 -0.0748
20053W        W40333  17.727   5.538  11.048 -0.0947 -0.1377  0.1074
20054W        W40334  14.793   5.829  13.800 -0.1486  0.0791  0.0873
20055W        W40335  14.949  19.471   3.454 -0.4893  0.1291 -0.0555
20056W        W40336  13.061   4.609  11.627 -0.1577  0.2500 -0.0406
20057W        W40337  11.135  12.298   3.786 -0.1975 -0.3872 -0.0688
20058W        W40338   3.912  14.083   1.688 -0.2700 -0.2331  0.1384
20059W        W40339  16.292   5.819   0.442  0.1043 -0.0792 -0.2058
20060W        W40340  12.245   0.139   2.606 -0.2032  0.4288  0.2362
20061W        W40341   3.318  18.019  10.654 -0.1438  0.3381  0.0962
20062W        W40342  12.394  12.654   5.108  0.3582 -0.1203  0.2811
20063W        W40343   5.902  16.288  12.133  0.1714  0.2158  0.1750
20064W        W40344  12.847   4.202   0.874  0.2260  0.5351  0.4983
20065W        W40345  19.715  14.147  13.675 -0.3561  0.1745  0.0621
20066W        W40346   6.254   1.751   0.841  0.2128 -0.0971 -0.0919
20067W        W40347   3.126   3.694  11.751 -0.0006 -0.0174 -0.0716
20068W        W40348   8.473   9.382  13.485 -0.2259 -0.1173 -0.0488
20069W        W40349  16.411  18.008   0.656  0.0782  0.2858 -0.0542
20070W        W40350   2.335   7.428   1.087 -0.2645 -0.0276  0.1923
20071W        W40351  10.558  13.309   2.619  0.1732 -0.0116  0.0425
20072W        W40352  15.027   3.379  12.937  0.0095  0.1254 -0.5136
20073W        W40353  10.708  11.163  10.416 -0.0904  0.0826 -0.1113
20074W        W40354  11.437  10.706  13.480  0.0896  0.0314 -0.0042
20075W        W40355   2.350  19.680   3.510 -0.2124 -0.2250 -0.0010
20076W        W40356   2.235  15.676  13.668 -0.3812  0.0742  0.3195
20077W        W40357  12.195   6.172  10.484 -0.1628  0.0640  0.0455
20078W        W40358   4.233  10.098  12.079 -0.1244  0.1198 -0.2215
20079W        W40359   7.050   6.895  10.910  0.0346 -0.1019  0.1268
20080W        W40360   9.570  17.135  12.435 -0.1452  0.1352 -0.0856
20081W        W40361   2.350   0.497  13.197 -0.4299 -0.0811  0.2089
20082W        W40362   4.823   3.688  12.077  0.2054  0.0141 -0.2627
20083W        W40363   6.423  16.184  11.086 -0.0937  0.0361 -0.1190
20084W        W40364   2.023   1.777   1.390 -0.1481 -0.0600  0.0389
20085W        W40365   0.330  14.622   1.273 -0.2804  0.4063 -0.0584
20086W        W40366   6.612   1.522  13.098  0.1160 -0.1738 -0.0453
20087W        W40367  18.931  12.518  10.080  0.2167 -0.0627  0.3836
20088W        W40368  12.004   3.701  12.561 -0.2249  0.0966 -0.1219
20089W        W40369  16.243   7.910   2.958 -0.0096  0.2964  0.1954
20090W        W40370   2.356  10.385   1.232  0.2204  0.1386 -0.2034
20091W        W40371  17.587  19.760  11.196  0.1285 -0.1630 -0.2923
20092W        W40372   6.543  18.133   9.984  0.1908  0.2215  0.3108
20093W        W40373   7.066   7.738   0.756  0.5880 -0.0016  0.3368
20094W        W40374  18.004   0.603  11.909 -0.0235  0.0594 -0.0685
20095W        W40375  12.398  10.755  10.545 -0.1018 -0.1704  0.0720
20096W        W40376  12.432   8.249   3.762 -0.1129 -0.1554 -0.0599
20097W        W40377   2.364  16.511   9.044 -0.0356 -0.2305  0.0891
20098W        W40378   0.287  18.017  13.719 -0.0951  0.1802  0.0040
20099W        W40379  13.172   2.969  10.164  0.2658 -0.3729 -0.3272
20100W        W40380   3.904  19.698   1.725 -0.0873 -0.2683 -0.1632
20101W        W40381  16.102  16.969  11.784 -0.2334 -0.2184 -0.0060
20102W        W40382   4.767  13.935   1.317 -0.0878 -0.0295  0.0062
20103W        W40383   1.058   2.015   1.968 -0.1889 -0.1423  0.0554
20104W        W40384  14.208   9.503   4.355 -0.1470 -0.0128  0.1380
20105W        W40385  15.701  12.900  12.972  0.1829 -0.0947 -0.0523
20106W        W40386  13.317  13.399   3.604 -0.1906  0.0520  0.1804
20107W        W40387   7.472  19.177   0.920  0.0459  0.0100  0.2102
20108W        W40388  19.097  15.350   0.292  0.2406 -0.0573 -0.2001
20109W        W40389  16.598   7.489   0.177 -0.1539  0.2534  0.1667
20110W        W40390  11.511   0.817   3.203 -0.0279 -0.0980  0.0888
20111W        W40391  15.257  15.484  10.763 -0.1570 -0.1743  0.2696
20112W        W40392  13.805  11.626  13.862  0.1696 -0.0712 -0.0508
20113W        W40393   9.361   7.775  12.290 -0.1457 -0.0924  0.0349
20114W        W40394  16.364  17.728   2.235  0.1441  0.1305 -0.0357
20115W        W40395  17.697  11.574  10.498 -0.1253  0.3770  0.0042
20116W        W40396   3.408  15.594   9.506 -0.2400 -0.0577 -0.1512
20117W        W40397  19.401   1.767   1.773  0.0454 -0.5455 -0.0794
20118W        W40398   9.377   5.006  13.533 -0.2536 -0.0449  0.2627
20119W        W40399   0.477   6.687  13.390 -0.0920  0.0448 -0.1823
20120W        W40400  18.354  10.241  11.648  0.2817 -0.0738  0.0880
20121W        W40401   3.525   7.467  10.100  0.1837  0.4636  0.1852
20122W        W40402  18.930   4.029   1.314  0.0025  0.1027 -0.3220
20123W        W40403   6.388  17.647  13.147 -0.0496 -0.2257 -0.5012
20124W        W40404   5.103   7.508   0.560 -0.0251 -0.0369 -0.0551
20125W        W40405  10.232   9.386   3.468  0.1483 -0.1889  0.0989
20126W        W40406  19.526   3.563  13.276 -0.2341  0.1476  0.0065
20127W        W40407   4.577  17.472  11.974 -0.1395  0.0670  0.1117
20128W        W40408   0.549   3.747  11.133  0.1015 -0.3286  0.1908
20129W        W40409  16.925  14.456  10.959 -0.4927 -0.2449  0.0462
20130W        W40410   3.179  10.094   2.929 -0.0341 -0.2498 -0.1740
20131W        W40411   4.465  14.307   0.385 -0.0763 -0.1460 -0.2507
20132W        W40412   7.105   7.844   0.266 -0.0783  0.1000 -0.1023
20133W        W40413  16.057   9.822  14.090 -0.0247  0.1291  0.2278
20134W        W40414  15.086  12.644   0.335 -0.1991 -0.2110 -0.1544
20135W        W40415   3.395  10.969   1.003 -0.0543  0.2129  0.0258
20136W        W40416   7.600  19.030  13.277 -0.0295 -0.2237 -0.1135
20137W        W40417   6.272   2.413  12.049  0.1953 -0.1831 -0.0243
20138W        W40418   5.638   9.401   2.508  0.1318 -0.0887 -0.1423
20139W        W40419   8.157   6.918  13.876  0.1738  0.2256  0.3364
20140W        W40420   7.039  11.588   2.005  0.0439  0.0044 -0.3019
20141W        W40421   4.592   1.640   2.243  0.1895 -0.0947 -0.3816
20142W        W40422  10.778  19.206  12.056 -0.2001 -0.0952  0.0418
20143W        W40423  11.413  14.733  11.840 -0.0327 -0.1334  0.2967
20144W        W40424   1.832   2.191   2.825  0.2404  0.1845  0.2702
20145W        W40425  10.256   2.638  12.018  0.1722  0.2326 -0.0311
20146W        W40426  14.884  11.244   1.725  0.0158 -0.2322 -0.0811
20147W        W40427  11.320  15.106   3.060 -0.3113 -0.2476  0.1783
20148W        W40428  11.291  14.429  13.462  0.0686  0.1768  0.2216
20149W        W40429  14.810   5.915   0.557 -0.1880 -0.1888  0.1633
20150W        W40430  12.693  18.532   1.359  0.3097  0.1580  0.0481
20151W        W40431  12.489   5.331  11.805 -0.2007 -0.1678  0.1401
20152W        W40432  17.362  17.313  11.855 -0.1207 -0.0200 -0.1738
20153W        W40433   3.012   9.876  11.599 -0.0421  0.1488  0.1772
20154W        W40434   4.575   7.311   0.453 -0.0353  0.1700  0.1637
20155W        W40435   4.520  19.164  10.398 -0.0469  0.0662 -0.0721
20156W        W40436  11.674   2.838  13.436 -0.0817  0.5419 -0.2348
20157W        W40437  12.088   2.645  13.922  0.3009 -0.1610  0.1257
20158W        W40438  10.971  13.012   2.517  0.0499 -0.1248 -0.2057
20159W        W40439   6.712   9.595  12.310  0.0136 -0.2431  0.1026
20160W        W40440   4.222  16.082  12.351 -0.3726 -0.1543  0.0366
20161W        W40441  10.024  17.492  10.854 -0.3638 -0.1400  0.1323
20162W        W40442   9.172  14.351  10.991 -0.0993  0.0397 -0.2595
20163W        W40443  18.507  14.356   1.199 -0.2195 -0.1869 -0.0174
20164W        W40444  13.856   0.342   1.079 -0.1216 -0.2033 -0.0410
20165W        W40445   4.475   2.381   0.495 -0.1277 -0.1817  0.0067
20166W        W40446  10.254   3.640   0.952 -0.1410 -0.0065 -0.1712
20167W        W40447  17.180   3.710  14.094  0.0167 -0.1869  0.0567
20168W        W40448   5.881   8.618  11.862 -0.2096  0.1903 -0.2182
20169W        W40449  13.457   6.923   2.784 -0.1021  0.0601 -0.2129
20170W        W40450   5.379  14.861  13.224  0.0273  0.0148 -0.1985
20171W        W40451  18.503  19.177  13.685  0.1163  0.0421 -0.0003
20172W        W40452   6.190   3.463   2.030  0.2011 -0.1949  0.0462
20173W        W40453   9.947   8.269   1.520 -0.1478 -0.0019 -0.0633
20174W        W40454  11.529  16.153   1.577 -0.0160 -0.0355 -0.1040
20175W        W40455  17.959   6.525  10.319 -0.1804  0.2146 -0.0223
20176W        W40456   1.670   3.854   0.427  0.0081 -0.1014 -0.2912
20177W        W40457  14.934   9.838  13.350 -0.0280 -0.0059 -0.0672
20178W        W40458   7.256   1.042   3.994 -0.0576  0.0565 -0.1187
20179W        W40459  19.167   4.905  11.244 -0.0417  0.0016 -0.0289
20180W        W40460   1.656   8.033   0.772 -0.0496  0.4622 -0.2490
20181W        W40461   5.899  11.694  11.984  0.0659  0.1716  0.0522
20182W        W40462  16.910   0.607  11.728  0.2066 -0.0746 -0.0421
20183W        W40463  12.325   6.991   2.201  0.0082 -0.1321  0.2656
20184W        W40464  16.846  10.742  10.983  0.1659  0.1900 -0.2386
20185W        W40465   4.277  10.210   0.043 -0.1222 -0.1447  0.0227
20186W        W40466  17.354   7.317  13.146  0.0432  0.3536  0.1592
20187W        W40467   6.995   6.746   3.392 -0.0381 -0.1798 -0.0897
20188W        W40468   0.518   2.167  13.999 -0.0892 -0.1423 -0.0769
20189W        W40469  18.688   8.585  12.255  0.1673  0.2401  0.0901
20190W        W40470  14.239   7.702   2.197 -0.2884  0.4786  0.0796
20191W        W40471   4.796   0.680  10.745  0.3603 -0.0141  0.1108
20192W        W40472  17.189   2.249  11.289  0.0013 -0.0954  0.4398
20193W        W40473   4.501  12.159   1.710  0.2510  0.1178  0.1746
20194W        W40474  17.022   4.453   4.802 -0.1051  0.0378 -0.1152
20195W        W40475  13.389  10.730  11.159  0.2006 -0.0781 -0.1392
20196W        W40476  11.660  10.626  13.959  0.4027 -0.1593 -0.0491
20197W        W40477   7.931  10.344  11.372 -0.3193 -0.5255  0.0855
20198W        W40478  12.920   9.725   2.043  0.2178  0.0517 -0.1123
20199W        W40479  12.753  11.198   3.613 -0.1087 -0.0436  0.0418
20200W        W40480   1.928  15.646   9.512 -0.2221  0.1002 -0.1281
20201W        W40481  15.827  16.823   2.451 -0.2225 -0.0249 -0.1452
20202W        W40482  11.803  10.307   0.939 -0.1018  0.1588  0.0467
20203W        W40483  10.762  10.219   0.830 -0.2335  0.1056 -0.1895
20204W        W40484  19.309   8.944   0.884 -0.0392  0.0577  0.2385
20205W        W40485  14.131  12.208  11.533  0.2670  0.1261 -0.1738
20206W        W40486  13.649  19.222  11.258  0.1639 -0.0638 -0.1497
20207W        W40487   6.794  13.328   1.721  0.1202 -0.1510 -0.0321
20208W        W40488   5.188  17.130  12.636 -0.0983 -0.0557  0.0174
20209W        W40489   6.080   2.883   4.144  0.0106  0.0966 -0.2204
20210W        W40490  18.893  17.562  12.050  0.0206 -0.1623 -0.0067
20211W        W40491  14.353   0.938  11.464  0.1407 -0.0706  0.0513
20212W        W40492   7.033  10.789   1.423 -0.0037 -0.2082  0.1857
20213W        W40493   3.949   8.654   0.216 -0.1099 -0.1473  0.0457
20214W        W40494   5.831  12.926  12.606  0.1482  0.1318  0.0231
20215W        W40495   0.356  11.965  10.645 -0.1758  0.1296  0.0480
20216W        W40496  17.993  11.204  13.271 -0.0044 -0.2931 -0.0596
20217W        W40497   0.715   2.478  11.320  0.2374  0.1352 -0.1664
20218W        W40498   1.245   3.972   1.693  0.1572  0.1146  0.3460
20219W        W40499   9.495  14.122   3.152  0.1220  0.0551  0.0364
20220W        W40500   8.033   1.333   0.888 -0.1942 -0.0739  0.1400
20221W        W40501   2.285  16.420  12.337 -0.1409 -0.1781  0.0077
20222W        W40502   0.826  13.548   3.150 -0.1543  0.0230  0.2838
20223W        W40503  18.870   5.743  12.628 -0.2377  0.0134 -0.1171
20224W        W40504   9.120   2.321  13.542 -0.0639 -0.3515  0.1181
20225W        W40505  18.602  13.222  13.698  0.1047 -0.1022 -0.1208
20226W        W40506   1.964   7.777  10.908 -0.0716  0.2047  0.3782
20227W        W40507  13.275   4.864   0.287 -0.0463  0.1853 -0.2928
20228W        W40508  11.576  16.500   0.071  0.0753 -0.0894  0.1479
20229W        W40509  15.925  10.833  11.771  0.0138 -0.1009 -0.2307
20230W        W40510  15.836   3.419   0.779  0.0004 -0.2338  0.1882
20231W        W40511  19.588  11.840  13.108  0.3806  0.0561  0.1251
20232W        W40512   8.857  17.584  12.081 -0.1312 -0.3053 -0.0305
20233W        W40513   0.816   9.979  12.888 -0.0011 -0.1200 -0.1674
20234W        W40514  10.702   0.211  12.792 -0.2579 -0.1159  0.1253
20235W        W40515  16.414  16.525   2.610  0.2840  0.0294  0.2281
20236W        W40516  19.249  19.507   0.128  0.0005 -0.0530  0.2911
20237W        W40517   5.272  12.017   9.986  0.1102 -0.2890  0.0116
20238W        W40518  17.517   2.403   2.947 -0.2976  0.1658 -0.0818
20239W        W40519   2.392  17.194   2.620 -0.0571  0.1806 -0.4530
20240W        W40520  10.235  10.174   0.757 -0.0311 -0.1153 -0.0708
20241W        W40521   7.174  17.984   3.436  0.1724 -0.1207 -0.3536
20242W        W40522  10.420   2.463   1.805  0.0692 -0.3874 -0.1243
20243W        W40523   6.621   0.022  10.508 -0.0715 -0.3649 -0.2559
20244W        W40524   2.559   1.529   1.392 -0.0298 -0.2355 -0.4218
20245W        W40525   0.881   0.198  11.891 -0.1138 -0.1068  0.0609
20246W        W40526   5.809  15.350  11.843 -0.0382  0.1112 -0.1656
20247W        W40527  13.098  19.366  11.954  0.1597  0.1991 -0.1904
20248W        W40528   5.480   3.222  12.243  0.1348 -0.3177  0.0424
20249W        W40529  11.001   0.619   4.129 -0.1388 -0.1477  0.0614
20250W        W40530   0.787  19.313  12.859  0.2164 -0.0011  0.2084
20251W        W40531   3.658  11.917   3.947  0.1990  0.2131  0.0749
20252W        W40532  10.362  14.996   4.958 -0.0480 -0.1987  0.0126
20253W        W40533  10.110  14.707  13.759  0.1673 -0.0175  0.1121
20254W        W40534  19.041  10.708  13.288  0.0804 -0.0746  0.1148
20255W        W40535   3.148   4.952   4.530  0.3160  0.4606 -0.1734
20256W        W40536  17.228   6.072  10.435 -0.1650  0.0726 -0.1898
20257W        W40537   0.380  19.484  13.239 -0.0241  0.0320 -0.0195
20258W        W40538  16.285  19.275   2.086  0.1516 -0.3196 -0.0517
20259W        W40539  11.967   5.935   2.437  0.1602  0.0979  0.0178
20260W        W40540   7.355   6.871   2.778 -0.2650  0.2330  0.1323
20261W        W40541   7.205   3.308  12.057 -0.1596  0.0048  0.1605
20262W        W40542  10.606   1.761  11.067 -0.1869 -0.1847 -0.1915
20263W        W40543  16.429   2.429  11.991 -0.0917  0.0479 -0.5113
20264W        W40544  12.899  12.207   0.057 -0.4104 -0.0561  0.1798
20265W        W40545  11.625   2.972   1.433 -0.0220  0.0737 -0.1808
20266W        W40546   0.075   2.991   2.246 -0.0599  0.1470  0.1771
20267W        W40547   4.221   1.194  13.744  0.4585  0.4307  0.0973
20268W        W40548  18.478   3.548   1.598  0.0911 -0.0932  0.2350
20269W        W40549  13.217  10.259  10.536 -0.0092  0.3552  0.0521
20270W        W40550  15.093  19.417   1.532  0.2771  0.0721  0.3406
20271W        W40551   6.969   8.752   1.079  0.1576  0.2270  0.0107
20272W        W40552  14.987  14.023   1.062  0.1330  0.1144 -0.2909
20273W        W40553   9.047   8.118   0.468  0.1137  0.3071  0.2466
20274W        W40554  15.994   0.610   0.892  0.3553  0.1655  0.2252
20275W        W40555  12.383   8.126  10.982 -0.2193  0.1216 -0.1891
20276W        W40556   3.914   8.344   1.235 -0.0194  0.2272  0.1289
20277W        W40557   3.378   6.015  12.683  0.0017  0.1442  0.0543
20278W        W40558  16.222  19.219  11.361  0.1675 -0.0261  0.1164
20279W        W40559   6.136   4.480  13.821 -0.1976  0.0999  0.1136
20280W        W40560   8.759   6.776   2.818 -0.3230 -0.1107  0.1096
20281W        W40561  17.834   3.960   3.868  0.0886 -0.0156  0.2200
20282W        W40562   9.270   9.662   2.314  0.1017 -0.0929  0.2958
20283W        W40563   4.223   7.652  11.301  0.0920 -0.0032 -0.2426
20284W        W40564   4.791  11.689  10.863 -0.4088  0.0409  0.0094
20285W        W40565   9.002   6.190  11.160  0.0898 -0.1107  0.1288
20286W        W40566   9.584   7.326   3.668  0.1701  0.4826 -0.2512
20287W        W40567  16.496   0.347   3.751 -0.4284  0.0973  0.1508
20288W        W40568  13.331   9.991   3.623  0.0248 -0.0882 -0.0575
20289W        W40569  15.772   8.462   2.362  0.1157 -0.1111  0.0146
20290W        W40570   8.466  16.482  11.220  0.0133  0.0747  0.0854
20291W        W40571  19.460  11.000  13.089  0.0277 -0.2738  0.0845
20292W        W40572  16.197  17.934   2.752  0.0014  0.3179  0.2540
20293W        W40573  18.875  19.003   3.508 -0.0080  0.0792 -0.0149
20294W        W40574  16.256  11.711   1.747  0.0953  0.1090  0.1760
20295W        W40575   5.062   7.112   2.504  0.0202  0.0709 -0.3362
20296W        W40576  12.833  17.111  13.151  0.0412  0.0863 -0.1871
20297W        W40577   7.780   6.762   2.236  0.0155 -0.3204 -0.2273
20298W        W40578  11.393   1.419  11.241 -0.2727  0.4497  0.0146
20299W        W40579  18.519   9.004   1.752 -0.0850 -0.0977 -0.0302
20300W        W40580  12.788  11.488   1.307 -0.0491 -0.3129  0.2197
20301W        W40581   5.713  16.787  11.852  0.0575  0.1733  0.1600
20302W        W40582   0.603   0.035   1.162  0.2830  0.2511 -0.3026
20303W        W40583   3.448   6.423  10.259 -0.0752  0.1441 -0.0022
20304W        W40584  18.665  12.262   5.203 -0.0020 -0.2155 -0.0152
20305W        W40585  19.215  17.893  10.386  0.0078 -0.1950  0.3709
20306W        W40586   2.384   5.176   2.607  0.0114  0.0237  0.0921
20307W        W40587   4.681  10.336  13.826 -0.1346  0.5729  0.2405
20308W        W40588  15.191  15.936  10.971  0.1274 -0.2243  0.0546
20309W        W40589  17.184   5.793   1.079  0.1173 -0.3057 -0.2366
20310W        W40590   4.413   0.290  10.708  0.0648 -0.3220  0.2177
20311W        W40591  17.914   8.499  11.168  0.0086 -0.0112  0.0052
20312W        W40592   8.255   3.835   2.590 -0.2607  0.0937  0.1602
20313W        W40593   0.015  13.977   0.116  0.0297 -0.0683 -0.3039
20314W        W40594  17.990   0.172   1.647  0.2453 -0.0032 -0.0427
20315W        W40595   4.692   0.030   3.636 -0.1398  0.2279  0.3868
20316W        W40596  17.471   8.591   2.055  0.1087 -0.1403 -0.1399
20317W        W40597  10.983   9.486   0.452  0.0237 -0.0813  0.0852
20318W        W40598   4.345  14.652   0.001  0.0636  0.1858  0.0107
20319W        W40599   9.730   6.828   0.699 -0.0847  0.3536  0.0657
20320W        W40600   4.491  10.883  11.483 -0.2565 -0.5035 -0.1179
20321W        W40601  17.770  10.875  12.176  0.1736  0.3846  0.0935
20322W        W40602  10.311  16.179  11.844  0.3159  0.0780 -0.4512
20323W        W40603   5.674   0.024  13.811  0.2166 -0.0622 -0.1911
20324W        W40604  12.561   0.316   9.931  0.0913 -0.1875 -0.0786
20325W        W40605   3.346   7.136   1.087 -0.0051  0.0554 -0.1092
20326W        W40606   2.742  16.729   3.374  0.0284 -0.3360 -0.4911
20327W        W40607  15.707  18.141   1.885 -0.3127 -0.1126  0.3818
20328W        W40608  15.710  13.280   0.763 -0.0722 -0.0030  0.0776
20329W        W40609  17.044   2.120  12.590 -0.1369  0.3909 -0.1650
20330W        W40610   5.005  18.214  13.564 -0.1530 -0.1190  0.0850
20331W        W40611   8.841  15.437   4.332 -0.0940 -0.3633  0.0071
20332W        W40612   6.971   2.721  10.710 -0.1064  0.1165 -0.1113
20333W        W40613   4.979   1.905  11.293  0.2309 -0.0702 -0.4006
20334W        W40614  14.996  16.501   1.375  0.2069 -0.0728  0.2540
20335W        W40615  17.630  18.018  12.181  0.2163  0.0781  0.1360
20336W        W40616  11.686  13.318   3.775 -0.2622  0.2320 -0.2622
20337W        W40617  11.060  17.065   2.559  0.1207  0.1095 -0.0754
20338W        W40618  18.062  18.352  12.976  0.0304  0.0820 -0.0375
20339W        W40619  19.270  13.200   1.364 -0.0082  0.3089  0.1501
20340W        W40620  16.844  14.437   3.785 -0.0887  0.1658 -0.2508
20341W        W40621  15.641  17.430  12.028 -0.0945  0.0090 -0.1358
20342W        W40622   8.157   6.839   0.274 -0.2761  0.2551 -0.1168
20343W        W40623  12.142   0.726  11.583 -0.1736  0.0160 -0.1095
20344W        W40624   5.513   3.708   1.009  0.0210  0.2276  0.3025
20345W        W40625   1.813   3.489   0.006 -0.3023 -0.2242  0.0902
20346W        W40626  19.537  15.505   0.020  0.1050  0.3278  0.0225
20347W        W40627  10.448  12.191   0.037  0.0052  0.1422 -0.1402
20348W        W40628  11.207   0.523  12.432 -0.0125  0.1140 -0.4571
20349W        W40629   6.538   8.991  13.253  0.1854 -0.0268  0.1827
20350W        W40630   1.841  11.392  11.957  0.0980  0.0888  0.0946
20351W        W40631  17.823   3.742  13.974 -0.3471  0.1870  0.2454
20352W        W40632  18.641   1.762  11.552  0.1839 -0.0808  0.1026
20353W        W40633   2.356  15.268   2.074 -0.1225 -0.0384  0.2386
20354W        W40634  18.635   2.734  12.229  0.0602  0.2733 -0.0311
20355W        W40635  11.980  12.151  13.635  0.1435  0.0270 -0.1626
20356W        W40636  18.587   4.521   3.780 -0.0872 -0.0730  0.1501
20357W        W40637  19.594   5.687   0.383  0.2941  0.0636  0.0972
20358W        W40638   4.594   3.153   1.353  0.0210 -0.0254  0.0765
20359W        W40639  14.391   1.132   0.242  0.1622  0.2496  0.0297
20360W        W40640  11.735  14.576  11.265 -0.0975  0.1650 -0.0898
20361W        W40641  14.464   0.495  11.219 -0.1622 -0.1242  0.2068
20362W        W40642   6.784  17.215  11.986 -0.0431 -0.0651  0.0046
20363W        W40643   3.674  18.964  13.854  0.0672 -0.2858 -0.0464
20364W        W40644  10.625   9.877  11.833 -0.2688  0.1030  0.1870
20365W        W40645   2.072  11.301  13.981 -0.4493  0.2601 -0.1714
20366W        W40646   1.664   3.101   2.788  0.3173 -0.2368  0.1013
20367W        W40647   5.475   8.705  11.552  0.1758  0.0501 -0.1263
20368W        W40648   5.556  18.205   1.992 -0.1317 -0.1949  0.0883
20369W        W40649   1.377  14.478  12.204 -0.0797  0.1147  0.0716
20370W        W40650   7.564  13.742  13.337  0.1601  0.2403  0.2727
20371W        W40651   3.101   3.184   1.534  0.4076  0.2665  0.1777
20372W        W40652   8.920  10.120  11.321 -0.1217 -0.0771  0.0795
20373W        W40653   6.884   6.707   0.451 -0.2214  0.1923  0.0080
20374W        W40654   9.845   7.628  12.390  0.0083  0.1246  0.0647
20375W        W40655  15.520  19.785   9.803 -0.0637  0.0364 -0.0337
20376W        W40656   8.897  10.515   3.697 -0.0456  0.2588  0.1070
20377W        W40657   7.548   4.490   1.536  0.1441 -0.2711  0.3426
20378W        W40658  15.289  11.745   0.933  0.1173 -0.2834  0.0179
20379W        W40659   4.607   6.209   1.474  0.0043 -0.0157  0.0860
20380W        W40660   2.088  17.083  10.134 -0.0974 -0.2359 -0.2517
20381W        W40661  16.565  16.691   0.243 -0.0806  0.0236 -0.2773
20382W        W40662   1.045  13.156   2.132  0.0567  0.1683 -0.1057
20383W        W40663  16.827  14.202  13.029  0.0866 -0.0438 -0.2658
20384W        W40664   9.559   2.281   0.782  0.0045  0.1156 -0.0574
20385W        W40665   1.451   4.164  11.284  0.1619 -0.2046 -0.0119
20386W        W40666   1.212  16.793   2.196  0.2369 -0.0142  0.0338
20387W        W40667   6.368   8.551  11.990  0.0891 -0.1376 -0.0185
20388W        W40668   3.259  18.929   0.576 -0.0431 -0.0066  0.0888
20389W        W40669   1.776  14.467   2.252 -0.1374 -0.0350 -0.1423
20390W        W40670   7.247   4.568  13.079  0.0764 -0.1228 -0.4058
20391W        W40671  11.430   4.317  10.469 -0.1123  0.0543 -0.1987
20392W        W40672  14.302  12.400   3.912 -0.1279  0.0160 -0.1419
20393W        W40673  11.432  15.109  13.461  0.0144 -0.1053 -0.3686
20394W        W40674  18.046   6.777  12.155 -0.1386  0.1803 -0.0234
20395W        W40675   4.030  14.096   3.034  0.2385  0.0735  0.1419
20396W        W40676   8.288  15.298  12.603  0.1948 -0.2126 -0.0666
20397W        W40677  16.413   0.586  10.294  0.3242  0.1721 -0.0853
20398W        W40678   2.493   5.034  11.234  0.3842 -0.2330  0.0257
20399W        W40679   9.094  14.103  13.295 -0.1632  0.1174 -0.3706
20400W        W40680   7.470  17.038  10.883  0.2889 -0.3540 -0.0580
20401W        W40681  16.918  18.451  12.758 -0.0560 -0.2264 -0.1174
20402W        W40682  11.808   5.856   9.504  0.1842 -0.0812  0.1216
20403W        W40683  18.142  15.790   1.576  0.2429  0.0300 -0.3112
20404W        W40684   6.897  13.144   2.863  0.1655 -0.1034  0.0296
20405W        W40685  10.267  10.960   0.105 -0.1134 -0.2109 -0.1283
20406W        W40686  17.571  14.081   3.117 -0.0690  0.0230  0.4148
20407W        W40687  13.462   9.303  10.330  0.2713  0.2711  0.1347
20408W        W40688  11.435  18.358   1.237  0.1491  0.0202  0.0455
20409W        W40689   8.946  16.836   2.431  0.0006  0.3493 -0.2854
20410W        W40690  14.941  18.348  10.547  0.2554 -0.0360 -0.0380
20411W        W40691   5.386  18.964  10.425  0.2067  0.0371  0.0380
20412W        W40692  12.816   0.223   2.650  0.0743  0.1250 -0.2372
20413W        W40693  17.517   8.090  12.977  0.2698  0.2037  0.1460
20414W        W40694   3.495   9.931   0.220 -0.1646 -0.0122  0.1237
20415W        W40695   5.939  10.890  13.610  0.2515 -0.1450 -0.0008
20416W        W40696  14.050   5.967   3.750  0.2458 -0.1032 -0.2810
20417W        W40697  17.504  14.590  10.201 -0.0364  0.3793  0.2299
20418W        W40698   8.977   1.039   2.452  0.0412  0.2024 -0.1832
20419W        W40699  19.099  11.205  13.685 -0.0166  0.1772 -0.0696
20420W        W40700  10.488  14.461  14.016 -0.0329 -0.0253  0.2487
20421W        W40701  15.372   3.715   3.048  0.1492  0.1849 -0.0471
20422W        W40702  10.958   8.282   2.636  0.4277 -0.0676 -0.0572
20423W        W40703  17.135  19.459   3.082 -0.2257 -0.1165  0.2540
20424W        W40704   4.006  12.728   1.198  0.0555 -0.1642  0.1960
20425W        W40705  18.546   6.197  11.566 -0.1317 -0.1823 -0.2400
20426W        W40706  14.870  15.360  13.599  0.0360 -0.2218  0.0835
20427W        W40707   5.615  14.601   2.360 -0.4112 -0.1078 -0.0911
20428W        W40708   8.196  11.630  10.694  0.2374 -0.0461 -0.0575
20429W        W40709  15.044   6.499   1.711  0.1038 -0.3312  0.2781
20430W        W40710   2.272   5.583   2.239 -0.0449 -0.0398  0.2960
20431W        W40711  18.433  16.392  12.922 -0.2681 -0.0777 -0.2305
20432W        W40712  16.973   9.761   2.944  0.2343 -0.0329 -0.3773
20433W        W40713  11.400   4.967  12.677 -0.2358 -0.2554 -0.1929
20434W        W40714  14.944   8.343   2.488  0.3430 -0.2822  0.2273
20435W        W40715  17.814   3.828  10.549  0.1657 -0.0499  0.3631
20436W        W40716  15.511  12.996   3.873  0.0393 -0.1987 -0.2834
20437W        W40717  13.891   9.048   0.759 -0.0500  0.1439 -0.3793
20438W        W40718  17.125   6.676   1.784  0.2383  0.1317  0.3067
20439W        W40719  14.868  14.842   0.206  0.1251 -0.5047 -0.0014
20440W        W40720  12.864   7.245  13.433  0.0223  0.2312 -0.1669
20441W        W40721  12.113  17.815   9.359 -0.2827 -0.1478  0.2029
20442W        W40722  13.468  11.866  13.528 -0.0919 -0.1146  0.0630
20443W        W40723   6.725  19.346  12.963  0.1897  0.0877  0.1039
20444W        W40724   1.895  11.388  12.662 -0.0733 -0.0441  0.0621
20445W        W40725   3.209   8.025   2.045 -0.3086 -0.0457 -0.0564
20446W        W40726  15.828  13.723  12.862 -0.3050 -0.4054  0.0789
20447W        W40727  11.005  12.540   2.699  0.1231  0.2219 -0.0466
20448W        W40728   1.495  14.877   2.540 -0.0207 -0.0605 -0.3164
20449W        W40729  19.312  18.566  13.608  0.1447 -0.0435 -0.0843
20450W        W40730  12.787  14.104   0.975 -0.0794  0.1457 -0.0828
20451W        W40731  18.358  10.876   9.990  0.0060 -0.0779 -0.1937
20452W        W40732   9.391   6.384   0.798  0.1271  0.0580 -0.1244
20453W        W40733  10.820   3.081  12.943 -0.0805  0.1371 -0.1138
20454W        W40734  13.926   9.161   4.739  0.0700 -0.1541  0.3045
20455W        W40735  16.659   9.208   9.148  0.0327  0.0579 -0.2340
20456W        W40736  10.749  13.568   3.040 -0.0157 -0.3952 -0.1180
20457W        W40737  11.268   3.730  13.203 -0.0313  0.0522 -0.3637
20458W        W40738   7.722  18.495  10.729  0.1396  0.2130  0.0119
20459W        W40739  13.466   1.976  11.081 -0.1244 -0.0784 -0.0800
20460W        W40740   9.523   5.872  13.051  0.0105 -0.1489  0.3017
20461W        W40741   8.114   2.416  13.610 -0.0730  0.2576  0.0335
20462W        W40742  10.874  15.521  12.066  0.4153 -0.0449  0.0825
20463W        W40743   9.705  13.752   0.901 -0.1776 -0.0221  0.1591
20464W        W40744  13.755   6.378   1.308 -0.0656  0.0474 -0.1351
20465W        W40745   9.262  17.833   3.360 -0.0357 -0.1335  0.1648
20466W        W40746   3.750   4.378  12.039  0.0705  0.0977  0.2337
20467W        W40747  19.722  10.625   0.174 -0.2398  0.2548  0.2595
20468W        W40748  16.622   5.686  12.791 -0.0593 -0.2285  0.4699
20469W        W40749  16.651  11.506  13.200 -0.0099 -0.1351 -0.1686
20470W        W40750   8.403   5.905  14.072  0.3320  0.0528  0.1916
20471W        W40751   5.985  18.871   1.511 -0.1018  0.1609  0.0970
20472W        W40752  16.983  10.494   4.896 -0.2486 -0.1132 -0.5512
20473W        W40753   8.438   8.384  12.232 -0.1765  0.0454  0.5390
20474W        W40754   6.455  10.873  11.883 -0.1696  0.0099 -0.1186
20475W        W40755  16.561   2.387  13.691  0.1148 -0.2527 -0.2061
20476W        W40756  16.762   8.941   3.419 -0.0123  0.3569 -0.6220
20477W        W40757   0.763  14.345  12.799  0.0253 -0.0880  0.2093
20478W        W40758  10.834   8.271   1.238  0.3304  0.0271  0.0794
20479W        W40759   0.827   1.360   1.685  0.1915  0.1870  0.3908
20480W        W40760   7.693  11.750   0.993  0.1794 -0.0068  0.3859
20481W        W40761   1.335   2.585  11.892 -0.2031  0.0912 -0.0540
20482W        W40762  11.563  12.908  12.404 -0.2037 -0.0940 -0.0020
20483W        W40763   8.281  10.687  10.607 -0.0736  0.1454 -0.1050
20484W        W40764  13.189   4.790   2.015  0.2317 -0.2554  0.1150
20485W        W40765   8.084  10.972  12.137  0.0589  0.0712 -0.3535
20486W        W40766   2.998   4.922  11.824 -0.0829 -0.0901  0.3131
20487W        W40767  18.321   2.703   3.675  0.0901  0.1542 -0.0304
20488W        W40768   2.937   0.762   2.776 -0.2378  0.1267  0.2573
20489W        W40769  19.627   4.757   4.245  0.1910 -0.2518 -0.0818
20490W        W40770  11.145   6.047  12.361  0.0306 -0.1685 -0.1907
20491W        W40771  12.547  16.543   2.452  0.1958 -0.1703 -0.2409
20492W        W40772  10.860  11.311   1.398  0.1601  0.1127  0.0656
20493W        W40773  17.201   6.840  13.893 -0.1993 -0.0985 -0.0823
20494W        W40774   3.687   9.739   4.189 -0.0582 -0.0349  0.6478
20495W        W40775  12.699   4.828  13.074 -0.3999  0.0715  0.0500
20496W        W40776   5.157  11.834   0.088  0.1197 -0.1849  0.2634
20497W        W40777   2.525  17.591   0.745  0.0098  0.2250  0.1703
20498W        W40778   0.536  11.577  12.425 -0.1754 -0.0307 -0.0627
20499W        W40779  18.915  18.632  13.232  0.1460 -0.1239 -0.4426
20500W        W40780  13.708  19.320   0.700 -0.1942  0.1627  0.0643
20501W        W40781  12.230  18.923  10.593  0.1149  0.1277  0.0768
20502W        W40782  19.462  19.535  10.136 -0.1806  0.2079 -0.0476
20503W        W40783  15.257  16.195  13.731  0.0840 -0.2082  0.2881
20504W        W40784  11.468   6.644  14.046  0.0853 -0.2881 -0.1034
20505W        W40785   1.439   7.454  10.279  0.0348  0.0028 -0.0174
20506W        W40786   0.206  14.611   3.942  0.0010  0.4473  0.3579
20507W        W40787   2.532  17.332  10.671  0.0558  0.0029  0.0561
20508W        W40788  17.288  19.342   3.583  0.1634 -0.0162  0.3289
20509W        W40789  19.698   5.633  11.134 -0.0188 -0.0150  0.0074
20510W        W40790  13.169  11.492  11.780 -0.2214 -0.0914 -0.3730
20511W        W40791   5.681   1.991  13.623 -0.0639 -0.3509  0.0894
20512W        W40792  11.959  19.682  12.639 -0.2006 -0.5054  0.0124
20513W        W40793  10.559  14.400   3.270  0.0257 -0.1346 -0.0219
20514W        W40794  19.054  10.639   1.346  0.4556 -0.0242  0.1271
20515W        W40795  15.893   1.163   1.708  0.2292 -0.0150  0.5621
20516W        W40796  11.987   5.560   0.442  0.0526  0.3088  0.1671
20517W        W40797   1.324  10.435   0.742  0.0296  0.0004  0.1908
20518W        W40798   1.335  13.987  11.104 -0.0090  0.1280  0.2154
20519W        W40799  10.395   7.840   2.627  0.2678 -0.0662 -0.1378
20520W        W40800   3.043   0.930  11.191 -0.1770  0.3059  0.0150
20521W        W40801   3.058   1.357   9.031  0.1863  0.0939 -0.0068
20522W        W40802  11.449   1.338   3.256 -0.0921  0.0316 -0.2558
20523W        W40803   3.180  17.757   0.792 -0.4433  0.0429  0.0783
20524W        W40804   0.780   5.934   0.751 -0.0987  0.1473  0.1319
20525W        W40805  16.966  18.996   1.132  0.1722  0.1858 -0.1488
20526W        W40806  12.218   7.521   2.329 -0.2000  0.3561  0.1807
20527W        W40807   7.664  17.558  13.541  0.3127  0.2881 -0.0063
20528W        W40808   7.930  17.362   2.807 -0.1379 -0.1858  0.4064
20529W        W40809  13.235   0.334  10.761  0.3777  0.1514  0.0017
20530W        W40810   9.615  10.502   2.762 -0.3549  0.0285  0.0654
20531W        W40811  13.749   6.711   3.150  0.0697 -0.0769 -0.1762
20532W        W40812   3.189  17.791   1.429 -0.4225  0.1296 -0.3551
20533W        W40813  14.089   3.573  12.910  0.2847 -0.1636 -0.0373
20534W        W40814   3.192  15.894  11.766  0.2457  0.1672 -0.0296
20535W        W40815  12.709  17.831  10.626 -0.1582  0.0721 -0.1361
20536W        W40816  11.558  19.080   0.886 -0.1399  0.2710  0.1233
20537W        W40817  12.576   5.233   4.123  0.5938 -0.1199  0.1301
20538W        W40818  14.620  15.208  12.057 -0.1470 -0.2706 -0.2811
20539W        W40819   7.091  19.043  13.117 -0.0359 -0.2392  0.2256
20540W        W40820  11.292  15.555  13.178  0.0098  0.0023  0.0644
20541W        W40821   7.585  18.978  12.779  0.1127  0.2426  0.1653
20542W        W40822  13.297  16.030   0.011  0.0510  0.3551  0.0839
20543W        W40823  11.460  14.270   2.636 -0.3394  0.0660 -0.0556
20544W        W40824  11.192   0.635  10.181  0.1533 -0.0611 -0.3081
20545W        W40825  18.626   9.793  11.663  0.0458  0.1330  0.0958
20546W        W40826  15.691  12.700   0.750 -0.1239 -0.0801  0.1323
20547W        W40827  16.412  10.866   0.463 -0.1961 -0.0751 -0.1468
20548W        W40828  15.895   1.518  11.311  0.1871 -0.0654 -0.0019
20549W        W40829  13.276  11.999   9.344 -0.0538  0.1376 -0.0050
20550W        W40830   7.545   6.200  14.029 -0.1001 -0.1877 -0.2816
20551W        W40831  17.132   7.231  11.951  0.1871 -0.1112  0.0205
20552W        W40832   7.617  17.726  14.048  0.1159  0.0728 -0.1492
20553W        W40833  14.788  10.609  11.278 -0.0004 -0.0873  0.2773
20554W        W40834   7.013  10.696   3.142 -0.1292  0.0125  0.3515
20555W        W40835  15.651  12.039   3.367  0.0670  0.1473 -0.0340
20556W        W40836   4.489  13.679  13.646 -0.0269 -0.0462  0.1848
20557W        W40837  10.689  11.606   2.210  0.0694  0.0006  0.0412
20558W        W40838  14.719   1.749  11.381 -0.0050  0.3578  0.2187
20559W        W40839   1.290  16.490   0.425 -0.1982  0.0420  0.3747
20560W        W40840   2.125  14.100  13.614  0.0337  0.0197 -0.0423
20561W        W40841   4.554  12.172  12.141 -0.0252 -0.1578  0.2686
20562W        W40842   1.629  16.078  12.966  0.2139 -0.2119  0.0581
20563W        W40843   5.867   1.337   2.125  0.5021 -0.0845  0.1859
20564W        W40844   8.198   1.356  10.476  0.2377 -0.3166 -0.0261
20565W        W40845  18.566   3.491  10.664 -0.0597 -0.1760 -0.0593
20566W        W40846  14.590   6.874   2.544  0.3127  0.0776  0.1697
20567W        W40847  13.315  13.573  11.490 -0.1877  0.2890 -0.1471
20568W        W40848   3.177  18.266  13.457  0.3360 -0.1296  0.1366
20569W        W40849   7.052  16.796  10.994  0.2714  0.0543  0.3651
20570W        W40850  12.189  11.397  13.990 -0.0543 -0.1712 -0.0569
20571W        W40851  18.462   6.197   2.510 -0.0212 -0.0078  0.1927
20572W        W40852  10.547   5.579  10.487 -0.2711 -0.2477 -0.0499
20573W        W40853   2.045   3.912   3.313 -0.4527 -0.1341  0.0118
20574W        W40854   2.046  14.928   2.218 -0.0107  0.1477 -0.1724
20575W        W40855  15.621  17.000   8.962  0.0350 -0.1813  0.2611
20576W        W40856   8.357   1.430  11.012 -0.1131 -0.2023  0.1321
20577W        W40857  14.178  13.685   0.468 -0.0327  0.0296  0.2590
20578W        W40858   7.548  12.229   4.179  0.1601  0.0627  0.1506
20579W        W40859   3.100  16.102  10.049  0.1987 -0.1792  0.3074
20580W        W40860  15.580   9.345  12.512 -0.4185  0.2292  0.0190
20581W        W40861  15.592  13.185  11.246  0.0629  0.0042 -0.1995
20582W        W40862   3.607  11.273  13.526  0.2753  0.0202 -0.0109
20583W        W40863   0.433   0.350   3.591  0.1267 -0.2168  0.2265
20584W        W40864  18.155  16.256   3.197 -0.1291 -0.0698  0.1122
20585W        W40865   8.531  15.724  11.489 -0.3106  0.2698  0.2144
20586W        W40866   5.423   6.461  11.393  0.1652  0.0580  0.1581
20587W        W40867  14.017  17.591   2.169 -0.1923  0.0241  0.0657
20588W        W40868   4.607   4.881   2.010  0.1212  0.0406  0.1533
20589W        W40869   3.692   3.691  13.716  0.1271 -0.1122 -0.1691
20590W        W40870  14.087   1.176  12.190  0.0605 -0.0430  0.1327
20591W        W40871   0.519   8.910   3.090  0.0116  0.0321  0.0046
20592W        W40872   2.293   2.714   0.640  0.2264 -0.0332  0.0799
20593W        W40873  18.787  16.180   1.059  0.0469 -0.2430  0.1291
20594W        W40874  15.067  13.465  10.075 -0.1032 -0.5181 -0.0715
20595W        W40875  18.521   0.718  10.507 -0.1731 -0.0309 -0.1292
20596W        W40876   3.310   5.828  13.580  0.0607 -0.1071  0.0822
20597W        W40877  18.680  11.662  10.437  0.1158 -0.0719 -0.0106
20598W        W40878   7.408  14.046   0.720 -0.0598 -0.1842  0.3568
20599W        W40879  13.107   9.439  10.688 -0.0475 -0.0916  0.0961
20600W        W40880   3.326   1.961  12.734 -0.1120 -0.3633 -0.1415
20601W        W40881  18.012   3.158  12.159  0.3430  0.0477  0.0705
20602W        W40882   4.621   3.666  13.996 -0.0592 -0.3880  0.1050
20603W        W40883   2.587   9.925  11.936 -0.2321  0.0237 -0.1631
20604W        W40884   6.832  12.727  12.719 -0.0652  0.0796  0.0589
20605W        W40885   7.197   5.481   1.721 -0.0653 -0.0055 -0.2873
20606W        W40886   5.242   2.276  13.433 -0.3673 -0.0504  0.2447
20607W        W40887   6.287  15.313   0.541  0.4782  0.0967  0.0325
20608W        W40888  12.057   9.877  11.962 -0.0509 -0.0871 -0.0456
20609W        W40889  10.519  19.053   2.311  0.1851  0.1196  0.0682
20610W        W40890   2.896   9.734   1.156 -0.1780 -0.1480 -0.3979
20611W        W40891  17.675   5.039  11.047  0.0497 -0.3765 -0.0462
20612W        W40892  15.074   5.340  11.905 -0.2776  0.1940  0.4253
20613W        W40893  14.530   4.499   1.662 -0.1445  0.0175  0.0601
20614W        W40894   4.477  18.125   0.134  0.2423 -0.1449 -0.2517
20615W        W40895  15.679   1.750   0.925 -0.1005 -0.2298 -0.2836
20616W        W40896  17.161  13.943  13.275  0.2731  0.1942  0.2304
20617W        W40897  15.099  13.534  12.192  0.0059  0.0256 -0.2564
20618W        W40898  19.583  18.018  12.330  0.1278 -0.3462  0.0562
20619W        W40899  17.542  17.940  13.345 -0.2181 -0.0294  0.2204
20620W        W40900  19.360  15.614  12.711 -0.0521  0.0014 -0.0901
20621W        W40901  11.361   6.534   1.839  0.2978  0.1651  0.1784
20622W        W40902  15.680   2.725  12.501  0.0532  0.1928 -0.0081
20623W        W40903  19.581   6.520   3.912  0.3264 -0.1227  0.0179
20624W        W40904   7.016   3.953   1.183 -0.0192 -0.3060  0.0444
20625W        W40905  12.137  11.410  11.393 -0.1836 -0.1612 -0.3148
20626W        W40906   9.655  18.668  11.198 -0.2105  0.0351  0.0626
20627W        W40907  18.181  16.480  11.180 -0.0977 -0.2154 -0.0409
20628W        W40908  15.962  15.049  12.707  0.2067  0.0067 -0.1404
20629W        W40909   6.335  18.765  12.572 -0.0530 -0.2350  0.3911
20630W        W40910  14.245  10.620  12.256 -0.1508 -0.2802 -0.3839
20631W        W40911  11.325  16.417  12.393 -0.1583  0.1727 -0.0758
20632W        W40912  15.992  13.290  11.717  0.3165 -0.0656  0.1675
20633W        W40913  16.490  16.529   1.369  0.0490 -0.0246  0.2163
20634W        W40914  16.609  14.820  11.048  0.3893  0.1446 -0.0307
20635W        W40915   4.731   0.987   0.845  0.1118  0.0395 -0.1649
20636W        W40916  10.291   3.066  11.216  0.1771 -0.2596 -0.1530
20637W        W40917  12.143  15.617   9.151 -0.0328 -0.2144 -0.1323
20638W        W40918  10.311   6.934  12.683  0.1902  0.1561 -0.2276
20639W        W40919  19.342   1.026   2.224 -0.4107  0.0808 -0.0159
20640W        W40920  10.107  15.173  11.309 -0.2130 -0.1186 -0.1209
20641W        W40921   7.381   0.118  10.454 -0.0386 -0.3124  0.3342
20642W        W40922  11.254   0.580   2.682  0.0044  0.1215  0.1043
20643W        W40923   0.335   4.579   9.434 -0.2481  0.0750 -0.3899
20644W        W40924   0.299  15.450  10.416  0.0629  0.2301 -0.1443
20645W        W40925  14.905  14.481   2.938  0.1302  0.0504  0.0091
20646W        W40926   2.197  10.347   1.735 -0.3829  0.1917  0.1292
20647W        W40927   8.525  18.522   3.322 -0.1771 -0.0346 -0.2994
20648W        W40928  13.530  16.728   0.132 -0.1073  0.1325  0.0967
20649W        W40929   1.689  12.809   4.313 -0.0408 -0.0266  0.0119
20650W        W40930   5.057   4.846  10.652  0.1965  0.0681 -0.0058
20651W        W40931   3.218  18.737   2.363 -0.0831 -0.0251 -0.1236
20652W        W40932   2.512  17.838   1.539  0.1088 -0.0328  0.0382
20653W        W40933  10.102  14.138   1.576 -0.4482  0.1657 -0.0617
20654W        W40934  19.333  15.632  10.369  0.0543 -0.3110  0.2213
20655W        W40935   5.913  15.267  13.826 -0.3276  0.1706 -0.0010
20656W        W40936  16.339   1.188  10.327 -0.1940 -0.3340 -0.2722
20657W        W40937   7.761   8.743  11.867 -0.1526 -0.3232 -0.3164
20658W        W40938  11.533   9.866   0.387  0.2942 -0.1242 -0.0926
20659W        W40939  12.772   1.747  12.210  0.3505  0.0401 -0.0036
20660W        W40940  11.542  11.051   0.498 -0.0212  0.1030  0.1732
20661W        W40941  13.916   2.262  13.586 -0.0810 -0.1882  0.1600
20662W        W40942  18.793  15.397   9.134 -0.1096  0.2545 -0.1592
20663W        W40943  17.475   1.647  10.733 -0.2646 -0.0912  0.0915
20664W        W40944  16.618  19.070   1.799  0.0881 -0.0305 -0.0049
20665W        W40945   2.528   4.438   0.755  0.1199 -0.0598  0.3838
20666W        W40946   5.916  16.092  10.372  0.2027 -0.0042 -0.0092
20667W        W40947   8.401   7.856   4.036  0.2053 -0.2812  0.1958
20668W        W40948   7.468  10.308  13.713  0.0242  0.3398  0.2473
20669W        W40949  14.098  11.747  11.434 -0.2794  0.0188 -0.1623
20670W        W40950   0.939  10.683  11.133 -0.0958 -0.0982  0.1715
20671W        W40951   2.595  19.139  12.359 -0.1588  0.1809 -0.0150
20672W        W40952   8.184   8.970   4.257  0.1136  0.3919  0.2694
20673W        W40953  14.572   8.445  10.620  0.0565 -0.1002 -0.0334
20674W        W40954   2.342  14.211  12.722  0.1306 -0.2274 -0.3533
20675W        W40955   4.673   5.255  12.354  0.1110 -0.1119  0.2315
20676W        W40956  17.083  17.284  10.666 -0.0402 -0.2532  0.0505
20677W        W40957  15.781   2.823   2.832 -0.4387  0.0434  0.0162
20678W        W40958  10.176   6.166   1.124  0.0498  0.0344  0.0820
20679W        W40959   1.999  11.590  11.546  0.0593  0.0323 -0.2508
20680W        W40960   5.491  15.587  12.075  0.1338  0.2743 -0.1851
20681W        W40961   8.761   5.051  10.402  0.4472  0.0640 -0.1806
20682W        W40962   6.760   4.577   0.117  0.2059  0.0334 -0.0767
20683W        W40963  14.619   3.232  10.160 -0.0873  0.2754  0.1978
20684W        W40964  18.058  18.853   0.589 -0.2195 -0.3777  0.0233
20685W        W40965  17.131  18.085   2.509 -0.3263 -0.0937  0.0101
20686W        W40966   8.673  18.501  10.283  0.0037 -0.1337  0.0777
20687W        W40967   1.395  14.667   3.923 -0.1469  0.1650  0.2335
20688W        W40968  14.853   9.900   1.896  0.0007  0.0998 -0.2924
20689W        W40969   4.080  11.361   2.078 -0.0656 -0.0550  0.1757
20690W        W40970   6.572  12.879   1.638  0.1239  0.3690  0.1712
20691W        W40971   2.958   6.615  10.936  0.0230  0.0858 -0.0245
20692W        W40972  13.047  19.418   1.047  0.0973 -0.2399 -0.1596
20693W        W40973  11.593  18.034  10.059  0.0764  0.2295  0.2581
20694W        W40974  18.753  13.912  11.900  0.0376 -0.2026 -0.3487
20695W        W40975   3.493   3.877  13.235 -0.0582 -0.0100  0.2358
20696W        W40976   3.561   8.696   2.622 -0.1544  0.0079 -0.0824
20697W        W40977  13.979   5.345  13.169 -0.0568 -0.2281  0.0862
20698W        W40978   4.205  12.461   3.000  0.0281 -0.0867 -0.3481
20699W        W40979   4.722   9.957   3.805 -0.0937  0.0441 -0.0524
20700W        W40980   9.320   6.527  11.528  0.1904  0.0110 -0.0930
20701W        W40981  11.525  17.130  12.896 -0.1872  0.4765 -0.2949
20702W        W40982   8.322  15.063   2.983  0.0057  0.1233  0.0720
20703W        W40983  18.834  18.047   1.101  0.1167  0.0219  0.2844
20704W        W40984   7.463   4.276  12.289  0.0281 -0.1900 -0.2184
20705W        W40985  11.926   7.087  10.710 -0.0031 -0.0038  0.1580
20706W        W40986  14.935   6.802  13.527  0.0934  0.0135  0.2741
20707W        W40987   3.719   4.073   3.864  0.2424  0.1258  0.2429
20708W        W40988   4.638  18.101  10.302 -0.1478  0.3537 -0.1518
20709W        W40989   8.229  18.079   0.787 -0.1352 -0.1221  0.0371
20710W        W40990   0.508  18.452  12.583 -0.0891  0.0777  0.0538
20711W        W40991  10.007   8.217  11.569  0.0262 -0.2137  0.2237
20712W        W40992  16.986   8.607   2.437 -0.4207 -0.3226 -0.1914
20713W        W40993   7.038  10.576   2.403 -0.1023 -0.1172 -0.1710
20714W        W40994   6.461   3.828  11.094 -0.1117  0.0736  0.0644
20715W        W40995  12.129  17.872   1.027  0.2939  0.0551 -0.4570
20716W        W40996  13.274   5.951  11.109 -0.0383 -0.1974 -0.3679
20717W        W40997   8.337   0.857   2.000 -0.1762  0.0327  0.5875
20718W        W40998  12.854   5.714  10.957 -0.3080 -0.2726 -0.1410
20719W        W40999  10.357   2.920   0.077 -0.1978  0.0773 -0.1073
20720W        W41000  11.099   5.387   0.437  0.0578  0.0532 -0.4087
20721W        W41001  18.799   8.745   0.986 -0.0469 -0.2755 -0.0750
20722W        W41002   1.838   5.843   1.369 -0.0513 -0.1686 -0.0874
20723W        W41003  14.095   5.576   0.751  0.1317  0.2213 -0.0238
20724W        W41004  17.127   9.502  10.630 -0.1068  0.2047  0.0583
20725W        W41005   1.858   8.074  13.111 -0.0987  0.0498  0.2069
20726W        W41006   5.518   3.839   0.041  0.0031 -0.0294  0.0177
20727W        W41007   8.916  10.345   1.672  0.0757  0.2702  0.2331
20728W        W41008   4.332   6.319   4.114  0.2752  0.0331 -0.2664
20729W        W41009   9.366  12.712   3.183  0.2322 -0.0743  0.1621
20730W        W41010  18.695  17.856  13.316 -0.4928 -0.2507  0.0370
20731W        W41011  18.490   6.499  11.150  0.0634 -0.2581  0.0606
20732W        W41012  13.749   6.831   0.992  0.2248 -0.0384 -0.1109
20733W        W41013  14.596   7.903   2.643  0.0401 -0.1511  0.1799
20734W        W41014  11.178  16.237   2.335 -0.2500 -0.0439  0.0170
20735W        W41015   7.567  18.496  13.195  0.1725  0.2920  0.1121
20736W        W41016  10.799   5.204   1.653  0.3263  0.3035  0.0575
20737W        W41017   7.654  19.164   1.445  0.2468  0.1067  0.0682
20738W        W41018   2.810  12.441  13.312 -0.0869 -0.1272 -0.4336
20739W        W41019  14.058  14.691  11.617 -0.0837  0.1038  0.0672
20740W        W41020   8.564  18.041   3.110 -0.0211 -0.0027 -0.0674
20741W        W41021   0.847  10.020  13.556  0.0402  0.1418 -0.0413
20742W        W41022   7.453  15.225  11.874  0.0661 -0.2446 -0.1026
20743W        W41023  10.072   8.737  13.876  0.1628  0.2293 -0.2129
20744W        W41024  11.571  18.686   4.201  0.0281 -0.2409 -0.2088
20745W        W41025  14.658   2.648   2.313  0.4812  0.1896  0.0622
20746W        W41026  10.922   5.430  10.984 -0.2397  0.3055  0.0370
20747W        W41027  17.351  18.258  10.089 -0.1447  0.1233  0.0133
20748W        W41028  16.378  12.165   0.447  0.0552  0.2453  0.0635
20749W        W41029   4.102  17.964   3.518 -0.1616  0.2217 -0.2529
20750W        W41030  18.865   3.944  12.987 -0.2714  0.0270  0.0816
20751W        W41031   1.660  19.534  12.466  0.0032  0.2358 -0.0226
20752W        W41032   6.580  18.859  13.025  0.0140 -0.0100  0.0530
20753W        W41033  17.027  16.140   0.733 -0.1360 -0.2934  0.1083
20754W        W41034  12.415  14.232  10.657  0.3528  0.1374  0.0039
20755W        W41035  11.368   9.749   4.056  0.0367 -0.1805 -0.0078
20756W        W41036  15.547   7.592   0.966 -0.2996  0.0652  0.0022
20757W        W41037  15.398  15.468   1.561 -0.0598 -0.2784  0.0804
20758W        W41038  18.184   5.316   1.249 -0.0938 -0.0969 -0.4256
20759W        W41039   2.478  19.563   0.105  0.0522  0.0563  0.2793
20760W        W41040   5.502  17.515   1.290  0.3244  0.0650  0.0943
20761W        W41041  14.960  19.300  10.145  0.2641 -0.0060  0.2236
20762W        W41042  17.718  11.806   2.682  0.0104  0.1590  0.0514
20763W        W41043  13.860   1.000   2.000  0.1905  0.2120 -0.0421
20764W        W41044  17.716  12.730   2.934  0.2132  0.1714 -0.1588
20765W        W41045   6.338  12.014   3.800 -0.1358  0.0605  0.0073
20766W        W41046  17.206   5.665   2.075 -0.1736 -0.2290  0.0264
20767W        W41047  18.524  18.346   2.678 -0.1097 -0.0184  0.0836
20768W        W41048   7.652  16.326  12.736 -0.2465  0.1838  0.2329
20769W        W41049  16.189  13.787  13.270  0.1714 -0.3292 -0.1141
20770W        W41050  10.504  13.256  12.722  0.0472 -0.0266 -0.0331
20771W        W41051   0.907   4.483   3.020  0.2553 -0.1406  0.0139
20772W        W41052  15.301  12.135  10.340  0.1290 -0.0733 -0.2071
20773W        W41053   7.198   7.257  13.170 -0.1619  0.0881 -0.0526
20774W        W41054  12.168   4.759  11.405  0.0769 -0.1540  0.2825
20775W        W41055   5.198  17.522   2.661  0.0478 -0.1537  0.1245
20776W        W41056  10.283   4.371  11.800 -0.1802 -0.0915 -0.0046
20777W        W41057  13.133   4.279  12.460  0.1249 -0.1147 -0.0187
20778W        W41058  10.875   0.759  13.813  0.2650 -0.3054 -0.3370
20779W        W41059  17.618  16.634   0.148  0.0245  0.0089 -0.1407
20780W        W41060  14.423  14.326  11.887  0.2018 -0.0406  0.3277
20781W        W41061  19.092   5.485  10.318  0.2135 -0.1049 -0.0183
20782W        W41062  16.884  11.589  11.675  0.3718  0.0131 -0.0092
20783W        W41063  17.913   5.377  10.553 -0.0886 -0.5236  0.2103
20784W        W41064   1.436   7.643  10.738 -0.0633 -0.0190  0.0532
20785W        W41065   4.825  12.817   0.040  0.0210 -0.0131  0.3374
20786W        W41066   0.434   7.556   9.723 -0.1236  0.0761  0.0283
20787W        W41067   4.056  18.463  11.171 -0.2015 -0.0988  0.1923
20788W        W41068   6.539   0.725  12.594  0.2234 -0.1798 -0.0085
20789W        W41069  17.060  10.841  10.180  0.1214  0.0417  0.1390
20790W        W41070   5.798  19.323  13.680 -0.2380  0.1439 -0.0899
20791W        W41071   3.423  15.069   2.588 -0.0465  0.0472  0.2125
20792W        W41072   0.774   0.879   0.116  0.0739  0.1977  0.1943
20793W        W41073  19.398   0.153  13.485 -0.1600  0.0776 -0.0018
20794W        W41074   3.501   1.733   2.557 -0.0223  0.2942 -0.0336
20795W        W41075  10.721   7.239   1.503 -0.1706  0.0753 -0.2715
20796W        W41076   5.038  17.720   3.145 -0.0095  0.0567  0.1891
20797W        W41077   2.585   1.070  10.326  0.0326  0.2321 -0.2023
20798W        W41078  12.593   1.048  12.921 -0.0090  0.2914 -0.0116
20799W        W41079  10.755   6.756   0.430  0.3587  0.1172  0.2079
20800W        W41080   3.407   9.605  11.698 -0.0739  0.0824  0.1486
20801W        W41081   2.734   1.068  12.745  0.0091 -0.0067  0.0130
20802W        W41082  17.710  11.666   1.384  0.5830  0.0438 -0.0260
20803W        W41083   2.393  14.339   2.412 -0.0917 -0.1425  0.4043
20804W        W41084   8.044   7.947   3.349  0.4701  0.0290  0.2015
20805W        W41085   0.729   6.722   1.846 -0.0616  0.1555  0.0928
20806W        W41086   4.310  13.999   1.100  0.1373  0.0163 -0.3193
20807W        W41087   5.967   8.013   4.180 -0.3295  0.2377 -0.0686
20808W        W41088   7.821  10.025   0.550  0.0610 -0.0787 -0.1431
20809W        W41089   9.676  12.038   3.701  0.2226 -0.1172 -0.1290
20810W        W41090   7.093  17.909   1.173  0.2184 -0.3433 -0.1039
20811W        W41091  19.148   6.255   3.705 -0.2555 -0.2539 -0.1721
20812W        W41092   7.848   9.544   3.271  0.2229  0.4995 -0.0539
20813W        W41093  12.686   1.873   0.419  0.1697 -0.1556  0.2134
20814W        W41094   3.241  18.593  10.659 -0.2278  0.0896 -0.1536
20815W        W41095   2.777   4.917   2.588 -0.0144 -0.1199  0.0344
20816W        W41096  14.692  14.163   9.958 -0.0033  0.0739  0.0515
20817W        W41097   2.912  11.156   4.491  0.0207 -0.0995  0.1672
20818W        W41098   5.052  16.075   2.958 -0.0743  0.0952  0.1130
20819W        W41099   5.205   6.216   2.350  0.2350 -0.3592 -0.3849
20820W        W41100  15.053  18.175   0.704  0.0905  0.2901 -0.0411
20821W        W41101   0.491  13.931  12.660  0.1410 -0.3272  0.0718
20822W        W41102  18.325  14.480  11.445 -0.0617  0.0743 -0.2297
20823W        W41103   1.842  18.971   3.951  0.0850 -0.1843 -0.1578
20824W        W41104  18.453   3.112  10.266  0.0171 -0.0358  0.0550
20825W        W41105   4.015   6.098   2.704 -0.2199 -0.1940  0.0535
20826W        W41106  14.505   4.213   0.068 -0.0159 -0.0047  0.0439
20827W        W41107  18.126  15.292   0.387 -0.1351 -0.0618  0.3106
20828W        W41108   0.381  12.562   0.496  0.0762 -0.0710  0.2400
20829W        W41109  12.136   4.874   1.077  0.3875  0.1372  0.0490
20830W        W41110  11.856   2.623   4.447 -0.2515 -0.0486 -0.2694
20831W        W41111  13.605   5.176   1.226 -0.1777  0.0036 -0.4097
20832W        W41112  14.156  11.308   0.877 -0.1730  0.1900  0.0726
20833W        W41113  13.237  10.755   1.135 -0.1851 -0.0615  0.1012
20834W        W41114  11.709  13.932   5.003 -0.0632 -0.1009  0.3482
20835W        W41115  14.504  13.404   0.028 -0.3774  0.1072 -0.1413
20836W        W41116  11.048  18.131  11.827 -0.4845 -0.0850 -0.1212
20837W        W41117  14.312   0.175   3.484  0.0445 -0.0046  0.2192
20838W        W41118  13.808   7.907  13.335  0.2520  0.0968 -0.2004
20839W        W41119   5.923   5.335  13.183  0.0316  0.1323  0.0354
20840W        W41120   6.620   0.447  12.192 -0.0363 -0.0244  0.1266
20841W        W41121  11.094   3.139  13.437  0.4264 -0.2587 -0.0148
20842W        W41122  10.859   8.878  12.066 -0.1635 -0.0037 -0.0926
20843W        W41123  17.312   4.468  13.001 -0.1338 -0.4026  0.0660
20844W        W41124  12.197  15.666  10.946  0.0001  0.1621  0.1481
20845W        W41125   0.542  11.903  11.977 -0.3171 -0.2551  0.0293
20846W        W41126   2.159   0.274   1.889 -0.0166 -0.1148  0.0552
20847W        W41127   7.705   3.681  12.934 -0.0248 -0.1132  0.1269
20848W        W41128   0.200   5.656   1.282  0.0730  0.0437 -0.0070
20849W        W41129  10.848  14.707  13.222  0.0601  0.1167 -0.1474
20850W        W41130  14.992   9.507   3.929 -0.2211  0.0541  0.2131
20851W        W41131  12.501  11.123   5.024  0.3135  0.1362  0.1358
20852W        W41132   3.867  17.274   0.301  0.2641  0.2823  0.1519
20853W        W41133  16.653  10.179  12.414  0.2861  0.1091  0.0712
20854W        W41134  10.325   6.427  12.063  0.2154 -0.0562 -0.0021
20855W        W41135  10.709   1.029   1.844 -0.0499  0.1403  0.1234
20856W        W41136   3.750   6.674  12.494 -0.3460  0.1062 -0.2807
20857W        W41137   8.807   4.085   2.950 -0.0304  0.0345 -0.0201
20858W        W41138   3.222  17.078  12.358  0.0333 -0.3403  0.0860
20859W        W41139   7.077   6.597   1.483  0.2042 -0.0958  0.0743
20860W        W41140  11.095   2.129   3.228 -0.1069  0.1845  0.3584
20861W        W41141   8.148  17.650  10.806 -0.0869 -0.0504 -0.1003
20862W        W41142   9.801   7.917   0.474  0.0991 -0.0450  0.1667
20863W        W41143   1.457   0.233  14.105  0.0275  0.0589 -0.0073
20864W        W41144  13.078  19.138   0.039  0.1536  0.0307 -0.3085
20865W        W41145  16.005  19.642   0.117 -0.0886 -0.0027  0.1355
20866W        W41146   4.053  12.967  13.076 -0.3086  0.2403  0.1763
20867W        W41147  14.147   7.024   2.695 -0.1777  0.0884 -0.0007
20868W        W41148   5.486   8.237  11.760 -0.1214 -0.0425  0.0671
20869W        W41149   3.190   8.371  11.666  0.0970 -0.1028 -0.0416
20870W        W41150   0.817   6.200  12.549  0.1526  0.1357  0.0451
20871W        W41151  14.268  13.600   3.951  0.2459  0.2409 -0.1030
20872W        W41152   1.328   0.565   0.799 -0.5211  0.1066 -0.3150
20873W        W41153  19.249  17.791   1.155 -0.1356  0.3873 -0.0720
20874W        W41154  14.031  19.386  13.512 -0.1522 -0.0523  0.3038
20875W        W41155   9.025   2.832   2.812 -0.0137 -0.1369 -0.0156
20876W        W41156   0.883   2.425   3.103  0.0723  0.4345 -0.0674
20877W        W41157   9.745   3.315   3.417 -0.1319  0.0293 -0.1434
20878W        W41158   1.160   9.601   3.637  0.1175  0.2288 -0.0362
20879W        W41159  16.622  12.986   0.419  0.2993  0.1948 -0.2074
20880W        W41160   7.909   8.685   3.913 -0.2196  0.1298 -0.5369
20881W        W41161  17.594  13.476  11.733  0.2378  0.0153  0.0391
20882W        W41162   0.017  10.708  11.993  0.0987 -0.0959 -0.6230
20883W        W41163  18.630  13.180   0.667 -0.0125 -0.0819 -0.0104
20884W        W41164  14.129  10.498   3.907 -0.2271 -0.0895 -0.0455
20885W        W41165  19.277  17.208  13.426  0.2407 -0.3996 -0.0596
20886W        W41166   4.097  10.785   1.114  0.0176 -0.0549  0.1602
20887W        W41167   2.206   1.122  12.573 -0.4105  0.0273  0.4316
20888W        W41168  16.019  13.932   1.895 -0.3780 -0.2040 -0.1789
20889W        W41169  17.635   9.784   1.525  0.2179  0.1103  0.0437
20890W        W41170  18.778  12.990  13.256  0.0900  0.2624 -0.2022
20891W        W41171   8.384  15.752  12.839 -0.1685  0.2206 -0.1460
20892W        W41172  14.901   1.552  12.865  0.2081  0.2156 -0.2193
20893W        W41173   6.495   4.728   2.731  0.1861 -0.1057  0.1513
20894W        W41174   3.835  13.580  11.241 -0.0915 -0.2532  0.1066
20895W        W41175   7.263   7.836   2.997  0.0408  0.0155  0.0398
20896W        W41176   9.355   4.177   3.564  0.3345 -0.0705 -0.0518
20897W        W41177  18.552   9.791  13.217 -0.1178 -0.4559 -0.1080
20898W        W41178   7.284  11.936  14.104 -0.2897 -0.1872 -0.2416
20899W        W41179   2.902  17.705  10.836 -0.0026 -0.2618 -0.0167
20900W        W41180  13.669   4.609   2.623 -0.4193  0.0652  0.1987
20901W        W41181  11.863   4.388   1.212 -0.1258 -0.2800  0.2657
20902W        W41182   7.621   8.393   2.007 -0.0894 -0.0972  0.0752
20903W        W41183   5.065   2.632   1.055 -0.1375  0.1144 -0.1532
20904W        W41184  16.585  13.229  11.010 -0.1148  0.3058  0.1262
20905W        W41185   2.026  19.453  10.690  0.1153 -0.2693 -0.2201
20906W        W41186   7.798   4.045   2.577 -0.0351  0.1224  0.0485
20907W        W41187  12.855  15.085   2.795  0.1098  0.0447  0.2472
20908W        W41188   6.520   5.872   0.260  0.0074 -0.1213 -0.1292
20909W        W41189   6.155  19.696  13.875  0.1046 -0.0980  0.3499
20910W        W41190  16.508   4.652   1.228 -0.1381 -0.1541 -0.0243
20911W        W41191  11.470  10.589   0.301 -0.1065 -0.0038  0.0509
20912W        W41192   1.566  19.092  11.930 -0.0133 -0.2821 -0.0373
20913W        W41193  12.760   9.998  10.718  0.0846  0.0632  0.1559
20914W        W41194  18.498  13.647   2.653  0.0437 -0.0703 -0.1699
20915W        W41195   8.311   3.594  13.561  0.0879  0.0058  0.2746
20916W        W41196   7.904  16.363  11.852 -0.3759  0.0558 -0.3650
20917W        W41197  11.592   3.029   0.288 -0.0036 -0.0753 -0.1103
20918W        W41198   4.449   6.246   1.943 -0.1289 -0.2167  0.2088
20919W        W41199   9.250   0.034  11.187 -0.2325 -0.4684 -0.1629
20920W        W41200  10.321  16.559  11.462  0.0526  0.2090  0.0946
20921W        W41201   0.203   2.530  10.716 -0.4337  0.1242  0.3005
20922W        W41202  14.932  17.598   1.743  0.0032 -0.2341  0.0541
20923W        W41203  14.812  14.459  11.062 -0.1776 -0.3504 -0.0681
20924W        W41204  18.695   6.657  13.203  0.1657  0.1680 -0.0801
20925W        W41205   4.315   0.851   0.036 -0.3362 -0.1613 -0.2950
20926W        W41206   5.847   3.559  11.734 -0.5495 -0.0932 -0.0697
20927W        W41207   7.202  18.921   2.261 -0.1381 -0.0554 -0.2362
20928W        W41208  10.387   8.715  11.666 -0.1640  0.1469 -0.4093
20929W        W41209  17.226   6.954   9.788 -0.2210  0.2423  0.1695
20930W        W41210  10.800   0.714   9.826  0.0772 -0.1529  0.0487
20931W        W41211   2.652  16.366   3.667  0.0404  0.1425  0.4070
20932W        W41212   9.024  19.575   3.919 -0.0998 -0.1442 -0.1107
20933W        W41213   1.006   7.575   1.250 -0.1780  0.3111  0.0353
20934W        W41214   5.553  12.607  12.295 -0.0144 -0.1348 -0.2765
20935W        W41215  10.221   5.495  10.135 -0.2572 -0.0042 -0.0028
20936W        W41216   0.109   2.753  12.282 -0.0174  0.1664 -0.2508
20937W        W41217  19.096   4.415   0.714 -0.3105  0.3502 -0.1327
20938W        W41218  11.716   3.183  11.302 -0.0825  0.1427  0.1423
20939W        W41219   9.546  13.808  12.474 -0.0380 -0.1699 -0.2072
20940W        W41220  19.366   2.023   0.746  0.1000  0.3311  0.0686
20941W        W41221  15.289   5.037   0.998 -0.2879 -0.1264  0.0401
20942W        W41222   8.403  12.720  10.396  0.2111 -0.0428 -0.1211
20943W        W41223   0.236  18.294   1.954  0.2013 -0.1573 -0.1136
20944W        W41224   4.230   7.517   1.805  0.1388 -0.0587  0.0895
20945W        W41225   3.721  16.954   3.261  0.2452 -0.3794 -0.1473
20946W        W41226   4.423  17.786  10.658 -0.0183 -0.1692  0.1320
20947W        W41227  14.234   4.511  13.749  0.1173  0.2506  0.2244
20948W        W41228  14.360   5.975  11.870  0.0794 -0.0734 -0.1887
20949W        W41229  13.509  12.244  10.584  0.1134  0.0945 -0.1139
20950W        W41230   5.382   5.948   1.993 -0.0389 -0.0214  0.1197
20951W        W41231   2.695  12.097   0.809 -0.1054  0.0455 -0.0213
20952W        W41232  16.202  14.612  11.956  0.1833 -0.0236 -0.0966
20953W        W41233   9.656   1.156   3.573 -0.1349 -0.1744 -0.1359
20954W        W41234   3.534   5.714  10.125  0.2441  0.0397 -0.1334
20955W        W41235  11.044   8.541   3.838 -0.2341 -0.1366  0.1208
20956W        W41236   1.752  14.727  11.099  0.2820 -0.1570 -0.0544
20957W        W41237   4.014  17.902  13.196  0.2692  0.3518  0.1105
20958W        W41238  18.790  13.292   3.595  0.0900 -0.3430 -0.1896
20959W        W41239  17.974   8.883  10.285  0.2333  0.0177  0.2472
20960W        W41240  13.794   6.779   4.118 -0.5095 -0.2422 -0.2131
20961W        W41241  14.654  10.478   0.176 -0.0578  0.2222 -0.4383
20962W        W41242  19.354  16.059  13.563 -0.1330  0.0959  0.0733
20963W        W41243  19.432  13.494   3.916  0.0637 -0.1728  0.2954
20964W        W41244  16.710   0.470   1.462  0.2490 -0.0491  0.0732
20965W        W41245  16.029   1.330   3.481  0.0400  0.0376 -0.0187
20966W        W41246   8.089   0.211   0.087 -0.0807  0.0688 -0.1333
20967W        W41247  10.652   6.773  11.746  0.2481 -0.0180  0.1326
20968W        W41248   2.902  19.005   0.903 -0.3228  0.0219  0.1928
20969W        W41249  11.858  17.891   2.582  0.1250 -0.2246  0.0927
20970W        W41250  16.851   8.653  12.661 -0.0508  0.2486  0.1624
20971W        W41251   7.680  11.353   3.684  0.0003  0.2019 -0.0325
20972W        W41252   5.821  19.470  13.227  0.0510 -0.1686 -0.0224
20973W        W41253   1.884  10.158   1.339 -0.2579 -0.0498  0.0658
20974W        W41254  11.153   9.256  13.246  0.2512 -0.1227  0.1016
20975W        W41255  16.297   3.708   3.784  0.0683 -0.1958  0.3141
20976W        W41256   3.681   6.199   1.555 -0.3025  0.2304  0.0881
20977W        W41257  18.648  10.895   1.556  0.2470  0.0953  0.0185
20978W        W41258   6.850  13.009   0.719 -0.0915 -0.2301 -0.0744
20979W        W41259  18.393  17.145   2.508 -0.0280  0.3441  0.2236
20980W        W41260  16.881   6.330   3.205  0.2769  0.0490 -0.0860
20981W        W41261   6.828   4.526   2.404  0.0383 -0.1406  0.0422
20982W        W41262   5.017  14.825   1.171  0.1388 -0.0324  0.1274
20983W        W41263   2.080   8.397  11.609 -0.0503  0.1152 -0.3119
20984W        W41264  11.900  19.314   1.286 -0.3732  0.0698  0.1161
20985W        W41265  16.975  18.133   0.581  0.2333 -0.0594 -0.2119
20986W        W41266  18.306  19.628  10.484 -0.1105 -0.1412  0.1329
20987W        W41267  12.202   9.204   4.005 -0.1136 -0.1293  0.1395
20988W        W41268  17.227   6.526   2.232  0.0896 -0.0897 -0.1107
20989W        W41269  10.955  18.912  12.967 -0.1554 -0.2255  0.1703
20990W        W41270   6.345   5.214   2.136 -0.0265 -0.0935 -0.0912
20991W        W41271   1.055  10.783  13.512  0.2348 -0.0177 -0.0713
20992W        W41272  15.708  13.449   2.593 -0.1043  0.0669 -0.2738
20993W        W41273   7.283  18.689  10.970 -0.0713  0.0939 -0.0583
20994W        W41274   8.753  11.849  11.894  0.0805  0.1312 -0.1422
20995W        W41275   6.073   3.932  13.645 -0.0738 -0.0318  0.2634
20996W        W41276  11.201  14.298  12.153 -0.0429 -0.3582 -0.1453
20997W        W41277   8.417   6.194   2.923 -0.2734  0.0145 -0.0240
20998W        W41278   3.605  15.299   3.087  0.0256  0.1384  0.0181
20999W        W41279   8.701  19.240   2.104 -0.1303  0.2541 -0.0215
21000W        W41280  16.121   3.927  11.963  0.0762  0.2640  0.1834
21001W        W41281   2.732   6.680   3.016 -0.0586 -0.1275 -0.2646
21002W        W41282  13.546  19.366   2.696 -0.0975  0.0868 -0.5135
21003W        W41283   0.524   2.069   2.320  0.0847 -0.1231 -0.0770
21004W        W41284  17.298   9.820   0.507  0.2589  0.1382  0.0421
21005W        W41285  13.193  17.452   3.088 -0.0408 -0.3996 -0.0607
21006W        W41286   8.298   2.631   0.455 -0.1747 -0.3248  0.1182
21007W        W41287   3.061   2.458  12.685 -0.0139 -0.2908  0.1668
21008W        W41288  12.425  19.398  13.535  0.3426 -0.0686  0.0991
21009W        W41289  12.273  10.396  13.475 -0.2595 -0.0220 -0.2467
21010W        W41290  10.255   3.196   0.733 -0.2148 -0.0598 -0.0720
21011W        W41291   0.928   9.707  11.507 -0.3161 -0.1491 -0.1203
21012W        W41292  11.496  12.687  11.951  0.1828 -0.2454  0.0806
21013W        W41293  10.708  11.147  11.819 -0.1018 -0.1318  0.0746
21014W        W41294  19.398   3.633  11.641 -0.2841  0.1562 -0.1845
21015W        W41295   7.993   8.795   2.692 -0.1223  0.0312 -0.0251
21016W        W41296  14.730   1.078  12.786 -0.3023 -0.5703 -0.2455
21017W        W41297   6.328   3.362   2.834  0.1611  0.0220 -0.0230
21018W        W41298   3.294  17.129   2.957  0.0601 -0.2002 -0.2236
21019W        W41299   2.546   0.293  13.625  0.3167 -0.3404  0.0717
21020W        W41300   5.498   9.844   1.197  0.0155  0.2087  0.2365
21021W        W41301   7.898   8.260  11.884  0.2072  0.0993  0.1874
21022W        W41302   0.818   6.705  12.957  0.2233 -0.2315 -0.1444
21023W        W41303   3.224   7.171   4.062 -0.2684  0.2097  0.1055
21024W        W41304  19.353   1.211  11.852 -0.1639 -0.0371 -0.1385
21025W        W41305  11.506   3.941  10.824 -0.1731 -0.2219 -0.1102
21026W        W41306  11.537  12.135   2.714 -0.1445 -0.0792 -0.3225
21027W        W41307  14.909   5.514   0.222  0.3611  0.0142 -0.0883
21028W        W41308   1.961  15.539   3.892 -0.0818  0.0015 -0.2604
21029W        W41309  15.409   1.720  12.680 -0.4260  0.2464  0.0344
21030W        W41310  15.577   6.377   1.596  0.1848 -0.0019  0.0808
21031W        W41311   4.342  16.455  11.894  0.3726 -0.1914 -0.2484
21032W        W41312  19.458  14.081   1.102 -0.1988  0.0191  0.0701
21033W        W41313  11.996  12.520   0.111  0.1756 -0.0284 -0.3466
21034W        W41314  10.846  17.372  10.705 -0.0273 -0.0272  0.2977
21035W        W41315  14.598  13.585   3.474 -0.1276 -0.0228 -0.0927
21036W        W41316   8.666   1.311   3.445  0.1525 -0.0524  0.0079
21037W        W41317   6.842  18.621   2.007 -0.0772  0.1933  0.2428
21038W        W41318   3.674   6.405  11.811  0.0586  0.1095  0.1112
21039W        W41319   7.044   7.660   9.512  0.4125 -0.2651  0.0355
21040W        W41320   6.328   3.520   0.647 -0.4753  0.3435 -0.0952
21041W        W41321   6.966  17.493  12.766 -0.1205  0.2348  0.0187
21042W        W41322  10.667   7.929   0.740  0.0380 -0.1131  0.0534
21043W        W41323  18.917   2.080  13.506  0.1998 -0.0153  0.0463
21044W        W41324  10.356  11.361   3.528  0.2339 -0.3074  0.0399
21045W        W41325  12.342   5.659   2.965  0.4418  0.1646  0.1883
21046W        W41326   6.567  10.300  13.903 -0.5739  0.3436  0.1416
21047W        W41327   0.099   5.576  11.615  0.0800 -0.0833 -0.0206
21048W        W41328   9.231  11.990  12.166  0.1147 -0.0285  0.0826
21049W        W41329   5.753  19.623   1.725 -0.0019  0.0289  0.0425
21050W        W41330  11.954  11.184  13.194  0.0474 -0.0997 -0.2495
21051W        W41331  16.317   6.061  13.660 -0.0179  0.1787  0.3064
21052W        W41332   8.992   1.840  13.520  0.1938  0.0972  0.0912
21053W        W41333   1.660   1.321   3.328 -0.1663  0.1393 -0.0832
21054W        W41334   7.459   4.477   0.019 -0.0411  0.3313 -0.0877
21055W        W41335  19.452   8.881  12.744 -0.2131  0.1719  0.0626
21056W        W41336   3.202   7.737   3.870 -0.0816 -0.0481  0.2178
21057W        W41337   2.562  18.014  11.111  0.0780 -0.0109 -0.0261
21058W        W41338  14.494  17.276   1.686  0.3399 -0.1631  0.2323
21059W        W41339  14.934  19.362  11.534  0.0463  0.2752 -0.0339
21060W        W41340  13.380   2.385  11.356  0.1162  0.1261  0.2169
21061W        W41341  13.430   1.028   1.732 -0.1208 -0.0460 -0.1650
21062W        W41342  18.042   1.412  12.247 -0.2257 -0.1464 -0.0591
21063W        W41343   7.560  13.697  11.078 -0.0897  0.0119  0.1870
21064W        W41344   2.864   3.084  13.545  0.2273  0.0298  0.3989
21065W        W41345  14.345  11.804  14.023  0.2683 -0.0492 -0.0102
21066W        W41346  14.239   0.523   2.715 -0.3287 -0.1122  0.2999
21067W        W41347   9.218  16.607  11.820  0.3303  0.0721  0.4094
21068W        W41348   4.040   3.181   0.498 -0.0491  0.1487 -0.3430
21069W        W41349   9.086  14.092  12.344  0.0743 -0.1611  0.1206
21070W        W41350   6.506  18.212   2.257 -0.2311 -0.0055  0.0497
21071W        W41351  18.649  19.092  12.388 -0.1373 -0.1953  0.5077
21072W        W41352   6.135   4.488  11.509 -0.1074 -0.0270 -0.3351
21073W        W41353  10.265  17.354  11.869  0.3815 -0.1655  0.4174
21074W        W41354  19.753  19.383  14.061  0.0545 -0.0527 -0.1238
21075W        W41355   4.976   7.314   2.019  0.0952  0.0719  0.0574
21076W        W41356   6.516  15.226   3.126  0.2288 -0.3094 -0.1022
21077W        W41357   3.781  16.148  13.909 -0.1294  0.0891  0.5030
21078W        W41358  11.755   1.697  10.184 -0.4814 -0.1160 -0.0678
21079W        W41359   5.857  12.589   1.120  0.0040 -0.0142 -0.1641
21080W        W41360   5.769  19.448  12.180 -0.3333  0.0422 -0.1321
21081W        W41361   0.430  18.795   1.228 -0.0396 -0.3978  0.3567
21082W        W41362  15.290  13.408   2.327  0.1256 -0.1626  0.1601
21083W        W41363  19.307  10.916  10.307  0.2678  0.0727  0.0090
21084W        W41364   8.255   5.796  13.530  0.0472  0.1195 -0.2730
21085W        W41365   5.428   2.897   3.175 -0.1928 -0.0215  0.3156
21086W        W41366   7.762  10.682  11.883  0.0186  0.3352 -0.2347
21087W        W41367  10.767  19.446   4.208 -0.1637 -0.0875 -0.2793
21088W        W41368   2.628   7.624   0.343 -0.0954 -0.0334  0.2510
21089W        W41369   4.116   0.930   4.524  0.1531  0.1155 -0.3491
21090W        W41370  12.406  12.554  11.554 -0.3088 -0.2286 -0.2847
21091W        W41371   9.360  16.172  11.520 -0.1064  0.1296 -0.2202
21092W        W41372   2.221   8.167  14.032  0.1141 -0.1467  0.0889
21093W        W41373   5.312   0.176  12.580  0.0348 -0.0037  0.0205
21094W        W41374  13.594   0.862   0.899  0.0101  0.1584 -0.2955
21095W        W41375   3.306   8.279   2.519 -0.3737  0.1114  0.1838
21096W        W41376   1.603   3.134  10.047  0.1266 -0.1676 -0.0669
21097W        W41377  10.591  19.343  13.983 -0.1394 -0.1556 -0.3048
21098W        W41378  13.745   9.596  10.689  0.1439  0.2257  0.0133
21099W        W41379  18.651  16.784   0.129  0.2959 -0.2918 -0.0618
21100W        W41380   3.609   0.907   2.177 -0.1400 -0.4282  0.1316
21101W        W41381   7.621   9.562  11.369 -0.1131 -0.0081 -0.0262
21102W        W41382  13.230   0.807  13.758  0.0922  0.0214 -0.0399
21103W        W41383  19.560  11.736   0.758 -0.2364 -0.0352  0.0255
21104W        W41384  13.647   6.833   1.523 -0.2699 -0.0514 -0.1983
21105W        W41385  15.296  16.885  13.902  0.2251 -0.3268 -0.1839
21106W        W41386   4.802   3.457   1.006 -0.1235 -0.0382  0.1503
21107W        W41387   7.735  12.351  13.271  0.2221  0.0257 -0.4239
21108W        W41388  17.082  19.756   1.999  0.0886 -0.1548 -0.1076
21109W        W41389  17.994   6.439  11.421  0.0915 -0.1836 -0.1752
21110W        W41390   5.833  10.429   2.703 -0.1053 -0.3170 -0.0397
21111W        W41391   3.742   9.860  13.446  0.2547 -0.2838 -0.1999
21112W        W41392   1.911  15.807   0.482 -0.1217  0.0692  0.1053
21113W        W41393  14.095  11.087   3.996  0.1149  0.1000  0.1893
21114W        W41394  10.420  15.323   3.302  0.1338  0.0673  0.0632
21115W        W41395   9.059   5.067  11.921 -0.1486  0.0531 -0.3132
21116W        W41396   3.747   1.340   2.378 -0.1137 -0.0143 -0.2291
21117W        W41397   5.352   4.724  11.109 -0.1091  0.3523 -0.1807
21118W        W41398   5.587   6.770  13.041  0.1169 -0.0166  0.1140
21119W        W41399   6.378  10.949  13.890  0.2237  0.2680  0.1641
21120W        W41400  11.411   7.320   2.440  0.4311  0.3653  0.1228
21121W        W41401  11.332  15.375   1.708  0.1565 -0.3853 -0.1288
21122W        W41402   6.584  11.127   1.413 -0.4356 -0.0026 -0.0873
21123W        W41403   0.102  16.457   0.186 -0.2701  0.0365 -0.0864
21124W        W41404   6.733   9.938   2.875 -0.0390  0.0784 -0.0070
21125W        W41405  14.212  17.483   2.637 -0.0213  0.0242 -0.3926
21126W        W41406   5.556  15.599   2.260 -0.3820  0.2530  0.1788
21127W        W41407  15.542   3.153   2.495  0.1568 -0.0629 -0.1178
21128W        W41408   0.678  14.607  13.423 -0.1507  0.2435  0.1148
21129W        W41409   9.028  16.379   2.699  0.2518 -0.0712 -0.1274
21130W        W41410  17.951   1.002   0.708  0.0709  0.0251 -0.1823
21131W        W41411   1.230  12.235  13.346  0.0192  0.0141  0.0226
21132W        W41412  16.621  16.494  10.630  0.3122 -0.4146  0.3476
21133W        W41413  16.044  10.923  12.351 -0.2514 -0.0502  0.4760
21134W        W41414  16.393  10.611   1.826  0.0559  0.2884 -0.2004
21135W        W41415   2.341   3.681   2.700 -0.2691 -0.2073 -0.0871
21136W        W41416  12.506   7.039   3.669  0.0521 -0.0260  0.0461
21137W        W41417   3.598   0.307   1.130 -0.0914 -0.2202 -0.1136
21138W        W41418  12.277  12.586  13.206 -0.0845 -0.0777  0.1742
21139W        W41419  18.559  11.883   4.125  0.0743  0.2667 -0.2753
21140W        W41420   7.004  12.513   2.375  0.1703 -0.0194 -0.0419
21141W        W41421   4.835   2.085   0.208 -0.0271  0.0119 -0.1022
21142W        W41422  17.259   5.022   0.479 -0.1311  0.2557  0.1481
21143W        W41423   3.884   4.859  12.084 -0.0485 -0.2163  0.4235
21144W        W41424  15.449   4.976   4.436  0.2958 -0.0615 -0.1504
21145W        W41425   7.932  11.161  13.467 -0.3141 -0.0195  0.0383
21146W        W41426   2.431  12.434   9.282  0.2015  0.3906  0.2158
21147W        W41427  18.140  13.149   2.626  0.1623 -0.0535  0.3032
21148W        W41428   4.869  10.715  10.607  0.0726  0.0760 -0.0321
21149W        W41429   4.508   7.084   1.730  0.2982  0.0889  0.0005
21150W        W41430   0.511   0.598  11.828  0.0477 -0.0802 -0.0143
21151W        W41431   4.422  17.994  11.853 -0.1551 -0.2339 -0.0447
21152W        W41432  14.714   4.333  13.588 -0.1004  0.2147 -0.0616
21153W        W41433  16.188  17.450   2.987  0.2675 -0.0855  0.3115
21154W        W41434  17.343  16.563  13.845  0.0934  0.1941 -0.1448
21155W        W41435   2.614   8.543  11.348 -0.2554 -0.0518 -0.2937
21156W        W41436  17.573  14.731  11.016  0.0517 -0.2819  0.3003
21157W        W41437   3.357  18.408   3.870 -0.0798  0.1736  0.1403
21158W        W41438   9.371  14.816  11.036 -0.2501  0.0512  0.1123
21159W        W41439   9.685   5.409  13.070 -0.0881 -0.1104  0.0006
21160W        W41440   7.966  11.050   2.292  0.2855  0.0894 -0.0065
21161W        W41441  19.500  16.456  12.980  0.0770 -0.2324  0.1453
21162W        W41442   5.317   2.811  12.436 -0.2126  0.3875  0.1960
21163W        W41443  19.235  17.597   3.925 -0.1243  0.3645  0.1689
21164W        W41444  11.082  16.530   2.700 -0.1112 -0.2198  0.0882
21165W        W41445   6.542  17.558   3.270 -0.0806 -0.3763  0.0048
21166W        W41446  16.550  15.024  13.062  0.2495  0.1150  0.1433
21167W        W41447  16.233  16.268   1.052  0.0364  0.0821  0.0454
21168W        W41448  19.356  14.276   1.582  0.2146 -0.1617  0.0192
21169W        W41449  13.459  13.076  10.811 -0.2730  0.2913 -0.0951
21170W        W41450  11.215   0.933   0.588  0.0349  0.1346 -0.1344
21171W        W41451   5.983  17.171  11.511 -0.0309  0.1906 -0.2511
21172W        W41452  11.759   3.532   9.907 -0.1152  0.1907  0.1806
21173W        W41453   2.603  15.001   1.700  0.0887  0.2709  0.0024
21174W        W41454   1.234  18.013   0.223  0.2341 -0.2055 -0.2463
21175W        W41455  17.301  11.235   0.710 -0.3130 -0.0207  0.1069
21176W        W41456   6.300  13.327   2.155 -0.0584  0.1925  0.1457
21177W        W41457  15.601   1.198  11.093 -0.0621  0.0525 -0.1260
21178W        W41458   6.530   0.164   3.731 -0.0568 -0.1872 -0.0906
21179W        W41459  19.099  12.459   3.081 -0.1224  0.0685 -0.2988
21180W        W41460  18.745  14.949  12.760  0.0401  0.1497 -0.1791
21181W        W41461   9.667  16.989   2.821  0.2294 -0.0369 -0.5047
21182W        W41462   7.745  11.810   3.401 -0.1192  0.2520  0.0963
21183W        W41463  15.507  14.131  12.965 -0.0042 -0.0214  0.1380
21184W        W41464   5.541   4.504  12.121 -0.0259  0.0924 -0.1391
21185W        W41465   1.253  16.015   1.976  0.0283 -0.1515 -0.2399
21186W        W41466   4.551  13.478   4.703  0.3416  0.2166  0.0091
21187W        W41467  10.125   6.412  11.049 -0.5822 -0.1274 -0.3104
21188W        W41468  18.817   9.988   2.165  0.2043  0.1940 -0.0000
21189W        W41469   7.203  17.423   1.286  0.1173 -0.4889 -0.1743
21190W        W41470   2.062  19.089   1.972  0.4709  0.0519  0.1675
21191W        W41471   8.692  15.999  13.151 -0.3004 -0.1931 -0.3408
21192W        W41472   0.759   6.663   9.387  0.1093 -0.0127  0.0772
21193W        W41473   2.459   0.733  11.309 -0.1316  0.1896  0.1110
21194W        W41474   6.384  19.394   0.121 -0.0617 -0.0347  0.0505
21195W        W41475  11.036   6.375   4.962  0.0620 -0.5346 -0.2620
21196W        W41476   8.211  16.114  11.457  0.0419 -0.0293  0.0059
21197W        W41477   9.183   5.908   2.671  0.0041 -0.1317 -0.0150
21198W        W41478   5.102  10.710   2.728  0.0838  0.2943  0.0947
21199W        W41479   6.254  15.576  11.112  0.2053 -0.4144  0.0121
21200W        W41480  19.001   9.960   3.875  0.1716 -0.0453 -0.2887
21201W        W41481   5.756  13.965   0.148 -0.1696 -0.1777  0.1845
21202W        W41482  10.279   0.961  12.789 -0.1334  0.0339 -0.3384
21203W        W41483  18.518  15.524  13.840  0.2208  0.1839  0.0313
21204W        W41484  14.442  19.505  13.195  0.1136 -0.0099  0.2875
21205W        W41485  14.386   2.242  10.003 -0.0253  0.2013 -0.0479
21206W        W41486   2.607  19.300  10.100  0.2759  0.1172 -0.0884
21207W        W41487  17.038  18.104  11.042  0.1698 -0.0754 -0.1502
21208W        W41488  16.621  10.822  10.473 -0.1445 -0.0390  0.0621
21209W        W41489  17.251  14.007  12.806  0.1380 -0.0458 -0.2684
21210W        W41490   5.955  12.401   2.056  0.1289  0.0474  0.0519
21211W        W41491  11.293  11.492   2.690  0.0354  0.2315  0.2155
21212W        W41492   1.855   0.019  11.162  0.0990  0.0639  0.2290
21213W        W41493  13.121  16.195  10.945 -0.1712  0.0500 -0.0157
21214W        W41494  18.507  15.423  11.146  0.1200 -0.1712 -0.1616
21215W        W41495  19.692  17.556   9.597 -0.0065  0.0745  0.3055
21216W        W41496  13.732  14.609  12.866 -0.1565  0.0148  0.3116
21217W        W41497   3.439   1.151   0.059  0.1200 -0.0761  0.1129
21218W        W41498   4.484   1.779   1.716  0.3514  0.0217 -0.1667
21219W        W41499  15.443  10.057  11.943 -0.1436  0.0520  0.1703
21220W        W41500   1.221   7.865  13.990  0.0650  0.3999  0.1185
21221W        W41501   8.089  10.220  10.757  0.2505 -0.2103 -0.2915
21222W        W41502  10.609   2.331   0.624  0.1890  0.0373  0.0054
21223W        W41503   0.412  17.665   2.625 -0.1646 -0.1689  0.1013
21224W        W41504   2.811  14.080  10.255  0.0207  0.0018 -0.4417
21225W        W41505   1.178   5.843   2.068 -0.0790 -0.1106  0.3733
21226W        W41506   6.092   5.754   0.831 -0.1920 -0.0252  0.3822
21227W        W41507  15.234   7.987  10.850  0.3179 -0.0402 -0.0115
21228W        W41508   9.364   4.751   2.355  0.2806  0.1720 -0.1032
21229W        W41509  13.798  12.778   1.007  0.1376  0.2426 -0.0173
21230W        W41510   7.623  12.614   0.934  0.0267  0.0531 -0.1046
21231W        W41511   9.491  16.813   1.485  0.0159 -0.1008  0.2255
21232W        W41512  14.582  19.028  10.034  0.1551  0.4516 -0.0396
21233W        W41513  17.797   8.105   3.243 -0.3841  0.2275  0.3699
21234W        W41514   1.971  11.837  10.608 -0.0687 -0.1626 -0.0073
21235W        W41515  17.118  11.364   2.257  0.0354 -0.0778 -0.1640
21236W        W41516   5.534  19.087   3.195  0.0314 -0.0569  0.1525
21237W        W41517   4.726   9.556   0.688  0.1959 -0.3484 -0.3007
21238W        W41518   5.568   2.441  10.219 -0.2407  0.3678 -0.0608
21239W        W41519  18.239  13.374  10.627 -0.1271 -0.0406 -0.1894
21240W        W41520   8.233  12.913   4.214  0.1101 -0.2418 -0.0323
21241W        W41521   6.795  10.186   0.903  0.0876 -0.0442 -0.2167
21242W        W41522  18.210  18.026   2.961 -0.0160 -0.0932 -0.1022
21243W        W41523  10.942   1.207  10.941  0.0530 -0.0411 -0.1576
21244W        W41524   5.262   1.339  14.100  0.0331 -0.2609 -0.0238
21245W        W41525  13.720  19.030  13.671  0.2597 -0.2017 -0.0586
21246W        W41526  14.207   1.034   2.475  0.0415  0.1410  0.0316
21247W        W41527  14.040  12.620  13.725  0.0121 -0.0449  0.1235
21248W        W41528  14.343  14.426   2.648  0.2372  0.1425  0.0407
21249W        W41529   3.057   4.054  13.013 -0.1712 -0.2302  0.0966
21250W        W41530   1.604   5.984   2.330  0.1406 -0.0139 -0.2309
21251W        W41531  19.127   4.464  13.279  0.0738 -0.4788 -0.2334
21252W        W41532  12.925  19.330  10.118 -0.1186  0.1877 -0.2654
21253W        W41533   8.713  14.630  13.692  0.0424  0.1209  0.0086
21254W        W41534  19.274   6.766   2.600  0.0404 -0.1784 -0.4826
21255W        W41535   7.018   7.316   2.665  0.1831  0.1402  0.0489
21256W        W41536  10.195  11.714   2.201 -0.0320 -0.4909 -0.0213
21257W        W41537  15.093  10.866   1.344 -0.1266 -0.0355  0.1087
21258W        W41538  14.341  12.485   3.365  0.0927 -0.1914 -0.1489
21259W        W41539   1.440  12.544   9.838  0.6254  0.1703  0.1350
21260W        W41540  13.331  14.064   2.975 -0.2804  0.1941  0.1601
21261W        W41541   1.854  18.178   2.943 -0.1256 -0.0905 -0.0064
21262W        W41542   0.563   4.620  12.341  0.1999 -0.0463  0.1025
21263W        W41543  13.836  11.140   1.643  0.0873 -0.0139 -0.3008
21264W        W41544  18.126  11.383   2.607  0.1791 -0.1314 -0.0914
21265W        W41545   0.255   5.087  12.398  0.1103 -0.1858 -0.0688
21266W        W41546   4.252   2.838  12.064  0.2557  0.1965 -0.0445
21267W        W41547  15.873   2.165   1.627  0.0269  0.2394  0.1222
21268W        W41548  12.580   9.417   3.006 -0.1431 -0.3979  0.2737
21269W        W41549  11.166  17.476  12.983  0.2315  0.1717 -0.3458
21270W        W41550  16.336  12.818  13.961  0.3080 -0.3339 -0.4248
21271W        W41551   4.692   2.836  12.755 -0.1202 -0.1438 -0.1372
21272W        W41552   3.908   3.841  11.879  0.0939  0.0793 -0.2796
21273W        W41553  15.923   3.399  11.149 -0.1659 -0.2109  0.0042
21274W        W41554   2.426  10.289   0.672  0.0101 -0.0017 -0.1052
21275W        W41555  11.434  14.160   3.628  0.1813 -0.2479  0.0252
21276W        W41556  12.818   1.339  11.512 -0.3635 -0.5172 -0.0179
21277W        W41557   0.837   1.463  10.971 -0.0167  0.1946 -0.1580
21278W        W41558   5.683   6.292  11.912  0.0000  0.0809  0.4863
21279W        W41559   1.054  13.898   2.830  0.1296  0.4127 -0.1892
21280W        W41560  12.023  19.543   3.559 -0.2239 -0.1542  0.0058
21281W        W41561  10.826  13.032  13.113  0.0037  0.0009 -0.2255
21282W        W41562   9.249  18.450   1.610  0.1711 -0.0466 -0.0090
21283W        W41563  10.530   4.647   0.045 -0.1522 -0.1513  0.2092
21284W        W41564  11.083   9.978   3.148 -0.1936 -0.3379  0.1316
21285W        W41565   4.856   9.016   2.711 -0.2161 -0.0061  0.0167
21286W        W41566  17.542  13.871   0.884  0.3895  0.3039 -0.0468
21287W        W41567  17.121  16.747  12.035  0.2031  0.0574  0.1978
21288W        W41568   3.673  15.752  11.907 -0.0516  0.3617  0.3136
21289W        W41569  15.918   4.869  13.455  0.1413  0.0324 -0.0463
21290W        W41570   1.813   5.027  12.013  0.2484  0.0790  0.0186
21291W        W41571   9.885  17.377   0.531  0.0457 -0.2179 -0.0459
21292W        W41572   5.412   5.559   3.427 -0.0162 -0.2231  0.1564
21293W        W41573   8.501   1.555  11.514  0.3524 -0.3503 -0.1240
21294W        W41574  14.376  13.910  13.272 -0.1427 -0.1284 -0.4952
21295W        W41575  10.111   0.445   1.797 -0.2781  0.0700 -0.1513
21296W        W41576   2.443   1.578   2.642 -0.0701 -0.1355 -0.1555
21297W        W41577   9.448   8.236  12.403  0.0900 -0.1207  0.0458
21298W        W41578   0.991   6.288   1.297 -0.0120 -0.3607 -0.2647
21299W        W41579   1.615  13.417  11.765 -0.1134 -0.0132  0.2346
21300W        W41580   3.612   0.816   9.545 -0.1263  0.0059  0.0599
21301W        W41581  19.550   7.508   1.851  0.4411  0.1402  0.0447
21302W        W41582  10.978   5.496   3.651 -0.2136 -0.3238 -0.2207
21303W        W41583   8.036   1.798  11.392 -0.1701 -0.2625  0.0246
21304W        W41584   9.832  14.922  12.008  0.4562  0.1182 -0.0043
21305W        W41585  11.046  11.965   2.070  0.1538  0.0015 -0.0454
21306W        W41586  19.413   1.920   3.359  0.0618 -0.2754  0.0626
21307W        W41587  12.230   9.003   0.374  0.2045 -0.1400 -0.1637
21308W        W41588   8.945  10.652  12.479 -0.0639 -0.4167  0.2491
21309W        W41589  14.872   2.406  11.542  0.1219 -0.0963  0.0713
21310W        W41590   3.701   0.199  10.115  0.2104 -0.0444  0.0800
21311W        W41591   1.922  13.306   0.663  0.0960 -0.0912  0.0277
21312W        W41592   4.639   4.854  10.394  0.0675 -0.2533  0.2413
21313W        W41593   8.069  17.660  13.077 -0.1311  0.1172 -0.0015
21314W        W41594  13.271   1.600   2.543  0.0475 -0.0758  0.1362
21315W        W41595   3.656   0.823  12.305  0.2119  0.1418  0.1519
21316W        W41596  15.342   2.205  12.863  0.2348 -0.1966 -0.3589
21317W        W41597  12.931  17.475  12.247 -0.1726 -0.2306  0.3348
21318W        W41598  18.144  10.305   2.154  0.1028 -0.0783  0.0611
21319W        W41599  12.067  12.566   2.638  0.1683 -0.0584  0.1465
21320W        W41600  19.376  12.700   2.784 -0.0425 -0.0285 -0.1312
21321W        W41601  16.350  10.608  11.316  0.1134 -0.1864 -0.0392
21322W        W41602  19.103  12.188  10.725  0.3296 -0.0619  0.0732
21323W        W41603   9.550  10.930  13.504 -0.1736 -0.1488 -0.2063
21324W        W41604  17.833   1.793  14.001 -0.1375 -0.1524 -0.3395
21325W        W41605   9.692  12.716   4.104 -0.0043  0.2958  0.1738
21326W        W41606   5.218  13.463   4.047  0.1270  0.0078 -0.0182
21327W        W41607   6.684   8.009   0.477  0.3454 -0.1876 -0.1837
21328W        W41608   2.237   9.410  11.330 -0.0727 -0.3577 -0.1295
21329W        W41609  18.018  16.602  11.624  0.0643 -0.0120  0.1494
21330W        W41610   9.748  15.986   2.734 -0.3380  0.3227  0.1453
21331W        W41611   5.983   0.181   4.238 -0.1962  0.1443 -0.1192
21332W        W41612  15.183  16.388  12.811  0.0517  0.0887  0.2646
21333W        W41613   0.794   2.414   0.216 -0.0099  0.1207 -0.0662
21334W        W41614   1.406  13.181   4.175 -0.1860 -0.0210 -0.0676
21335W        W41615  12.907  14.868  11.999 -0.0129  0.2453 -0.0174
21336W        W41616   9.943   1.772   1.453 -0.0907  0.0446 -0.1791
21337W        W41617   4.558   7.713   3.571  0.1199  0.0413 -0.1561
21338W        W41618   3.856   6.352  10.828 -0.1389  0.0920 -0.0500
21339W        W41619  10.557   1.758  12.327 -0.2424 -0.1606 -0.0204
21340W        W41620   3.294   1.493   2.958  0.0101 -0.1925 -0.0054
21341W        W41621  11.508  10.727   0.858 -0.0707  0.0863 -0.1752
21342W        W41622  14.157   5.523   3.459 -0.1101  0.2547 -0.0614
21343W        W41623   5.065  18.639  12.337  0.0853  0.1719 -0.2932
21344W        W41624   0.068   9.416  12.164  0.1314  0.0676 -0.2323
21345W        W41625   5.430  15.182   0.954 -0.3523 -0.0101 -0.1629
21346W        W41626  11.020   1.980   2.491 -0.0363  0.2349  0.1992
21347W        W41627  19.564   4.679   2.256 -0.0324 -0.0092  0.2033
21348W        W41628  11.617   8.494  11.462  0.1224  0.0853  0.0331
21349W        W41629   7.814   7.139   2.652 -0.2283  0.1234 -0.1950
21350W        W41630  19.422   5.399   3.262  0.1997  0.0910 -0.0668
21351W        W41631   6.301  14.034   2.884  0.0265 -0.1669  0.0465
21352W        W41632  18.303   0.107   2.460 -0.2173  0.1185 -0.1571
21353W        W41633   9.838   6.019   0.288  0.3212  0.2084  0.0950
21354W        W41634  16.469  13.759   1.922 -0.4620  0.0184  0.0119
21355W        W41635  17.723   0.592   3.625  0.1389  0.1050 -0.0347
21356W        W41636  17.054   0.531  10.602 -0.0243  0.0151  0.3039
21357W        W41637   1.907  11.850   1.557  0.4673 -0.0207  0.1693
21358W        W41638  11.137  19.654   3.275 -0.1830  0.2214 -0.2284
21359W        W41639  17.545   7.318  10.670 -0.0772 -0.0543  0.4173
21360W        W41640   8.822   2.578  11.607 -0.2776  0.1486  0.1992
21361W        W41641   9.699   9.504  13.414 -0.1408 -0.1172  0.0693
21362W        W41642   2.970  19.336   2.824 -0.0402  0.2642  0.1289
21363W        W41643  15.681   3.636  13.281 -0.1555 -0.1960 -0.0965
21364W        W41644  13.435   1.437   9.444 -0.3518  0.1771  0.0163
21365W        W41645   1.913  11.176   0.373  0.0239 -0.1718 -0.1354
21366W        W41646  15.411  12.886  12.067  0.3639 -0.1403  0.1770
21367W        W41647   1.770   7.706  11.713 -0.1656  0.1710 -0.1187
21368W        W41648  12.766  19.161  10.585 -0.1936 -0.1158 -0.1745
21369W        W41649   8.841   6.747   2.058  0.1209 -0.0407  0.0193
21370W        W41650   5.409  14.325   5.505 -0.0343 -0.0135  0.2386
21371W        W41651  19.521   3.258   3.553  0.0548 -0.1201 -0.2052
21372W        W41652   2.566   0.294   3.236  0.0039 -0.0689  0.0612
21373W        W41653   1.402   5.480  13.837  0.5084 -0.2164  0.1143
21374W        W41654   5.805   0.180   3.333  0.0037  0.1530  0.0779
21375W        W41655  10.794   6.520  12.182 -0.1043  0.2506  0.2418
21376W        W41656   8.422  12.074   2.446  0.1283  0.5645 -0.0518
21377W        W41657  12.734  16.586  11.785 -0.1887 -0.0165 -0.1108
21378W        W41658  10.222   2.031   3.559  0.2030  0.3528  0.1943
21379W        W41659   5.058   1.152   1.594  0.3531  0.3136  0.1234
21380W        W41660   0.641  13.246  12.101  0.0256 -0.0403  0.0656
21381W        W41661  15.379  18.566  10.464 -0.1044 -0.2599  0.1694
21382W        W41662   5.907  14.686  11.353 -0.3541  0.1767  0.1389
21383W        W41663   5.265  13.173   1.266 -0.3330  0.0205  0.2324
21384W        W41664  18.130   2.231  11.110 -0.0561  0.2285 -0.2910
21385W        W41665  14.996  16.897   1.039  0.2326 -0.2408 -0.2357
21386W        W41666  16.984   3.124   3.591  0.0637  0.2148  0.0703
21387W        W41667   0.589   9.640   1.297 -0.1226 -0.2662  0.0064
21388W        W41668  11.355  10.743  10.654  0.0463 -0.1925 -0.0026
21389W        W41669   6.502  12.385   2.241 -0.0438  0.3484 -0.2500
21390W        W41670  15.589   5.475  12.580  0.1260  0.0757  0.0972
21391W        W41671  11.713  12.730  12.826  0.0948 -0.0865 -0.1717
21392W        W41672  10.417  16.183   3.555  0.0013  0.0592 -0.1322
21393W        W41673  10.587  15.233   0.848  0.0664  0.0735 -0.0131
21394W        W41674  14.363   1.774   8.625 -0.0099  0.0447  0.1805
21395W        W41675  10.102  11.509  12.236  0.0283  0.1600 -0.0560
21396W        W41676   8.890   7.334   1.901  0.3181  0.0242  0.1569
21397W        W41677   5.847   3.662  11.218 -0.0035 -0.2303 -0.2396
21398W        W41678  12.425  11.971   1.801 -0.1711  0.0392 -0.0664
21399W        W41679  16.908  15.302   2.905 -0.2279  0.4753  0.2059
21400W        W41680  15.782  17.762  12.371 -0.0417  0.0705 -0.0262
21401W        W41681   3.125  17.210   0.111 -0.2481 -0.0507  0.2764
21402W        W41682  14.460  15.321   1.116 -0.0314 -0.0154  0.1002
21403W        W41683   1.846   1.019  10.867  0.0111 -0.1374  0.6219
21404W        W41684   5.128  10.554   0.005  0.2001 -0.1837 -0.1140
21405W        W41685  14.872   2.685   0.725  0.2722 -0.1310  0.3809
21406W        W41686   1.944  12.237  11.417  0.1263 -0.0933  0.0525
21407W        W41687  17.720   1.015   0.094  0.2007 -0.3707 -0.3137
21408W        W41688   7.609  18.451   3.552 -0.3591  0.1403 -0.1875
21409W        W41689   5.454   1.772   2.190 -0.1879 -0.0591 -0.1573
21410W        W41690   0.580   1.431   4.537  0.0420  0.2770  0.2040
21411W        W41691   6.360   7.264  14.003 -0.0107 -0.0598 -0.0702
21412W        W41692  13.111   2.559  13.596  0.0127 -0.0313 -0.1536
21413W        W41693  14.531   2.998   0.430 -0.0433 -0.1343  0.0308
21414W        W41694  15.390   8.789  10.035 -0.0467  0.1644  0.3361
21415W        W41695   2.956  10.693  13.391 -0.2708 -0.1552 -0.1009
21416W        W41696  16.861  14.493   1.418 -0.1849 -0.0947 -0.1271
21417W        W41697  10.335  14.538  12.644 -0.1969  0.0795 -0.4221
21418W        W41698  19.002   1.921   3.599 -0.0260 -0.2876 -0.0196
21419W        W41699  11.146   3.989  13.605 -0.2443  0.1264 -0.1139
21420W        W41700  10.099  12.971  13.423 -0.1616  0.0926  0.0054
21421W        W41701  12.450   2.301  11.464 -0.1317  0.2421  0.1025
21422W        W41702  19.229  14.925  11.295  0.0651  0.2446 -0.1234
21423W        W41703   7.516   1.056  13.286  0.0592  0.3246  0.1040
21424W        W41704  15.338  19.064  12.407 -0.4555 -0.1900 -0.1232
21425W        W41705   5.832  12.329  13.918 -0.1435 -0.1583  0.1181
21426W        W41706   0.159  11.147  12.300  0.2224  0.2420  0.1764
21427W        W41707  13.964  12.777  11.359 -0.0508 -0.0237 -0.0035
21428W        W41708   7.618   7.726   0.436  0.1628  0.1229  0.1090
21429W        W41709   5.656  16.808  11.201 -0.0578 -0.3625 -0.1061
21430W        W41710  15.169   5.117   3.437  0.2444  0.0067  0.1212
21431W        W41711   5.247  14.987   1.585  0.1784 -0.0202  0.0688
21432W        W41712  14.813  13.569  10.840 -0.4108  0.2448  0.0295
21433W        W41713   0.262  17.847   2.130  0.2554 -0.0571 -0.0652
21434W        W41714   9.073  19.396  10.915  0.0816  0.1452  0.2115
21435W        W41715  18.047  19.041  13.390 -0.1698 -0.1204  0.0667
21436W        W41716  16.059   1.669  12.234 -0.1194  0.0514 -0.2012
21437W        W41717  14.225   2.967  11.783 -0.0007  0.4299 -0.0921
21438W        W41718   1.311  13.781  11.605  0.2107 -0.0796  0.0091
21439W        W41719   7.555  15.434  13.692  0.1818  0.2423 -0.0081
21440W        W41720   4.382  19.535  12.371  0.3213 -0.0851 -0.2161
21441W        W41721  17.804  12.381  12.910 -0.1972  0.3265  0.2280
21442W        W41722   9.695   0.321   2.091  0.0127  0.0229  0.2191
21443W        W41723  11.256  11.519   2.232 -0.1375 -0.0016  0.0693
21444W        W41724   6.398  11.963  13.686 -0.1308 -0.1891 -0.2215
21445W        W41725   2.157   3.709  13.829 -0.1752 -0.2657 -0.0593
21446W        W41726   2.056   4.997   2.077 -0.1075 -0.1983 -0.2002
21447W        W41727   0.994   7.490  10.545  0.0713  0.3395 -0.0145
21448W        W41728  11.527   1.930   0.260  0.0990  0.3716 -0.1935
21449W        W41729  17.800   3.127  11.659  0.0578  0.0114 -0.1238
21450W        W41730   2.832   5.372  13.000 -0.2058 -0.3311 -0.2765
21451W        W41731   0.858   9.777  12.337 -0.0311  0.1973  0.0100
21452W        W41732   4.926   7.137  12.236 -0.0759  0.0001  0.0521
21453W        W41733  14.677   9.452  13.614  0.0467 -0.2237  0.2194
21454W        W41734   6.409   4.737  12.711  0.0129  0.2337 -0.1355
21455W        W41735   0.659  14.263  11.873 -0.0043 -0.2138  0.1603
21456W        W41736   1.872  13.270  13.714  0.1739 -0.2581  0.3376
21457W        W41737  14.050   6.061   0.023  0.2083  0.0212  0.0193
21458W        W41738   4.621   8.837   3.661  0.1532 -0.1052 -0.3248
21459W        W41739  19.113   9.952   1.705  0.3581 -0.1245 -0.0270
21460W        W41740  18.154  13.040  13.900 -0.1168 -0.1308  0.1640
21461W        W41741   2.569   2.286  12.653 -0.2769 -0.4120 -0.1956
21462W        W41742  16.305  11.710  10.475 -0.2754  0.0193 -0.2104
21463W        W41743  19.260  11.208  11.605  0.2427 -0.0256 -0.0101
21464W        W41744   6.237  12.884   2.972 -0.3673 -0.1262  0.1268
21465W        W41745  19.336   1.519   0.732  0.1052  0.1191  0.4603
21466W        W41746  16.603   8.315   2.213  0.2095  0.0479 -0.0355
21467W        W41747   1.575   0.460  11.298  0.2809 -0.1561 -0.1272
21468W        W41748   8.548   2.915  11.084 -0.1283  0.1729  0.0987
21469W        W41749   3.179   0.779  12.006  0.0051 -0.0088 -0.0564
21470W        W41750   7.251  11.800   4.207  0.3334 -0.2173  0.1163
21471W        W41751   0.861  13.391  11.521  0.0452 -0.2821 -0.2577
21472W        W41752   4.683  16.394  12.336  0.0534  0.1518  0.1030
21473W        W41753   4.870  11.432   3.388  0.0946 -0.3050 -0.0829
21474W        W41754  16.069  17.489  13.545 -0.2871  0.2986 -0.0476
21475W        W41755   1.122  15.926   3.588 -0.0572 -0.1427 -0.0107
21476W        W41756  14.890  13.111  12.228 -0.0819  0.1476 -0.1526
21477W        W41757   8.772   3.503  12.391 -0.2073  0.1451 -0.0340
21478W        W41758  11.193   2.736  13.596 -0.2809  0.1871 -0.2428
21479W        W41759  16.173   0.690   3.102  0.0494 -0.1058  0.2817
21480W        W41760  14.657   0.772   2.443 -0.0023  0.1676  0.0745
21481W        W41761   0.543  14.206  13.649 -0.0866  0.0334  0.1545
21482W        W41762  11.877  13.031   1.075  0.5300  0.1384  0.1276
21483W        W41763  19.344  12.929  13.679 -0.0379 -0.1259 -0.2718
21484W        W41764   8.542  10.620   1.104 -0.0030 -0.1672  0.0087
21485W        W41765  18.028  13.892   0.129  0.1006  0.1149 -0.0671
21486W        W41766  11.339   7.449  10.035 -0.2565 -0.0731  0.1831
21487W        W41767   6.185  13.735   2.485 -0.4266  0.2229  0.1621
21488W        W41768  14.326  19.091  12.913  0.2191 -0.0887 -0.1304
21489W        W41769  14.421   9.029  12.948 -0.3891 -0.0308  0.3585
21490W        W41770  19.029  11.052   2.777 -0.1314 -0.1212  0.0138
21491W        W41771   8.033  15.887  11.060 -0.0339 -0.0175 -0.1921
21492W        W41772  17.179   0.232   1.565  0.0999  0.2131  0.3427
21493W        W41773  18.413  12.124  12.089  0.1622 -0.1138  0.0921
21494W        W41774  17.363   7.787   0.328  0.2132  0.0617 -0.2111
21495W        W41775   2.060   3.243  10.994  0.0139  0.3720 -0.3022
21496W        W41776  12.072  13.636   1.807  0.1020 -0.1214  0.3804
21497W        W41777  16.759  13.261   1.911  0.1075 -0.0764  0.0600
21498W        W41778   7.262  10.670  13.289  0.0626  0.0419  0.1103
21499W        W41779  17.509  13.624  10.029  0.1125 -0.0929 -0.0336
21500W        W41780   2.926  15.459  12.986  0.0860  0.3349  0.1226
21501W        W41781   6.219   6.868   1.539  0.0630 -0.1497 -0.1369
21502W        W41782  16.002   4.361   1.311 -0.0253  0.2163  0.1562
21503W        W41783  11.382   3.042   4.507  0.2874 -0.0953  0.0571
21504W        W41784  16.647  10.463  10.067  0.0812  0.2457 -0.0766
21505W        W41785   0.103  18.247  11.367 -0.1692  0.3198 -0.1704
21506W        W41786   7.688   3.831  12.489 -0.0172  0.1819  0.1639
21507W        W41787   9.383   9.410  13.806 -0.1193  0.2111 -0.1364
21508W        W41788   8.931   9.233  11.059 -0.3894  0.0223  0.0651
21509W        W41789  17.635   7.177   3.448  0.0433  0.1287  0.0869
21510W        W41790  12.703  13.290   4.337 -0.1260  0.0188 -0.1312
21511W        W41791  16.437   4.918  13.586  0.2555 -0.3250 -0.0709
21512W        W41792  18.285   3.856   9.210  0.1509 -0.0351 -0.3425
21513W        W41793  12.077   4.124  11.222 -0.2130 -0.0570 -0.0492
21514W        W41794  13.962  18.301  11.905  0.0347 -0.2346 -0.0261
21515W        W41795   6.427   2.071  12.407 -0.3475  0.2019 -0.1078
21516W        W41796   6.345  17.966   0.481 -0.1038 -0.2018 -0.0908
21517W        W41797   9.528  10.516  13.839 -0.1691  0.1239  0.2805
21518W        W41798  17.940  17.540  10.011  0.1153  0.1235  0.2690
21519W        W41799   2.205  15.677   2.319 -0.0274 -0.2581  0.1580
21520W        W41800  18.732  11.038   5.069  0.0953 -0.0568 -0.1931
21521W        W41801  18.067   6.165   2.743 -0.1182 -0.1999 -0.0099
21522W        W41802   6.223  12.542   4.049  0.0177  0.0531 -0.1012
21523W        W41803   0.820   5.341   4.827  0.0302 -0.0719 -0.0943
21524W        W41804  18.705   3.190   0.757  0.2384 -0.1618  0.1790
21525W        W41805  17.177  11.843  13.641  0.1226 -0.1150  0.3423
21526W        W41806   8.175  17.516  13.598 -0.0086  0.1800 -0.3172
21527W        W41807   9.426   3.673   0.491 -0.1480  0.0117 -0.0414
21528W        W41808   1.011  13.818  13.967  0.0698  0.1248  0.2588
21529W        W41809   1.584  11.753   9.365  0.0485  0.0682 -0.3581
21530W        W41810   5.404  12.290  11.834 -0.2559  0.3061 -0.3486
21531W        W41811   1.026   5.078  13.728 -0.1171 -0.0984  0.2732
21532W        W41812   1.933  13.117  12.436  0.0630  0.0600  0.3093
21533W        W41813  14.498   8.652  11.312  0.1584  0.0616  0.0404
21534W        W41814   0.132  10.676  13.356  0.0281  0.0275 -0.1737
21535W        W41815  14.109   7.874   3.943 -0.3567 -0.0978  0.3638
21536W        W41816  16.339   5.243   4.744  0.4823  0.2164 -0.0634
21537W        W41817  18.859   4.948   1.853 -0.3645 -0.0282 -0.2194
21538W        W41818  12.757  16.469  13.131  0.4932  0.1955 -0.1353
21539W        W41819   7.467  14.584  11.662  0.1711  0.3879  0.1107
21540W        W41820  16.792  18.864   9.141 -0.1831  0.1980  0.3567
21541W        W41821   9.305  19.636  12.759  0.2713 -0.0744 -0.0816
21542W        W41822   3.021   2.080  10.395 -0.0857 -0.1564  0.1691
21543W        W41823   6.208  10.352   3.925  0.1251 -0.0537  0.0124
21544W        W41824  18.521   4.208  13.923 -0.3945 -0.0895  0.0210
21545W        W41825   6.880  11.240  12.108 -0.3431  0.0141  0.1269
21546W        W41826  13.158   5.230  12.305  0.2490  0.0542  0.1933
21547W        W41827  13.654  10.403   0.912 -0.0971 -0.2916  0.1926
21548W        W41828  10.793   7.246   0.486  0.2685  0.0362  0.1385
21549W        W41829   9.328  18.921  13.878 -0.0174 -0.2122  0.2362
21550W        W41830   4.672   5.486   3.014  0.0064 -0.3846  0.1655
21551W        W41831  17.910  10.338   5.353  0.0144 -0.0333 -0.1517
21552W        W41832  13.490  11.328  12.642 -0.1328 -0.1618  0.1327
21553W        W41833  13.056  15.452  11.037  0.2120 -0.0258  0.2952
21554W        W41834  11.001  14.212   5.498 -0.2278  0.0970 -0.0673
21555W        W41835   0.456   1.966   0.354  0.1554  0.1935 -0.0652
21556W        W41836  17.713   2.165   3.411  0.0632 -0.0204  0.1207
21557W        W41837  12.927   4.007  11.723 -0.0839 -0.1814 -0.1903
21558W        W41838   2.736   2.759  13.196 -0.0539  0.1141 -0.0089
21559W        W41839   3.549   7.440  13.221 -0.0893  0.0833 -0.2278
21560W        W41840  18.589  12.569  11.758  0.1114 -0.0102 -0.2531
21561W        W41841  12.754   6.963  11.182 -0.0165 -0.0514  0.4397
21562W        W41842   3.013  14.146   1.094 -0.5735 -0.2103  0.1743
21563W        W41843   1.988   3.219   3.976  0.2139  0.0388 -0.0962
21564W        W41844   8.302   5.801   3.806 -0.0549 -0.1236  0.0945
21565W        W41845   0.317  17.379   1.331  0.0538  0.0004 -0.1416
21566W        W41846   3.545   3.376  10.108 -0.0210  0.0119 -0.1502
21567W        W41847  12.725  12.961  12.559 -0.0800  0.1054  0.1511
21568W        W41848   4.719  19.463   3.102 -0.0846 -0.1259  0.0102
21569W        W41849  10.304  10.472   9.466  0.0683 -0.1502 -0.0305
21570W        W41850   9.017   7.327  13.003 -0.0330  0.0659 -0.2148
21571W        W41851  11.086   8.028  12.954  0.0617  0.1487 -0.0462
21572W        W41852   3.029  11.633  11.096 -0.1127  0.0266 -0.1567
21573W        W41853  10.422  18.549  13.915  0.0898 -0.1508  0.1240
21574W        W41854   4.900  13.770  13.186 -0.1028  0.0071  0.1803
21575W        W41855   9.332  15.309  12.685  0.1460 -0.0405  0.6489
21576W        W41856   9.274   3.211   3.110 -0.0071  0.1487 -0.0344
21577W        W41857  16.091  17.505  11.709  0.1342 -0.2159  0.1705
21578W        W41858  11.920   4.684  14.081  0.1727 -0.0733 -0.1652
21579W        W41859  14.982   0.895  12.077  0.1221  0.1764  0.0827
21580W        W41860  16.997  18.623  10.000  0.1831 -0.0806  0.0158
21581W        W41861   8.123  11.060   3.728 -0.0752 -0.2561  0.1686
21582W        W41862  11.435  12.399  12.545 -0.0510 -0.0529 -0.3531
21583W        W41863   5.412   6.780   0.505  0.1061 -0.3353 -0.0385
21584W        W41864   2.886   8.437   2.310 -0.0472 -0.1020  0.5452
21585W        W41865   3.687  14.814   2.910 -0.1453 -0.0949  0.1618
21586W        W41866  17.651   3.609   3.490 -0.0410 -0.1948  0.2013
21587W        W41867   4.013   1.012   1.228 -0.0938 -0.1446 -0.2634
21588W        W41868  14.236   7.488  12.509  0.4592  0.0094  0.2040
21589W        W41869   6.468  18.058  11.919  0.0908 -0.3144 -0.2027
21590W        W41870   2.736  18.832  13.224 -0.3998 -0.2360 -0.2425
21591W        W41871   3.039   9.441  11.209  0.1088 -0.2908 -0.2550
21592W        W41872   6.624  16.855  12.274 -0.2116  0.0759  0.4131
21593W        W41873  13.711   7.480  10.591 -0.1428  0.0534 -0.1467
21594W        W41874  15.044  19.297   0.556 -0.0080  0.1833  0.0803
21595W        W41875  12.212  12.867   1.906  0.0268  0.2276 -0.0964
21596W        W41876  13.187   5.154   1.637 -0.1351 -0.0078 -0.0252
21597W        W41877   9.401  17.331   0.743  0.1540 -0.0569  0.1703
21598W        W41878  15.567   3.950  11.896  0.0131 -0.1653  0.0648
21599W        W41879  17.788  17.128   2.795  0.4899  0.0220 -0.0088
21600W        W41880  14.372  19.354  13.906  0.0855 -0.2724 -0.0798
21601W        W41881   2.308  18.800   3.741 -0.0849 -0.3392 -0.0189
21602W        W41882   0.032   8.275  11.618  0.0324  0.3118 -0.3559
21603W        W41883  14.091   4.910  13.485 -0.0034  0.0202  0.1521
21604W        W41884  14.788  10.453   1.981  0.0454 -0.1343 -0.0164
21605W        W41885  12.380   4.744   0.145  0.0595 -0.0894 -0.4061
21606W        W41886  13.413  12.494   1.373  0.2223 -0.2072  0.2463
21607W        W41887   5.656   3.207  11.280  0.2329  0.2406 -0.0843
21608W        W41888  12.366  15.112   1.578 -0.0336 -0.3582  0.1171
21609W        W41889  13.761  19.669   3.000 -0.0644  0.1629 -0.0266
21610W        W41890  16.900   7.398   3.206  0.0839  0.2201 -0.1498
21611W        W41891  12.236   6.097   0.464 -0.1547 -0.1388  0.0266
21612W        W41892   4.441   4.929  13.765 -0.2349  0.1415  0.2986
21613W        W41893  15.339   2.404  10.343 -0.1366  0.0731 -0.3635
21614W        W41894  14.143  15.894   3.385 -0.3982 -0.0827 -0.0457
21615W        W41895  12.335  18.316   0.886  0.2196  0.1300  0.1668
21616W        W41896   8.236  12.360  11.983 -0.3338 -0.1740 -0.0592
21617W        W41897   1.595  16.870  12.679 -0.1079 -0.0643 -0.2078
21618W        W41898   8.224   1.933   1.933 -0.0438  0.3053 -0.1304
21619W        W41899  13.418  13.450  10.429  0.0481  0.1498  0.0766
21620W        W41900  17.392  15.616  13.822 -0.0604  0.2796  0.0120
21621W        W41901  17.998  15.211  10.237  0.0169  0.0660 -0.0158
21622W        W41902   2.534  10.728   1.509 -0.1274 -0.2096 -0.4123
21623W        W41903   8.813  17.536   1.282 -0.0615  0.0563 -0.1324
21624W        W41904   4.798   9.207  11.006 -0.0190  0.2922  0.0840
21625W        W41905  15.444  17.688   1.592  0.2444  0.3568 -0.1379
21626W        W41906  16.054   1.119  12.040  0.0903 -0.0661  0.0451
21627W        W41907  16.295   6.056  11.644  0.1784 -0.0154  0.3718
21628W        W41908   8.122  11.397   5.182  0.2709  0.2203 -0.0933
21629W        W41909  11.489   2.013   1.602 -0.0865 -0.2058  0.2251
21630W        W41910   0.443  14.757   0.785  0.3300 -0.1701 -0.0078
21631W        W41911  18.825   6.117   1.084 -0.3053  0.0526  0.0461
21632W        W41912  11.301   8.789  13.346 -0.2851 -0.2590 -0.3253
21633W        W41913   1.696   1.949  10.921  0.1719 -0.0435  0.1525
21634W        W41914  11.066  14.840   3.878  0.3666 -0.0418 -0.1168
21635W        W41915   7.114   9.886  12.076  0.3273  0.0027 -0.2504
21636W        W41916   0.107   5.367  13.258 -0.2814 -0.0619 -0.0446
21637W        W41917   2.095  14.186  10.886  0.1709 -0.1730 -0.2131
21638W        W41918  13.688   2.227   3.324  0.1153 -0.1008  0.2158
21639W        W41919  18.541  14.533  12.664 -0.1808  0.1244 -0.2980
21640W        W41920   0.223  11.859   2.507 -0.0670  0.2192 -0.0932
21641W        W41921   1.282  10.973  10.920  0.0794 -0.5603  0.1101
21642W        W41922   6.731   0.117   1.024 -0.2387  0.5054  0.0877
21643W        W41923   4.650   1.831   2.793  0.2482 -0.2051  0.2658
21644W        W41924  13.077  16.193   2.794 -0.1408 -0.3718  0.0735
21645W        W41925  15.316  17.922   9.041  0.5228  0.2128  0.3054
21646W        W41926   1.322   5.631   2.554  0.1613  0.1836 -0.0205
21647W        W41927  10.384  18.424   1.559  0.1596  0.0754 -0.1118
21648W        W41928  15.646  13.144   4.338  0.2114  0.1271 -0.0366
21649W        W41929  17.044   6.560   4.773 -0.0626 -0.0029 -0.2051
21650W        W41930  11.639  17.115   0.613  0.2619  0.0777 -0.0168
21651W        W41931   8.043  14.035  11.053  0.0510  0.0917  0.0698
21652W        W41932  13.379   7.254  12.827 -0.2272  0.1839  0.0538
21653W        W41933   6.801   7.917   1.250 -0.2624 -0.0020 -0.0350
21654W        W41934  19.674  13.890   4.717  0.0448 -0.0513  0.1860
21655W        W41935   9.589  11.219  11.034 -0.0072 -0.1441 -0.0907
21656W        W41936   1.473   5.277   0.791  0.3318  0.2476  0.0134
21657W        W41937   8.613  15.364   2.322  0.1106  0.4392  0.1951
21658W        W41938   7.760  15.090   2.189  0.2126 -0.1548 -0.0535
21659W        W41939  10.380  18.147   2.720  0.2409 -0.0146 -0.2236
21660W        W41940  16.777  13.716  12.970  0.0841  0.3172  0.0480
21661W        W41941   4.865  18.639   1.494  0.4141  0.0651  0.0902
21662W        W41942  11.353  14.630   2.275  0.0157 -0.0248 -0.0257
21663W        W41943   4.325  19.224  12.841  0.0797 -0.1487  0.2912
21664W        W41944  16.763  10.562   9.550  0.0498  0.0361 -0.0069
21665W        W41945  17.612   0.831  12.925 -0.0287  0.1055 -0.0435
21666W        W41946  17.156  15.845  13.412 -0.0545 -0.0453 -0.5018
21667W        W41947   6.837  16.537  13.508  0.2660 -0.3749  0.0326
21668W        W41948   0.214   0.734  13.977  0.2581  0.1376  0.1709
21669W        W41949  19.699   6.402  12.870 -0.2624  0.1126 -0.2169
21670W        W41950   4.862   8.329  12.297 -0.0132  0.2243 -0.1362
21671W        W41951  10.697  11.991   1.446  0.0519  0.3590 -0.1747
21672W        W41952   6.408  13.487   4.161  0.0891  0.3238 -0.0425
21673W        W41953   1.483  15.616  11.995 -0.0424  0.1910 -0.1178
21674W        W41954  16.574  12.484  12.048 -0.0951 -0.2387  0.2693
21675W        W41955  10.999  19.422  10.992  0.3891  0.1475  0.0745
21676W        W41956  15.669   5.155  12.937 -0.0058  0.1652  0.0008
21677W        W41957   3.584  15.084   0.706 -0.1038 -0.0697  0.2544
21678W        W41958  14.686   3.670   0.938  0.0959 -0.0326 -0.1965
21679W        W41959   3.356  14.591  13.588  0.0105 -0.1903 -0.3709
21680W        W41960   2.357  15.140   4.138  0.0168 -0.0346  0.1642
21681W        W41961   3.297   2.306  13.150 -0.3374 -0.1777 -0.0028
21682W        W41962  15.249  14.156  13.416  0.0099 -0.0939  0.2006
21683W        W41963   1.705   4.982   3.990 -0.1293 -0.0332 -0.0660
21684W        W41964   9.223   9.479   0.349  0.1491  0.3257  0.1288
21685W        W41965  10.505   8.166   2.963 -0.0693 -0.1810 -0.0320
21686W        W41966   7.595  18.102   2.958 -0.0798 -0.2555  0.0066
21687W        W41967  15.281   4.266  14.102 -0.2527  0.3784  0.1939
21688W        W41968   3.980  15.027  10.558  0.0219 -0.0582  0.1559
21689W        W41969  14.023   7.629   0.638 -0.1527  0.3314  0.1961
21690W        W41970   0.901  18.872   1.347  0.0079  0.1271  0.3087
21691W        W41971   5.990  11.616   3.477 -0.2323 -0.3772 -0.0172
21692W        W41972   8.185  10.755  13.901 -0.0094 -0.0796  0.1430
21693W        W41973   4.094   8.176  12.122 -0.3830  0.0594  0.0994
21694W        W41974   5.094   5.511   3.840  0.1500  0.0481  0.0862
21695W        W41975   0.518   9.222   0.985  0.4001  0.0889  0.1185
21696W        W41976   4.619  15.167  13.917  0.0400 -0.0914 -0.0875
21697W        W41977  17.225  14.821   1.198  0.0288  0.0514  0.2593
21698W        W41978  12.887   4.477  13.976  0.1267 -0.2534  0.3097
21699W        W41979   2.733   2.184   2.250  0.0531 -0.2873 -0.0396
21700W        W41980  15.711   7.896   1.972  0.3162 -0.0802  0.1450
21701W        W41981  10.351   3.960   2.871  0.1281 -0.0123 -0.1028
21702W        W41982   9.355   1.715   3.569 -0.1125  0.0766  0.1521
21703W        W41983   7.171   8.298   3.438  0.2618  0.0884  0.1301
21704W        W41984   7.134  19.279  11.168  0.2375  0.0414  0.0038
21705W        W41985  13.145   7.681  13.926  0.0955  0.3487  0.0332
21706W        W41986  13.161  11.628  10.696  0.0672  0.0344  0.0064
21707W        W41987   9.802  18.165   2.624 -0.1221  0.2371  0.0883
21708W        W41988   9.228  14.679  13.316 -0.0140 -0.1761 -0.1738
21709W        W41989   3.190   9.185  12.141  0.2379 -0.0162  0.0861
21710W        W41990   6.719  19.340  11.919  0.2856  0.1638  0.2513
21711W        W41991   4.871   8.475  13.945 -0.2533  0.1178  0.1808
21712W        W41992  11.758   8.132   1.076 -0.1327  0.1606  0.2874
21713W        W41993  17.889  14.315  13.376 -0.0419 -0.3300 -0.2270
21714W        W41994   5.173   9.406   0.819  0.1043  0.1618  0.0280
21715W        W41995  17.952  16.611  13.815 -0.0095  0.2111 -0.0835
21716W        W41996   9.504  10.873  12.920 -0.2839 -0.1922 -0.1849
21717W        W41997  19.323   4.138   3.498  0.0594 -0.0361  0.1796
21718W        W41998   8.301  11.352  13.153 -0.0816  0.0440  0.2868
21719W        W41999  17.731   1.009  12.073  0.1549 -0.3004 -0.0490
21720W        W42000   0.482   1.213  13.320  0.1181 -0.0808  0.0628
21721W        W42001   0.170  11.418   2.150 -0.1122  0.0264  0.0199
21722W        W42002   7.311   9.145  10.925 -0.2660  0.1244  0.0959
21723W        W42003   4.457  19.107  11.472 -0.2900 -0.0876 -0.1096
21724W        W42004  19.756   0.314  11.914 -0.2253 -0.0627 -0.2102
21725W        W42005  15.924  17.693   0.471  0.2206  0.0740  0.4759
21726W        W42006  19.410  11.307   2.634  0.0670  0.2322  0.0175
21727W        W42007   9.711   0.406  10.474 -0.2107 -0.2625  0.1202
21728W        W42008  14.371   4.184   0.930 -0.0555  0.0752  0.0633
21729W        W42009   5.156  11.606  13.725  0.1865 -0.1003  0.3274
21730W        W42010  10.285  18.794   0.567  0.0571  0.1072 -0.2190
21731W        W42011  10.362   3.613  13.316  0.2780  0.0911  0.3102
21732W        W42012  16.960  18.646  13.719  0.0243 -0.0066 -0.0695
21733W        W42013  18.337   7.713   0.026 -0.0345  0.1582 -0.1482
21734W        W42014   0.323   4.040  10.235 -0.0494 -0.2928 -0.0825
21735W        W42015   0.603  19.552   3.442  0.2500  0.1224 -0.3633
21736W        W42016   7.081  16.175  13.178 -0.1998 -0.2425  0.3483
21737W        W42017  14.746  16.711   2.831  0.0106 -0.0354 -0.0997
21738W        W42018   6.126  14.712   1.306 -0.2642 -0.1278  0.1782
21739W        W42019   0.743   4.116  13.189  0.1651 -0.1285  0.1670
21740W        W42020   4.993   3.612   3.355 -0.1976 -0.1865  0.2057
21741W        W42021   4.997   8.237  10.879 -0.2570  0.2016  0.0382
21742W        W42022   0.014  15.761   2.567 -0.0982 -0.1668  0.2530
21743W        W42023  17.755  10.961   0.044 -0.0531  0.3326 -0.0973
21744W        W42024  10.322  19.556   2.268  0.1361  0.2185  0.3596
21745W        W42025   3.767   7.202   4.108  0.1135  0.2200  0.2766
21746W        W42026  19.673   5.128  11.254 -0.1041  0.1653  0.1879
21747W        W42027  10.078  17.271   2.229 -0.4311  0.0735 -0.0683
21748W        W42028  12.378  11.277  13.433  0.2084  0.2365 -0.0582
21749W        W42029   9.819  17.049  14.075  0.1011 -0.4044  0.3254
21750W        W42030  17.765   9.014  11.139  0.0385  0.1437  0.1461
21751W        W42031   2.831  11.967   3.336  0.1052 -0.4867 -0.1360
21752W        W42032   5.317  11.544  10.626  0.1206  0.0273  0.0733
21753W        W42033  13.123  19.285   0.560  0.0873  0.0906 -0.1852
21754W        W42034  17.552   0.386  10.439  0.0976  0.0072  0.1834
21755W        W42035   7.386   2.848   2.511  0.2277 -0.1811 -0.0180
21756W        W42036  11.816  14.465   3.813 -0.1021 -0.0216  0.3720
21757W        W42037   4.243  10.657  13.866 -0.0559  0.1089 -0.0843
21758W        W42038   6.080   3.012   2.137  0.0849 -0.0258 -0.5181
21759W        W42039  12.531   2.805  11.435  0.1892 -0.1405  0.0355
21760W        W42040   6.273   4.350   1.565 -0.4751 -0.0924 -0.2856
21761W        W42041  18.754  16.872  13.323  0.0061  0.2276  0.4753
21762W        W42042  14.633   7.452   4.894 -0.1838  0.0443  0.4113
21763W        W42043  11.935  17.965  10.489 -0.1393  0.1696  0.2248
21764W        W42044  10.961   6.550   2.716 -0.0145  0.0665 -0.3473
21765W        W42045   4.303  12.331  10.833 -0.2096  0.0725 -0.4083
21766W        W42046  14.711  13.249  10.376 -0.1358  0.1086 -0.1315
21767W        W42047  15.468  18.471   4.296  0.0152 -0.2502  0.1346
21768W        W42048   8.660  19.709  10.186  0.0293 -0.0951  0.3673
21769W        W42049  19.161  14.738   1.485  0.0148 -0.1233 -0.0978
21770W        W42050  18.039  11.515  12.887 -0.0097  0.1125  0.1635
21771W        W42051   6.334   3.918  10.482 -0.0125  0.0338 -0.1125
21772W        W42052   3.431  11.956   0.964  0.0264  0.1185 -0.3388
21773W        W42053   1.075   7.846   2.434 -0.1476  0.4299 -0.1600
21774W        W42054   3.185   0.119  10.046 -0.0854  0.1653 -0.2688
21775W        W42055  16.665  18.158  12.302  0.2990  0.2714  0.3229
21776W        W42056  11.755   1.326  13.875  0.3308 -0.0971 -0.3319
21777W        W42057   5.029   6.010   3.683  0.1455  0.0844  0.0704
21778W        W42058   8.959   0.229  12.653 -0.0826 -0.0890  0.1036
21779W        W42059   8.599  17.731   0.848  0.1808  0.3776 -0.2151
21780W        W42060  17.913   4.740  13.010 -0.2149  0.0832 -0.0392
21781W        W42061  16.130   4.648   2.695 -0.1100 -0.2535  0.1439
21782W        W42062   7.000  15.202   3.433 -0.0692  0.3352  0.1225
21783W        W42063   6.347   3.900   3.319 -0.1734 -0.0596  0.2000
21784W        W42064  10.225  15.255   9.733 -0.1781  0.2706 -0.2302
21785W        W42065   9.441  14.202   0.801 -0.0213 -0.2120 -0.3459
21786W        W42066   9.164   0.804  10.214  0.1055 -0.3997  0.0181
21787W        W42067   3.762  17.067  10.471  0.0602 -0.2041  0.2226
21788W        W42068  12.238  12.032  12.417  0.0420  0.0910  0.0103
21789W        W42069   3.041  13.781  12.671 -0.1250  0.0471  0.0053
21790W        W42070   2.543  14.882  11.358 -0.0941 -0.0357  0.2877
21791W        W42071   1.992   1.906  11.587 -0.4264  0.1037  0.1476
21792W        W42072  19.006  10.606  12.168  0.1140  0.1103  0.0698
21793W        W42073  18.046  17.507  10.479 -0.0046  0.0244  0.1195
21794W        W42074   7.041  10.247  13.485  0.0632 -0.0651  0.3496
21795W        W42075   3.283  13.723  13.583  0.0689 -0.0267 -0.2587
21796W        W42076  17.289   7.670   2.945 -0.2326  0.1668 -0.4465
21797W        W42077  16.574   1.496   2.831 -0.0748  0.2708  0.0842
21798W        W42078  17.870   9.687  13.618 -0.3009  0.0955 -0.1134
21799W        W42079   6.388  11.095  10.654  0.2884 -0.1268  0.1723
21800W        W42080  16.920   4.850   0.948  0.4298  0.3236  0.1076
21801W        W42081  11.210  13.664  12.016  0.1275 -0.0713 -0.0577
21802W        W42082   8.347  12.406   2.756 -0.0275 -0.0321  0.0117
21803W        W42083  10.125  18.299   0.068 -0.0228 -0.1450 -0.2883
21804W        W42084  16.955  17.781  10.536 -0.0810 -0.4072 -0.0648
21805W        W42085   7.446  19.377  13.645  0.0721  0.2007  0.2173
21806W        W42086  14.042  12.467   2.978  0.1692  0.2311  0.0642
21807W        W42087  15.229   7.340   3.205  0.1035 -0.1778  0.0101
21808W        W42088  17.873  19.179  13.909  0.2343 -0.0294  0.2897
21809W        W42089   4.253  13.821  12.609  0.0820 -0.2422  0.2383
21810W        W42090  11.072   6.235   3.986 -0.2529 -0.1931  0.1435
21811W        W42091   3.893   2.543   3.687  0.1406  0.0410  0.1298
21812W        W42092   9.737  16.384  11.118  0.1137  0.0958 -0.5476
21813W        W42093   5.894  13.387   1.873 -0.2143 -0.2231 -0.0103
21814W        W42094   8.660   8.699  11.676 -0.0348 -0.1672 -0.2059
21815W        W42095   8.326   4.453   2.451 -0.1877 -0.1631  0.0367
21816W        W42096  18.828   7.373   3.510  0.1833 -0.0714 -0.0581
21817W        W42097  18.793   4.581  10.341  0.2712 -0.1062 -0.3702
21818W        W42098  14.851   2.796   3.030 -0.1793 -0.1264 -0.1189
21819W        W42099   3.634   6.693   1.381  0.0210  0.0314  0.0004
21820W        W42100  15.322  12.491  11.633  0.0797  0.4105  0.4341
21821W        W42101   4.516  16.889  12.141 -0.1633  0.2192 -0.1356
21822W        W42102   3.075   1.454  13.954 -0.3102  0.1384 -0.2780
21823W        W42103   4.957  12.004  11.333 -0.2900 -0.3910 -0.0567
21824W        W42104   3.966   4.676  11.615 -0.0695 -0.2327  0.0351
21825W        W42105   1.091  18.093   2.308 -0.0459 -0.0260 -0.3397
21826W        W42106   2.898  10.214   3.655  0.0426  0.2358 -0.0280
21827W        W42107   5.824   3.317  12.556 -0.1428 -0.1196  0.5331
21828W        W42108   9.392   6.373   1.902  0.0895 -0.0627  0.1712
21829W        W42109   8.840  13.666  13.228  0.0478  0.4964 -0.1760
21830W        W42110   8.257  15.964   3.812 -0.0133  0.1370 -0.0011
21831W        W42111   8.284  16.616  13.405  0.0619 -0.1860  0.3641
21832W        W42112  15.017   3.503   3.999  0.0721  0.0654 -0.0546
21833W        W42113   0.933  15.726  13.296 -0.2621  0.0943 -0.1107
21834W        W42114  14.977  18.954  13.364  0.0785  0.1639 -0.0114
21835W        W42115   5.219   2.032  10.336  0.0140  0.0195 -0.1827
21836W        W42116   9.621   3.397  13.746 -0.2125 -0.0138 -0.1449
21837W        W42117  15.070   8.133   3.797 -0.0067 -0.0501  0.1040
21838W        W42118   6.316  11.667  11.278  0.2580  0.2190 -0.2410
21839W        W42119   6.526  14.394   2.655 -0.2293 -0.5212  0.1189
21840W        W42120  16.416  13.247   0.032 -0.0678  0.0492  0.0627
21841W        W42121  14.031  10.824   0.958  0.0323 -0.0055  0.3231
21842W        W42122   5.477  18.020  10.369 -0.0440  0.1594  0.1751
21843W        W42123  16.345   1.236  13.926  0.0033  0.1515  0.1270
21844W        W42124  17.701   3.789   9.987  0.1643  0.0429 -0.1086
21845W        W42125  17.968  19.273  10.569 -0.0293 -0.0909  0.2498
21846W        W42126   2.944  18.269  12.955  0.1455 -0.1805 -0.1200
21847W        W42127   0.383   6.075  12.249  0.2486  0.3717  0.1046
21848W        W42128   1.899   4.456   2.653  0.2408 -0.1834 -0.2850
21849W        W42129  15.825  10.340  11.703 -0.0476 -0.2128  0.0616
21850W        W42130  15.912  15.746  12.672 -0.0662  0.1551 -0.1446
21851W        W42131  10.434  19.680  11.090 -0.3554  0.1421 -0.5022
21852W        W42132   6.846  13.266  10.845 -0.0927  0.0062  0.1596
21853W        W42133  14.584  17.652   3.257  0.0852  0.4122 -0.1799
21854W        W42134   6.053   2.185   1.540  0.1982  0.0669 -0.0673
21855W        W42135  15.370   8.338  11.186 -0.0396  0.1376 -0.2661
21856W        W42136   9.208   3.111   3.672 -0.2449 -0.1391 -0.0307
21857W        W42137  18.198   8.043  11.083 -0.0759 -0.0241  0.0404
21858W        W42138   9.052  19.460  13.923 -0.2713 -0.0354 -0.0376
21859W        W42139  19.270   1.969   0.240  0.0156 -0.2055  0.1378
21860W        W42140  10.396   4.580   3.601  0.1172 -0.2526  0.0066
21861W        W42141  15.060   2.911  13.129  0.2992  0.0358  0.2252
21862W        W42142   6.981  17.017  11.575 -0.0225  0.1614 -0.0746
21863W        W42143   5.142   5.224   2.429 -0.0780 -0.0691  0.0081
21864W        W42144   5.056   5.823   3.204  0.2523  0.0492 -0.1981
21865W        W42145  10.981  15.134  10.530 -0.0136 -0.1265 -0.3159
21866W        W42146  14.263  11.436   2.900 -0.1229  0.0306  0.2648
21867W        W42147   3.711  17.617  10.493 -0.0902  0.0674  0.0381
21868W        W42148   6.000  16.756  13.593 -0.0213  0.0016  0.2717
21869W        W42149   5.853   5.787  11.139 -0.1580 -0.1235  0.1952
21870W        W42150  19.113  17.256   3.368  0.1722  0.0789 -0.0354
21871W        W42151  19.022  19.488   3.554  0.1735 -0.0408 -0.2670
21872W        W42152  15.183   2.080  13.663 -0.0936  0.2380 -0.0435
21873W        W42153   4.156  14.751   1.309  0.1134 -0.1922 -0.1018
21874W        W42154   3.174   1.452  12.548 -0.1544  0.0301 -0.0703
21875W        W42155  15.925   0.178  13.043  0.0042  0.4552 -0.0857
21876W        W42156   8.227  14.080   0.402 -0.0018 -0.2292  0.0168
21877W        W42157  10.685   6.291  10.528 -0.1962 -0.1019  0.1807
21878W        W42158   4.353  16.671  10.845  0.1851 -0.1503  0.2217
21879W        W42159  15.619  15.940  11.984  0.0140  0.0093 -0.4472
21880W        W42160   5.463   0.740   3.598  0.1549  0.0890  0.1506
21881W        W42161  13.272  17.093   0.425 -0.4178 -0.0210  0.1295
21882W        W42162   0.008   1.896  13.033  0.0373  0.0300 -0.0171
21883W        W42163  18.328  10.348  13.876 -0.2048  0.0673 -0.1154
21884W        W42164  10.041  14.970  12.437  0.2093 -0.1261 -0.2639
21885W        W42165  13.372   7.471   2.815 -0.0093 -0.1125 -0.0595
21886W        W42166   2.801   5.725   1.318  0.0067  0.0284  0.0756
21887W        W42167   1.662   2.419  11.079 -0.1644 -0.1568 -0.1053
21888W        W42168  10.437  15.641  11.751  0.0344  0.1534 -0.2223
21889W        W42169   0.441  12.891   3.856 -0.2329 -0.2210 -0.3393
21890W        W42170  13.676  14.948   1.341  0.0264  0.1634 -0.0363
21891W        W42171   5.789   4.085  11.720 -0.0255 -0.1488  0.1133
21892W        W42172   6.034  15.927  11.404  0.0962  0.0544  0.1563
21893W        W42173  19.073   1.948  12.562  0.0954 -0.0916  0.1049
21894W        W42174   7.971  12.937  10.525  0.1974  0.2618 -0.6006
21895W        W42175  13.195   3.323  10.997 -0.2514  0.1379 -0.3349
21896W        W42176   7.259   5.299  11.797 -0.1369 -0.1981 -0.1732
21897W        W42177   2.737   5.691  10.535  0.1986  0.1776  0.0872
21898W        W42178  10.218  13.875  11.564 -0.2561 -0.1835  0.1938
21899W        W42179   9.878  16.798  12.617  0.2140 -0.0442  0.1226
21900W        W42180   0.095   3.884  11.817  0.0906 -0.1710 -0.1745
21901W        W42181   5.342  16.911   9.870 -0.2863 -0.1270 -0.0300
21902W        W42182  18.938  19.137  10.906 -0.1903  0.0172 -0.3259
21903W        W42183   7.413  16.089   4.076 -0.0682  0.0760 -0.0664
21904W        W42184   4.478  16.708   2.324 -0.0133 -0.3943 -0.0246
21905W        W42185   0.497   6.589   4.025  0.1930 -0.1496 -0.3087
21906W        W42186  13.990  18.090  13.824  0.3209  0.2294  0.1609
21907W        W42187   3.989   1.409  11.195  0.0966 -0.0599  0.3937
21908W        W42188  19.538  13.152  12.733 -0.0522  0.0991 -0.0687
21909W        W42189   9.602   3.497   2.446 -0.5333 -0.2378  0.0016
21910W        W42190   4.034  13.489   0.787  0.1800 -0.1011 -0.1473
21911W        W42191  14.950  13.433  13.882 -0.2520 -0.0723  0.1379
21912W        W42192  17.260  14.743   3.707 -0.2816 -0.2513  0.1743
21913W        W42193  17.874  13.957  11.768  0.2114 -0.3332  0.1418
21914W        W42194   5.798  13.264   1.368  0.1151  0.1876 -0.3444
21915W        W42195  17.809  13.193   3.146  0.0191 -0.1594 -0.0373
21916W        W42196  18.992   1.604   2.715 -0.4160 -0.0192  0.2503
21917W        W42197   1.740   4.613  12.677 -0.3227  0.1082  0.2561
21918W        W42198  12.194   3.141  13.605 -0.3459 -0.2716 -0.0818
21919W        W42199   3.023  18.938  12.230  0.2880 -0.1086  0.0821
21920W        W42200   8.952   2.190   3.385  0.1228 -0.2605  0.0661
21921W        W42201   5.867   5.465   0.492  0.3017  0.2622 -0.1951
21922W        W42202   4.219   7.528   0.169 -0.0378 -0.0437 -0.3022
21923W        W42203  15.988   8.347   0.226  0.0756  0.1596  0.1040
21924W        W42204  18.178   7.573   1.416  0.0809 -0.1879 -0.2091
21925W        W42205  14.899  14.173  13.837  0.2319 -0.3082 -0.0668
21926W        W42206  12.761  16.531  10.874 -0.1683 -0.1086 -0.0199
21927W        W42207  15.551  19.252   1.703 -0.2877 -0.0611 -0.0496
21928W        W42208  14.249   6.391  12.169  0.2061 -0.0788 -0.2321
21929W        W42209   9.121   2.403   2.460 -0.0576  0.2007  0.1346
21930W        W42210  17.183   4.396  13.483  0.0169  0.0962  0.0174
21931W        W42211  18.530   2.914  13.773  0.3267 -0.3576  0.3121
21932W        W42212  18.024   1.214   2.055 -0.0388  0.1177 -0.2621
21933W        W42213  11.194   1.095   2.839  0.0554 -0.2597 -0.0719
21934W        W42214   1.358  11.808   1.843 -0.0494 -0.1454  0.0886
21935W        W42215   3.768  17.119   1.180  0.1623 -0.0842  0.2378
21936W        W42216   2.546   4.697   1.909 -0.0197 -0.1312 -0.2716
21937W        W42217   8.751  16.143  14.106 -0.1697 -0.0247  0.0534
21938W        W42218   4.141  14.838  11.841  0.5014 -0.0012  0.2565
21939W        W42219   9.612   3.217   3.964 -0.0457  0.0709  0.3005
21940W        W42220  14.304   0.620   0.121  0.3384 -0.1514  0.3134
21941W        W42221  14.510   7.238  10.979 -0.2175  0.1016 -0.1009
21942W        W42222   9.236  12.476  10.681  0.1306 -0.2403 -0.0344
21943W        W42223   0.971   6.310   1.877 -0.1867 -0.0170  0.2007
21944W        W42224   4.965   6.647   2.775 -0.2630  0.1391 -0.3735
21945W        W42225  11.939   5.412   2.324 -0.0632  0.2347  0.1270
21946W        W42226  13.822   6.277  13.096  0.1701  0.1955  0.0662
21947W        W42227   5.632  15.312   2.786  0.0985 -0.2283  0.3998
21948W        W42228  17.013   2.603   0.054 -0.0645  0.1150  0.2917
21949W        W42229   9.997  16.827   1.423 -0.1151  0.1608 -0.0471
21950W        W42230   1.731   8.066  13.965 -0.1544 -0.1339 -0.2170
21951W        W42231   0.867  17.410   1.321  0.3056 -0.1927  0.2362
21952W        W42232   7.190   1.140   0.959 -0.3076 -0.1007  0.1038
21953W        W42233   5.348   1.811  12.070  0.3210 -0.0732  0.0653
21954W        W42234   2.612  16.858  13.601 -0.1473 -0.0015 -0.1569
21955W        W42235  15.783   2.841   1.059  0.0226 -0.3192 -0.1218
21956W        W42236   8.450   2.307   0.036  0.1232 -0.6364 -0.0735
21957W        W42237   2.620  11.779  11.873 -0.1068  0.2015 -0.1227
21958W        W42238  15.040   3.229  12.072  0.1841 -0.3135  0.1957
21959W        W42239   8.391   6.570  13.530 -0.1446  0.0374  0.2643
21960W        W42240   7.722  19.171   0.064 -0.2448  0.3944  0.2409
21961W        W42241   0.670   1.350   0.359  0.1537  0.2890  0.1164
21962W        W42242  14.922  11.097  12.079 -0.0088  0.1667  0.1383
21963W        W42243   5.540  17.152  12.194 -0.2039  0.0701 -0.2071
21964W        W42244   7.445   0.108  13.473  0.0075 -0.0903 -0.1523
21965W        W42245   5.277  15.766  12.848 -0.4105 -0.3932  0.0895
21966W        W42246  11.791   7.479   0.273 -0.0984 -0.2653 -0.2532
21967W        W42247  15.650  13.031  13.500  0.1732 -0.1114 -0.0944
21968W        W42248   1.385  10.907   0.934 -0.0566  0.2116  0.1814
21969W        W42249  17.653  14.759  12.277  0.2178 -0.0257  0.3126
21970W        W42250  13.946  11.849   3.925 -0.0121  0.1943 -0.2588
21971W        W42251   6.217  16.571   3.089 -0.0483  0.3206 -0.0231
21972W        W42252  12.633   0.081  13.499 -0.0462 -0.2169 -0.2732
21973W        W42253   0.861   5.483   2.869 -0.1939  0.0440  0.0837
21974W        W42254   8.461   5.377  13.761  0.0040  0.0413 -0.1367
21975W        W42255  11.586  16.230  10.977 -0.1337 -0.3000  0.0688
21976W        W42256   2.399  11.529  10.833  0.1922 -0.0400  0.2292
21977W        W42257  14.053   4.264   2.794 -0.0498  0.2045 -0.2776
21978W        W42258  10.608   9.892   4.167  0.0829 -0.0753  0.4785
21979W        W42259   7.324   2.707   0.124  0.4455 -0.3230 -0.2860
21980W        W42260  18.577  13.033  11.404  0.1400  0.0615  0.1811
21981W        W42261   4.810  17.257  12.326  0.2798  0.1290 -0.0653
21982W        W42262  12.292  16.332  11.797  0.0138  0.0781 -0.2621
21983W        W42263   1.181  18.165   0.754  0.1040 -0.1666 -0.0701
21984W        W42264   9.332   2.583   0.419 -0.0697 -0.0968  0.1209
21985W        W42265   9.271  13.619   1.169  0.1123 -0.0744  0.0948
21986W        W42266  11.733  18.827  11.417 -0.2416  0.1680  0.1090
21987W        W42267  10.432   6.787  10.489 -0.0182  0.0375 -0.0059
21988W        W42268  19.363   5.764  11.766  0.1913 -0.2080 -0.2164
21989W        W42269   2.103   7.792   2.460  0.1093  0.0024  0.0303
21990W        W42270   1.502   5.096   3.542 -0.1107  0.0526  0.3357
21991W        W42271  13.351  17.289   1.303  0.1703 -0.0227 -0.0645
21992W        W42272  18.980  18.987   0.685  0.3790 -0.2734 -0.0737
21993W        W42273   6.042   0.163   1.166 -0.0861  0.0734  0.0782
21994W        W42274   3.725  15.276   0.266  0.1015 -0.0772 -0.3023
21995W        W42275  19.471  13.652  12.623  0.3766  0.1594  0.0426
21996W        W42276  17.054  11.888  11.289 -0.1981  0.2521 -0.1441
21997W        W42277  13.859   8.764   3.255  0.0701  0.3685  0.1582
21998W        W42278  14.324   3.938  12.098 -0.2947 -0.3329  0.0937
21999W        W42279   5.763   0.650   3.029 -0.1315 -0.0033 -0.0088
22000W        W42280  14.574   7.774   3.607  0.0054 -0.2391 -0.2250
22001W        W42281   8.965  13.706   2.619  0.1710  0.1175 -0.0316
22002W        W42282   4.804   1.468   3.034 -0.0908  0.1993  0.0297
22003W        W42283   5.606  13.734   4.034 -0.0741 -0.2002 -0.0053
22004W        W42284   7.855   2.459   0.691  0.0505 -0.1391  0.1479
22005W        W42285  12.885  10.214  12.261 -0.1811  0.2881  0.0517
22006W        W42286  12.036  13.752   3.101  0.0245 -0.0490 -0.0640
22007W        W42287  17.965   4.376   2.859  0.2301 -0.1137  0.1904
22008W        W42288   0.731  12.314  13.026 -0.2087  0.0508 -0.0642
22009W        W42289   3.703   5.519  11.826  0.0191 -0.2122 -0.2221
22010W        W42290  12.499   7.515  13.173 -0.0747 -0.1353 -0.1026
22011W        W42291  13.549  11.752  12.322 -0.5081  0.3725  0.3268
22012W        W42292  17.756   8.046   1.407 -0.0531  0.3411 -0.1882
22013W        W42293   2.740   4.485  13.280 -0.2674 -0.1844 -0.1760
22014W        W42294   8.366   7.243   0.062  0.1990 -0.0756 -0.2932
22015W        W42295   0.183   0.841  12.416  0.1424  0.0815 -0.1673
22016W        W42296   9.448  19.078   2.252 -0.0067 -0.0268 -0.5575
22017W        W42297   5.767  16.272  11.141 -0.0569 -0.2773  0.1758
22018W        W42298  18.647  12.391   0.280  0.1209  0.0707 -0.0465
22019W        W42299  18.791   3.593  13.386 -0.1928 -0.1208  0.0714
22020W        W42300  19.683  10.036   3.413 -0.0620 -0.0110  0.0815
22021W        W42301  10.515  12.609   3.649 -0.0679 -0.2165 -0.0705
22022W        W42302  17.875  16.630   3.573 -0.0338  0.0279  0.0429
22023W        W42303   3.408  12.849   1.420  0.0073 -0.5217  0.2035
22024W        W42304   9.375  10.511  13.236  0.2961 -0.4125  0.0946
22025W        W42305   1.769  12.364  10.357  0.0096  0.0999 -0.0162
22026W        W42306   1.686  11.540   0.085  0.4963 -0.0681  0.0028
22027W        W42307  11.781  14.428  12.029  0.2995  0.2237 -0.1427
22028W        W42308   6.411   5.346   0.368 -0.0246 -0.2097 -0.1443
22029W        W42309   5.467  16.547  12.245  0.2902  0.1097  0.0134
22030W        W42310   1.899   3.229  13.722  0.1714 -0.1251 -0.0722
22031W        W42311   6.753  15.985  13.559 -0.4243  0.1414 -0.1543
22032W        W42312  12.375   9.520  11.636  0.1906  0.0361  0.2179
22033W        W42313  11.788  18.417   3.426  0.1733  0.0082  0.1834
22034W        W42314   4.666   5.779  12.203 -0.2704  0.3687 -0.2129
22035W        W42315   2.545  12.942  12.071  0.2704  0.0801  0.1282
22036W        W42316   3.188  13.126   3.544  0.2246  0.5437  0.1389
22037W        W42317  15.349   8.846   2.409  0.0393  0.0549  0.1220
22038W        W42318   6.363   3.400  11.852 -0.3295 -0.0929  0.0744
22039W        W42319   4.279  16.289   2.191  0.0905 -0.2369 -0.0100
22040W        W42320  14.920   2.372  14.017 -0.2655 -0.1561 -0.1467
22041W        W42321   3.315  13.740  11.440  0.0580 -0.4416  0.0242
22042W        W42322  17.416   5.154   3.459 -0.0260 -0.0045 -0.1420
22043W        W42323  12.640  11.524  11.633  0.2866  0.0762 -0.0747
22044W        W42324  16.688  13.289  12.619  0.1026 -0.1153  0.1412
22045W        W42325   0.536  16.556   2.752 -0.2987  0.1056 -0.0579
22046W        W42326   3.685  11.359  14.033 -0.1364 -0.0255 -0.0351
22047W        W42327   3.151  15.927   1.163  0.0290 -0.2800  0.1250
22048W        W42328  14.881   7.741   2.292 -0.0093  0.0668  0.0388
22049W        W42329   0.690   0.494   1.652 -0.1315  0.0692 -0.2061
22050W        W42330  15.950  13.263   2.995  0.1043 -0.0566  0.1318
22051W        W42331  14.290   5.560   0.277 -0.1552 -0.0354 -0.0537
22052W        W42332  15.317  19.131  11.273 -0.0192 -0.0076 -0.3306
22053W        W42333  14.770   8.668  12.800  0.0169  0.0138  0.2087
22054W        W42334   0.632  15.467  12.527  0.1754  0.2154  0.0523
22055W        W42335   0.521   2.750   1.277 -0.0271  0.0993 -0.1355
22056W        W42336  18.195   1.230  13.605  0.0150  0.0920  0.0072
22057W        W42337   7.790  18.898  10.953 -0.0350  0.0019  0.0525
22058W        W42338  14.388  17.942  12.465  0.1848 -0.0235  0.1716
22059W        W42339  18.493  18.399  11.855  0.0597 -0.2041  0.1739
22060W        W42340  12.740   4.760  12.570  0.2615 -0.0424 -0.0486
22061W        W42341  18.259   4.727  11.194  0.1583 -0.1781 -0.1537
22062W        W42342   9.567  14.143   1.692 -0.2810  0.1267  0.3304
22063W        W42343  13.622  10.145   3.222  0.1043 -0.1081 -0.2347
22064W        W42344   7.653  10.645  14.069 -0.0553  0.0648  0.2516
22065W        W42345   8.960  18.622  13.648  0.0436 -0.0940  0.0205
22066W        W42346  13.230  12.950   3.344  0.3125 -0.2902 -0.0131
22067W        W42347   5.620   3.381  10.819 -0.1581 -0.0645 -0.0745
22068W        W42348  15.670   0.741  10.901 -0.1246  0.0642 -0.1307
22069W        W42349  15.215   6.158   0.847 -0.1140 -0.0073 -0.0548
22070W        W42350   4.465   1.816   4.379 -0.0227  0.2326  0.3227
22071W        W42351   9.481  15.058   2.865 -0.0600  0.0054  0.2526
22072W        W42352  16.096   9.921   1.826  0.0016 -0.1928  0.1760
22073W        W42353  12.886   3.365   2.989 -0.1184 -0.2729 -0.0820
22074W        W42354  18.300  18.420   3.288 -0.0857 -0.1187  0.0817
22075W        W42355   5.384  15.492   1.290  0.0698  0.0602 -0.1477
22076W        W42356   8.156  19.238   1.552 -0.2229  0.0663  0.2395
22077W        W42357  12.126  19.762  13.450 -0.1582 -0.1330 -0.0756
22078W        W42358   8.791  15.264  11.389  0.0222  0.2147 -0.3563
22079W        W42359   4.802   0.759   1.878  0.2182 -0.0462 -0.2047
22080W        W42360  11.261   5.944   2.187 -0.0163 -0.0330 -0.1592
22081W        W42361   7.065  17.585   3.152 -0.0098 -0.1941  0.2330
22082W        W42362  18.943   7.858  12.082 -0.0740 -0.0530 -0.2185
22083W        W42363  13.817   5.076   1.747  0.2930  0.0046  0.2864
22084W        W42364  14.584  12.887  13.203 -0.1623  0.0739 -0.1715
22085W        W42365   6.434  10.262   0.399  0.1213  0.0433 -0.0341
22086W        W42366  19.730   3.319  13.661 -0.0131  0.2418  0.0844
22087W        W42367   2.329   7.841   0.714  0.0052 -0.4971 -0.1700
22088W        W42368   1.983   1.688   2.870  0.1380 -0.2202 -0.0003
22089W        W42369   1.522   4.100  11.796  0.0152  0.0461 -0.0192
22090W        W42370   9.894  17.691   1.372  0.0339 -0.2306 -0.1787
22091W        W42371   2.032   4.036  12.589  0.1436  0.0900  0.1650
22092W        W42372   5.884   9.253   3.162  0.0675 -0.0347 -0.2410
22093W        W42373   1.853   1.092   0.192  0.1619 -0.1303 -0.3030
22094W        W42374   5.156  14.121  12.638 -0.1077  0.1671  0.0117
22095W        W42375   9.928  17.422  11.438 -0.2392 -0.0818 -0.1750
22096W        W42376   7.545   9.138   0.157  0.1199  0.0528 -0.4510
22097W        W42377  13.345  10.800   1.944  0.0612  0.1453  0.1540
22098W        W42378   7.831   4.852   3.729  0.2850  0.2654  0.2266
22099W        W42379  13.869  15.999  10.193  0.3397  0.1066 -0.0246
22100W        W42380   6.093   1.695  11.309 -0.0064  0.0114  0.1501
22101W        W42381  15.405  19.464   0.265 -0.0044 -0.2360  0.1002
22102W        W42382   0.025   5.114   2.002 -0.1202 -0.1375  0.1655
22103W        W42383   3.370   5.088  10.865  0.0233 -0.1973  0.0720
22104W        W42384   9.012   7.719   1.495  0.5481  0.2335 -0.0025
22105W        W42385  11.594  15.161   0.352 -0.1307 -0.1156 -0.1268
22106W        W42386   6.059   2.912  13.355 -0.0591 -0.0456  0.2072
22107W        W42387  12.689   1.221  13.487 -0.0814 -0.2394  0.1807
22108W        W42388   1.763  15.186  10.611 -0.0042 -0.2576  0.0167
22109W        W42389   8.941   4.306   9.674  0.1713 -0.0146 -0.1847
22110W        W42390  19.411  14.579  12.811  0.0355 -0.2749 -0.1154
22111W        W42391   8.018   0.770   0.900 -0.0741 -0.0624 -0.0315
22112W        W42392  11.454  18.381  13.558  0.3746  0.0150 -0.0842
22113W        W42393   3.476  15.167  11.057  0.0710 -0.0432 -0.0474
22114W        W42394   7.027   4.170  13.857 -0.0241 -0.0217  0.2675
22115W        W42395   9.623  10.028  13.283  0.1329  0.1574  0.1888
22116W        W42396   7.985  18.128  10.843 -0.0623  0.0818  0.2178
22117W        W42397  14.610   8.114  13.855  0.0095 -0.0474 -0.1065
22118W        W42398  10.151  18.092  11.809 -0.3552 -0.0243 -0.0613
22119W        W42399   3.505  11.769  13.445  0.1296  0.0088  0.2840
22120W        W42400  12.517   8.701   2.847 -0.0091  0.2802 -0.2354
22121W        W42401  15.550  15.587   2.054  0.0786 -0.2117 -0.2165
22122W        W42402  17.447   4.693   2.635 -0.0696 -0.0660 -0.0141
22123W        W42403   4.909   2.604   0.302  0.1231 -0.1492  0.2607
22124W        W42404   0.200   9.586   0.828 -0.1414  0.0592  0.0366
22125W        W42405   9.483  17.787  10.852  0.1338 -0.0642 -0.0330
22126W        W42406   4.076   6.935  12.802  0.0074 -0.0390  0.2165
22127W        W42407  11.144   3.208   2.119  0.0269  0.0474  0.3224
22128W        W42408  18.218  15.941   3.982  0.0783 -0.1271  0.3199
22129W        W42409  12.873   2.292   1.218  0.3560 -0.0797 -0.3538
22130W        W42410   6.772   7.679  10.417  0.1240  0.0718 -0.1092
22131W        W42411  13.957  14.428   1.223 -0.4037  0.2494  0.0203
22132W        W42412   6.849  13.015  10.413  0.2206  0.0915  0.3588
22133W        W42413  12.901   6.500  10.361 -0.2476  0.1037  0.1494
22134W        W42414   3.084  18.475  12.496 -0.0337  0.2035 -0.6112
22135W        W42415  16.701  19.040  13.554 -0.0894 -0.0516  0.2477
22136W        W42416  10.835  10.677  10.449  0.0658 -0.1656 -0.2822
22137W        W42417   5.821  19.727  11.787  0.1860 -0.0627 -0.0358
22138W        W42418  11.308  19.758  10.747  0.1566 -0.1900  0.1719
22139W        W42419  18.531  12.031  13.456 -0.0448 -0.2620 -0.0097
22140W        W42420  12.821  14.107   3.040  0.0229  0.2607 -0.0967
22141W        W42421  16.531  17.769  11.701  0.3601 -0.1423  0.2806
22142W        W42422   1.753  16.010   3.804 -0.3563 -0.0803  0.0740
22143W        W42423   2.349  16.755   2.501 -0.0953 -0.0491  0.1212
22144W        W42424  14.567  12.058  11.374  0.1958  0.1546  0.1550
22145W        W42425   8.926   2.819  13.314 -0.0179  0.1275 -0.1541
22146W        W42426  11.196  13.876  13.637 -0.0584 -0.1149  0.0372
22147W        W42427   7.775   1.245   0.054 -0.1070 -0.3838 -0.0594
22148W        W42428  11.671   9.000   1.496 -0.0632 -0.0856 -0.6019
22149W        W42429  15.284  14.740   2.570  0.1494 -0.0775 -0.4078
22150W        W42430  11.209   1.203   2.242 -0.2297 -0.1132 -0.0755
22151W        W42431   2.686   1.141  13.314  0.0073  0.2897 -0.0120
22152W        W42432  14.178   8.209   1.422 -0.1108 -0.1074  0.0915
22153W        W42433  16.557  10.092   0.080  0.0277  0.0647  0.3484
22154W        W42434   9.987  13.481  11.899 -0.1374  0.0883 -0.1062
22155W        W42435   8.410  17.937  14.017 -0.1889 -0.3176 -0.1485
22156W        W42436  14.317  15.313   2.449  0.4860 -0.1572 -0.1918
22157W        W42437  11.197   7.027  13.701  0.0176  0.0336  0.3326
22158W        W42438   4.190   0.155   2.878  0.1234 -0.1004 -0.2312
22159W        W42439   4.781  11.497   2.871 -0.1906  0.0945 -0.0352
22160W        W42440  12.957  18.801   2.202 -0.0081  0.1818 -0.0950
22161W        W42441   5.646   0.483   2.526  0.0790 -0.0816  0.0471
22162W        W42442  11.786  11.061  11.270 -0.3557  0.0183 -0.1462
22163W        W42443  16.203   4.981   1.906 -0.0805 -0.0217 -0.0860
22164W        W42444  13.240   3.576   4.439  0.1160 -0.0869 -0.5205
22165W        W42445  17.357  11.417   3.141 -0.0622  0.3356 -0.1355
22166W        W42446  18.892  17.829   2.597  0.1161  0.1686  0.1925
22167W        W42447  11.628  17.517  11.452 -0.2413  0.3452 -0.0110
22168W        W42448  17.131   1.470   2.532 -0.0878  0.1491  0.0051
22169W        W42449   4.663   9.040   3.182  0.2529  0.1911  0.0969
22170W        W42450   6.291   0.423  11.500  0.2123  0.2040 -0.0472
22171W        W42451  14.567   0.930   9.561  0.1395  0.0227  0.0175
22172W        W42452  10.867  13.299   4.068 -0.2118 -0.0473 -0.2164
22173W        W42453  17.786  16.057   1.887  0.2708  0.0447 -0.1916
22174W        W42454  13.530   7.645   0.158 -0.4757  0.4282 -0.1249
22175W        W42455   8.243   0.539  11.572  0.2614  0.0576 -0.1639
22176W        W42456   0.966   1.321  11.913  0.2230  0.0044  0.1079
22177W        W42457   8.473  14.393   1.147  0.1871 -0.0205 -0.2503
22178W        W42458   3.436   2.912   3.714 -0.2802  0.0102 -0.2586
22179W        W42459   6.760  12.002  12.404  0.4367  0.0356 -0.2206
22180W        W42460  17.269  14.203  14.083  0.0015  0.0346  0.2063
22181W        W42461   6.231   7.589   4.264 -0.0135  0.1772  0.0606
22182W        W42462  10.750   3.802   1.062  0.4364 -0.0314 -0.0243
22183W        W42463   7.680  15.227   4.089  0.1337 -0.3116 -0.2572
22184W        W42464   3.918  10.773   1.559  0.2206  0.0851  0.1705
22185W        W42465   4.784  16.767   1.130 -0.2479  0.1221 -0.1180
22186W        W42466   8.939   5.094   4.350  0.0934  0.1566 -0.1872
22187W        W42467   5.781   5.158  10.309 -0.4303  0.0011 -0.1252
22188W        W42468  15.087  18.478   3.302  0.1122  0.2865  0.0094
22189W        W42469   5.059   1.583   1.926 -0.1847  0.1571 -0.1054
22190W        W42470   2.227   5.853  13.246 -0.4325 -0.1628  0.2225
22191W        W42471   3.130   1.906  13.516  0.1138 -0.0181  0.0841
22192W        W42472  18.076  15.012  13.292 -0.2594  0.0102  0.2291
22193W        W42473  16.099   1.953   0.776  0.1030  0.0250 -0.0814
22194W        W42474  16.385  17.542   1.700  0.1706  0.2587  0.1750
22195W        W42475   4.387   8.856   0.450  0.2831  0.1628 -0.0332
22196W        W42476   6.783  13.974   3.838  0.3194 -0.0823 -0.4391
22197W        W42477  13.016  11.662   2.336 -0.3160 -0.0333 -0.2009
22198W        W42478   5.888  12.242   5.190  0.1374 -0.4071 -0.1331
22199W        W42479  19.555  13.084  11.764  0.0093 -0.1859 -0.1572
22200W        W42480  14.786  15.837  11.781 -0.0562  0.2837 -0.3100
22201W        W42481   7.485   0.669   0.881  0.2192  0.1028  0.0060
22202W        W42482  17.079  12.209  11.757  0.0619  0.1081  0.0151
22203W        W42483   7.648   2.159   9.110 -0.0682  0.1232  0.5825
22204W        W42484  19.037   1.691  11.983 -0.3031  0.1871  0.0833
22205W        W42485   7.520   6.548  12.035 -0.1465  0.0188  0.0521
22206W        W42486   8.055   2.217  11.067 -0.0645  0.1449 -0.1975
22207W        W42487   2.866   8.147  13.137  0.1654 -0.3062  0.2120
22208W        W42488   6.033  10.871   0.170 -0.2219 -0.1373  0.0256
22209W        W42489   1.064   0.961   2.383  0.0843  0.0467 -0.0133
22210W        W42490  15.801  13.719  10.371 -0.1319 -0.1747  0.0878
22211W        W42491  15.800   6.868  11.305  0.0349 -0.1035  0.1339
22212W        W42492   2.692   5.575  11.061 -0.4163  0.0210 -0.3296
22213W        W42493   5.133   5.023  12.754 -0.1978  0.1024 -0.2681
22214W        W42494   5.725  11.487   1.521 -0.0705 -0.0860 -0.0194
22215W        W42495  13.821   7.303   1.336 -0.2894 -0.2705 -0.0929
22216W        W42496   2.928  11.848   1.207  0.2292 -0.2120 -0.0902
22217W        W42497  10.052   0.906   1.554 -0.2268  0.1168 -0.2780
22218W        W42498  10.009   9.160   1.507  0.1123  0.1168 -0.0570
22219W        W42499  19.509  19.396   1.700 -0.1101 -0.0566  0.0159
22220W        W42500   3.400  13.382  12.174 -0.0450  0.2111 -0.1661
22221W        W42501   4.402  14.351  11.767 -0.0186 -0.0547 -0.1064
22222W        W42502   1.486  12.557  11.246  0.0066  0.0327  0.0973
22223W        W42503   4.141   6.923   4.904  0.0306 -0.1537  0.1300
22224W        W42504  14.192  13.157   0.342 -0.0862  0.1386 -0.0355
22225W        W42505   3.931  19.268   1.925  0.3196 -0.3261  0.0717
22226W        W42506  15.472  16.643  12.502 -0.0267  0.3343 -0.3361
22227W        W42507  15.233  19.643  13.790  0.0305 -0.2248  0.2596
22228W        W42508  11.457  18.416  12.506 -0.1591  0.0456 -0.2082
22229W        W42509   8.310   5.718   5.170  0.1813 -0.5241  0.1772
22230W        W42510  14.356   3.366   1.253  0.0996 -0.2333 -0.1065
22231W        W42511  11.617  10.941   9.386  0.0643  0.4309  0.3554
22232W        W42512   4.173  12.145   0.378 -0.2164 -0.3169 -0.0044
22233W        W42513   2.201   8.289   2.277 -0.3017 -0.3888  0.1370
22234W        W42514  17.363  18.340   0.186 -0.0273 -0.0875  0.0662
22235W        W42515  10.847  13.643   5.517  0.0275 -0.2056 -0.0028
22236W        W42516   8.594   1.934   2.525  0.1141  0.0283 -0.1272
22237W        W42517   4.949  10.158  11.110 -0.1141  0.1592  0.3127
22238W        W42518  10.082   5.421  12.797 -0.1083  0.1206 -0.1637
22239W        W42519   6.316   5.955  13.840  0.2207  0.1898 -0.1616
22240W        W42520   6.840   2.801  14.041 -0.0856  0.1189  0.1757
22241W        W42521  11.536   5.218  10.374  0.1086 -0.2909  0.0355
22242W        W42522   9.960  13.501  13.341 -0.1830  0.1003  0.1790
22243W        W42523   3.935   2.006  13.492  0.0145 -0.0428 -0.0723
22244W        W42524  15.939   6.475   1.117 -0.0252 -0.0479  0.0994
22245W        W42525  13.091  10.271   0.150  0.1938 -0.0725  0.1647
22246W        W42526   8.034  13.510  10.997  0.0395  0.2760 -0.0625
22247W        W42527   6.496  17.690   1.906 -0.2134 -0.1444 -0.0379
22248W        W42528   7.537   6.533   1.661  0.2243 -0.0913  0.0305
22249W        W42529  19.021  11.282  12.440 -0.0204  0.4341 -0.2799
22250W        W42530  14.358   9.031   1.676  0.2222 -0.1992 -0.3425
22251W        W42531   2.559  15.719   1.879  0.3238 -0.1660  0.0461
22252W        W42532   1.796   1.498  11.262  0.0100  0.0633  0.0133
22253W        W42533  16.552  14.162  10.749 -0.0609  0.0818  0.2408
22254W        W42534  11.280  15.511  10.522 -0.1162 -0.2311  0.1708
22255W        W42535   2.085  11.767  12.841  0.0598 -0.2610  0.0792
22256W        W42536   3.917   9.053   2.906  0.1906 -0.1974 -0.3804
22257W        W42537   9.532  17.413   0.190  0.0428 -0.0250 -0.1566
22258W        W42538  11.282   2.551   2.484 -0.2174 -0.1227 -0.1799
22259W        W42539   1.471  15.218   1.400  0.1319 -0.1342 -0.0952
22260W        W42540   7.312   3.370   2.319 -0.4402 -0.0048 -0.0643
22261W        W42541  18.156  16.959   1.273  0.1382 -0.0135  0.2097
22262W        W42542   9.246   7.755   2.686 -0.0179 -0.1806  0.0044
22263W        W42543  13.925  19.321   9.260 -0.1543 -0.2374 -0.0517
22264W        W42544   7.409   6.137   4.622  0.3143 -0.0276 -0.0901
22265W        W42545   2.242   8.501   2.889 -0.0473  0.2401 -0.0995
22266W        W42546   1.950   2.715   2.763  0.0339 -0.2089 -0.0205
22267W        W42547   5.210   7.378   1.549 -0.1199  0.0958  0.1044
22268W        W42548   8.325  10.320   9.514  0.4381  0.0533 -0.0347
22269W        W42549   3.846  18.666  12.900 -0.0522 -0.0826  0.2201
22270W        W42550   4.512  18.566   1.832 -0.3147 -0.1465 -0.0969
22271W        W42551   0.974   3.332   0.268 -0.3148  0.1451  0.0224
22272W        W42552   3.737   3.839   2.608 -0.0673 -0.1503  0.0007
22273W        W42553  18.776   4.412  12.484  0.1363  0.0547 -0.2693
22274W        W42554  10.982   4.936   0.303 -0.0841 -0.3108  0.0310
22275W        W42555  14.059  14.649   0.677 -0.0294  0.0378 -0.2383
22276W        W42556   6.923  11.703   3.878  0.0051  0.1078  0.1497
22277W        W42557   0.179   4.903  13.119 -0.0215 -0.2482 -0.1070
22278W        W42558   9.660   3.396   1.712  0.0027  0.3189  0.1641
22279W        W42559  17.005   7.671  11.125  0.2454 -0.3258  0.1417
22280W        W42560  11.242   2.807  13.108 -0.3790 -0.1228  0.0849
22281W        W42561   9.085   6.866   0.976  0.1045 -0.1719  0.0042
22282W        W42562   0.992  12.586  12.655 -0.1683  0.1315  0.2098
22283W        W42563   1.291   1.692  12.794 -0.0689  0.1054  0.1751
22284W        W42564  11.965  13.809   2.441  0.1798 -0.2928  0.0482
22285W        W42565  17.645   2.933  10.209 -0.1272  0.0818  0.0373
22286W        W42566   1.112   0.512  11.000  0.0592  0.4305  0.1193
22287W        W42567  14.915  13.762   2.341  0.2014 -0.1043 -0.1423
22288W        W42568   3.929   7.646  12.290  0.0804  0.3189  0.2342
22289W        W42569   2.749   7.262  10.248  0.2088  0.1315  0.0311
22290W        W42570   6.537   1.007  13.124 -0.2332  0.0399 -0.0402
22291W        W42571   7.676   6.947   1.371 -0.1940 -0.2441  0.1223
22292W        W42572   3.608  13.912   3.250 -0.3500  0.0308 -0.1831
22293W        W42573   2.942  18.531   0.763 -0.0866 -0.1562  0.0399
22294W        W42574   4.763   8.730  11.009 -0.1414  0.0984 -0.0581
22295W        W42575  10.970  16.641   4.201 -0.0399 -0.0454 -0.2117
22296W        W42576  13.875   5.746   2.236  0.0594  0.0074  0.0256
22297W        W42577  12.064  11.396   2.413  0.0618 -0.0613  0.1321
22298W        W42578   1.078  18.570  13.481 -0.1214 -0.1402 -0.0338
22299W        W42579  16.394   1.415   3.830 -0.1891  0.0515 -0.1356
22300W        W42580   9.074  11.432  10.870  0.1664 -0.1759  0.3313
22301W        W42581  12.762   5.932   2.863  0.1802  0.0193 -0.3226
22302W        W42582   4.685   7.475   0.976  0.0807 -0.0007 -0.0838
22303W        W42583  13.301  16.097  12.184 -0.2382  0.1411 -0.2815
22304W        W42584   0.970  15.203   1.514  0.0525  0.0181 -0.0666
22305W        W42585   3.994  12.731  10.696  0.0561  0.1537  0.0087
22306W        W42586   3.478   6.140  13.169  0.0569  0.0044  0.1138
22307W        W42587   7.643   5.295   4.053  0.3573 -0.0334 -0.0659
22308W        W42588   3.442   0.365   0.611  0.0303  0.1384 -0.1067
22309W        W42589   3.239  15.623   0.761  0.2644 -0.0350  0.2509
22310W        W42590   5.534   5.898   2.976 -0.2941  0.0726  0.0268
22311W        W42591   5.756   2.616   2.724  0.1049  0.7943  0.2075
22312W        W42592  11.479   1.079   1.852 -0.0243  0.0947 -0.3180
22313W        W42593   3.087  19.706   1.480 -0.1399 -0.2027 -0.2015
22314W        W42594  16.890  10.383  10.530 -0.2675  0.0016  0.0808
22315W        W42595  15.907  17.874   1.430 -0.4811 -0.2933  0.0546
22316W        W42596  17.292   6.831   0.265 -0.3384 -0.5352 -0.0354
22317W        W42597   9.258   8.568   1.373 -0.3253 -0.0812  0.3313
22318W        W42598  18.902   5.099  10.632 -0.1199  0.3081 -0.1835
22319W        W42599   6.507   1.716  10.189 -0.2219 -0.2418  0.1355
22320W        W42600  10.627  11.980  13.140 -0.0987  0.2341 -0.1796
22321W        W42601  15.818  15.383   1.146 -0.2241  0.2716  0.0557
22322W        W42602   9.487   8.103  11.452 -0.0873  0.1206  0.2025
22323W        W42603   1.688  13.263  10.726 -0.0972 -0.0730 -0.0860
22324W        W42604   4.468   3.925   3.351  0.1881 -0.2861 -0.1133
22325W        W42605  17.741   7.644  12.938  0.1339  0.0187 -0.1682
22326W        W42606   5.862   5.520  11.573 -0.0407  0.4273 -0.1503
22327W        W42607   4.602   4.392  10.734 -0.1498 -0.0639 -0.4232
22328W        W42608  11.992   5.435  13.103 -0.0293  0.0626  0.3477
22329W        W42609   5.930   6.299  10.975 -0.3624  0.0065  0.0741
22330W        W42610   4.537   4.108   1.644  0.1984  0.0114 -0.0955
22331W        W42611   4.422   2.040  11.646  0.0380 -0.3021 -0.0165
22332W        W42612  10.604   2.251   3.263  0.2402  0.1301 -0.0324
22333W        W42613  10.049   4.979   2.875 -0.0952  0.0674  0.3133
22334W        W42614  13.321   3.379   2.104  0.0270  0.4018  0.1379
22335W        W42615   2.384   1.087   1.538  0.0657  0.3106 -0.2340
22336W        W42616  19.624   9.526  12.891 -0.1371 -0.1303  0.0843
22337W        W42617  17.341  18.669   1.132  0.3115 -0.1686  0.1768
22338W        W42618   4.973  15.925   1.466  0.2369 -0.0769  0.1677
22339W        W42619   5.979  12.906  10.986  0.2155 -0.3309  0.1142
22340W        W42620   0.830   3.839   0.151  0.1455 -0.3561  0.0257
22341W        W42621   8.672  16.064  11.791 -0.3545 -0.3735 -0.1164
22342W        W42622   9.126  13.668   2.109  0.2206 -0.1892 -0.1470
22343W        W42623  12.991   9.603   3.388 -0.1709  0.0010 -0.4713
22344W        W42624  11.998  12.371  11.341 -0.2521  0.0693  0.1203
22345W        W42625   5.994   4.581   2.149  0.1170  0.3537  0.3573
22346W        W42626  10.670  10.797   2.406 -0.2118 -0.0802 -0.1470
22347W        W42627  17.985  17.662  12.299  0.2990  0.2554 -0.1765
22348W        W42628  15.039   5.023   2.554 -0.0048  0.0976  0.3850
22349W        W42629   7.281  18.433   2.604  0.0308 -0.1465  0.0013
22350W        W42630  18.396  15.464  10.093 -0.0313 -0.1450  0.1811
22351W        W42631  10.908  14.284  10.927 -0.0139  0.2518  0.1321
22352W        W42632   6.827  17.459  10.681  0.1449 -0.0068  0.3409
22353W        W42633  15.387  18.023  10.412  0.1490 -0.0674 -0.0516
22354W        W42634   0.153  15.635   1.313  0.1344 -0.2454 -0.2782
22355W        W42635   4.879   0.843  12.211  0.0656 -0.3279  0.0490
22356W        W42636   8.003  17.075  11.107  0.2770  0.2665  0.0476
22357W        W42637   5.219  13.163   0.786 -0.1644 -0.0685 -0.1231
22358W        W42638  11.075  16.912   3.677 -0.0522 -0.0398 -0.1649
22359W        W42639   7.695  13.380  10.572  0.1115  0.3725 -0.2495
22360W        W42640  12.197   2.155  13.679  0.0766  0.2155  0.0534
22361W        W42641  18.158  16.677   0.146  0.4205 -0.3018  0.2572
22362W        W42642   1.344   1.485   4.069  0.1921 -0.3893 -0.1150
22363W        W42643   5.001  19.296  10.558  0.0460 -0.0002 -0.1519
22364W        W42644   8.537   9.681  13.004  0.2792  0.1872  0.1028
22365W        W42645   0.334  17.318  12.142 -0.0258  0.0550  0.2038
22366W        W42646  11.225  13.375   2.306  0.0404  0.1237 -0.1088
22367W        W42647  17.444  16.228   1.051  0.1104 -0.1795  0.0915
22368W        W42648  18.286   5.797   1.571 -0.0905  0.0460  0.2417
22369W        W42649   9.791  19.565   2.120  0.4568 -0.0577 -0.1653
22370W        W42650  10.520  11.597   1.027  0.2833 -0.0816  0.3415
22371W        W42651  18.648  14.259   3.559 -0.4627 -0.2094  0.0307
22372W        W42652  15.724   4.393  13.407  0.0026 -0.1357  0.4673
22373W        W42653  12.518   3.364   0.446 -0.3778  0.2622 -0.1749
22374W        W42654  13.694  19.487  13.943 -0.1312  0.1399 -0.0976
22375W        W42655  14.527   5.446   1.933  0.0385 -0.0021  0.0171
22376W        W42656   7.097   3.173   0.055 -0.1856 -0.3827 -0.3791
22377W        W42657   0.905  13.899   9.211 -0.0573 -0.1287 -0.2237
22378W        W42658  14.040  14.955  13.899 -0.1446  0.1023  0.1935
22379W        W42659  19.175  19.741   2.447  0.2272 -0.2837  0.3706
22380W        W42660   4.674   6.681   4.845 -0.2415  0.1902  0.0194
22381W        W42661   4.864  13.729  11.424  0.1712 -0.0636 -0.1487
22382W        W42662   7.586   9.685  11.910 -0.2511 -0.0310 -0.2457
22383W        W42663  10.329   9.681  12.689 -0.0366 -0.0351 -0.0482
22384W        W42664   8.912  12.866  10.462  0.3287 -0.3203 -0.0973
22385W        W42665  14.453  18.667  11.024 -0.1287 -0.1320 -0.0175
22386W        W42666  13.743   3.514  13.331 -0.4708 -0.1757 -0.1302
22387W        W42667   6.987  16.638  14.033 -0.1543 -0.1919 -0.0365
22388W        W42668  16.033  10.171  11.286 -0.2063 -0.3729  0.0794
22389W        W42669   4.267  17.098  13.947 -0.0223  0.4541  0.0894
22390W        W42670   7.432   4.049  13.199 -0.1904 -0.1652 -0.3743
22391W        W42671  15.560   8.229   3.707  0.1882 -0.0917  0.1216
22392W        W42672   6.752   6.498  12.710  0.1785 -0.0400 -0.0811
22393W        W42673   6.271   3.406  11.328 -0.2723  0.0695 -0.1693
22394W        W42674   8.266  14.956  11.251 -0.2604  0.1373 -0.1751
22395W        W42675  11.514   6.101   1.704  0.0441  0.0462 -0.0961
22396W        W42676  12.511   8.022  12.182 -0.0531 -0.0559  0.0829
22397W        W42677   6.077  13.557  12.311 -0.0817 -0.0896 -0.0075
22398W        W42678   0.554   8.618  11.105  0.3903 -0.1893  0.3887
22399W        W42679   2.450  12.779   3.487 -0.7540 -0.0631  0.0323
22400W        W42680   3.285   8.299  12.469  0.0969  0.1328  0.2553
22401W        W42681  18.062   5.644  10.113 -0.2347  0.2523  0.2027
22402W        W42682  16.134  18.076  11.533 -0.2628  0.0311  0.0589
22403W        W42683  15.358  18.652  11.265 -0.1925  0.4862  0.3676
22404W        W42684   5.809   8.196   2.805 -0.2204  0.0756 -0.2075
22405W        W42685  13.396  12.200  13.974 -0.1303 -0.0129 -0.1806
22406W        W42686   2.525  12.103   2.120 -0.1254  0.0433 -0.3644
22407W        W42687   3.977   7.253  11.448 -0.1814 -0.4171  0.1660
22408W        W42688   5.064   9.566  14.058 -0.1481  0.1937  0.2155
22409W        W42689   4.934   6.799   3.345 -0.0426  0.0854  0.1775
22410W        W42690   3.569  19.617   1.282 -0.3014  0.1620 -0.1014
22411W        W42691   4.130  12.086   9.638  0.7514 -0.1349 -0.1637
22412W        W42692   3.116   6.841   4.418 -0.1651  0.2506 -0.2965
22413W        W42693  12.563  16.339   0.867 -0.0227 -0.2563  0.2386
22414W        W42694  13.478  12.250  12.782 -0.1658  0.3119  0.0514
22415W        W42695  15.731  12.647  11.172  0.1591 -0.1104 -0.0015
22416W        W42696   6.010   9.788   0.328 -0.1982  0.1555  0.1568
22417W        W42697   4.122  16.656  12.395 -0.1031  0.0067  0.3494
22418W        W42698   4.215  16.456  10.394  0.1370 -0.0427  0.0615
22419W        W42699   4.925   3.743  12.964  0.1647 -0.0325 -0.2576
22420W        W42700   1.119  19.035  13.672  0.2078 -0.1329 -0.3942
22421W        W42701  10.858  15.221   2.500 -0.1841  0.0725  0.0212
22422W        W42702  16.183   2.285   1.262 -0.1163 -0.0400 -0.0465
22423W        W42703  17.060  14.852   2.852 -0.1175  0.1578 -0.1096
22424W        W42704  12.356  17.644  11.760 -0.1089 -0.0868  0.0929
22425W        W42705  10.258   5.133  10.461 -0.2184  0.1580  0.3523
22426W        W42706  16.992   0.034  12.713  0.1036  0.2903  0.1353
22427W        W42707   9.273  13.210   1.969 -0.0507 -0.0754  0.0348
22428W        W42708  18.489   7.138  13.247  0.0473 -0.1864  0.2182
22429W        W42709   5.733   1.724  11.698  0.0044 -0.2870 -0.0287
22430W        W42710  12.064  14.185  11.075  0.0733  0.2285  0.0876
22431W        W42711  11.039   1.917   8.712  0.1604  0.0210  0.2817
22432W        W42712   4.381   5.462  11.664  0.0837 -0.2472 -0.1586
22433W        W42713   1.745  10.506   1.046  0.2805 -0.2093 -0.0819
22434W        W42714   7.958   3.053   2.792 -0.1777  0.1779 -0.2790
22435W        W42715  14.251   0.459  13.589 -0.5098  0.1340 -0.1010
22436W        W42716   0.111  16.799  11.503 -0.3480  0.3004  0.2627
22437W        W42717   7.369  19.276  10.273  0.1941 -0.0122  0.0842
22438W        W42718  10.563   2.411  10.491 -0.1065 -0.0201 -0.0407
22439W        W42719   7.884   3.405  12.621 -0.0753  0.2378 -0.1894
22440W        W42720   9.809  13.752   1.443  0.2018 -0.1555  0.1008
22441W        W42721  14.833   6.701  11.221 -0.1444  0.0249 -0.0588
22442W        W42722   8.802   9.472  10.092 -0.1091  0.0701  0.0026
22443W        W42723  10.073  12.403   3.825 -0.1303  0.2078 -0.0423
22444W        W42724   0.655   3.790   1.221  0.0762  0.3319 -0.1332
22445W        W42725  13.972  11.532   0.261 -0.0179 -0.1496 -0.0467
22446W        W42726   7.455   5.645  12.118  0.3072  0.0008  0.0426
22447W        W42727  10.094  13.985  12.105 -0.1713 -0.2521  0.0075
22448W        W42728   8.825  12.812  13.623 -0.1723 -0.0520 -0.0949
22449W        W42729  14.579   0.295  11.860  0.4905 -0.1453  0.2699
22450W        W42730  17.960  15.672   2.438 -0.0801 -0.1685 -0.1232
22451W        W42731   7.390  11.082  13.544 -0.3314  0.0515 -0.0071
22452W        W42732   9.554   4.642   3.112  0.1679  0.2852  0.1230
22453W        W42733   9.843  11.899   1.837  0.0600 -0.2731  0.1751
22454W        W42734   4.525   4.877  13.300  0.3266  0.1465  0.4192
22455W        W42735  12.324   2.483   0.274  0.0604 -0.0436 -0.2200
22456W        W42736   0.672   3.162  10.559 -0.0334 -0.3041  0.2682
22457W        W42737   6.269   9.462   1.587  0.0968  0.4002  0.2592
22458W        W42738  16.787   0.157   0.732 -0.1588  0.3268 -0.1629
22459W        W42739   2.933  16.260   0.040 -0.0227  0.3518  0.1731
22460W        W42740  15.391  10.710   2.837  0.1503 -0.2946 -0.1831
22461W        W42741   2.234   1.275  10.703  0.0285  0.2060  0.1359
22462W        W42742  19.776  17.727  10.570  0.2188 -0.2678  0.0588
22463W        W42743   4.172   3.205   9.089  0.1133  0.1629 -0.0575
22464W        W42744   6.303  11.350   0.118  0.1841 -0.0221  0.5113
22465W        W42745  17.189  11.695   1.122  0.3391 -0.2276  0.0052
22466W        W42746  13.823  12.363   3.817  0.1446 -0.1312 -0.1825
22467W        W42747  15.277  17.739  13.818  0.0873 -0.1259 -0.0948
22468W        W42748   0.440   8.195   1.560 -0.0888 -0.1283  0.3943
22469W        W42749  10.811  14.345  13.632  0.3670 -0.1434  0.0090
22470W        W42750   9.310  11.522  10.401  0.0900  0.0897 -0.0887
22471W        W42751   6.670   0.106  13.135 -0.0594 -0.5126 -0.1149
22472W        W42752  11.346   3.579  10.483 -0.1170 -0.1729  0.1200
22473W        W42753   6.783  18.550   2.543 -0.3659  0.2129 -0.2274
22474W        W42754  14.969  16.013   0.835  0.0615 -0.3608  0.1522
22475W        W42755  12.044  17.694   1.551 -0.3383 -0.0507  0.1905
22476W        W42756  19.456   4.548   5.212 -0.4705  0.1596  0.2295
22477W        W42757  17.906  17.783  11.374  0.1024  0.0028  0.0765
22478W        W42758  13.351   4.047   3.316  0.1530 -0.0359 -0.0746
22479W        W42759  12.751  13.788   4.256 -0.0723 -0.4769 -0.2473
22480W        W42760   2.467  18.361   0.515  0.0142  0.0409 -0.0567
22481W        W42761  16.167   2.054   4.106  0.1081 -0.0234  0.1238
22482W        W42762   0.129   3.048  14.050  0.2976  0.2648  0.0097
22483W        W42763  13.876   7.926  12.153 -0.0219 -0.1798  0.2363
22484W        W42764  14.180   6.550   3.441 -0.2066 -0.0461 -0.0082
22485W        W42765   6.444   6.688   0.712  0.1212 -0.0091  0.0020
22486W        W42766   1.640   1.823   3.207  0.2157  0.0605  0.2974
22487W        W42767   4.057  19.676   9.933  0.0842  0.4092 -0.0888
22488W        W42768   2.347   5.566   1.264  0.1709  0.1941  0.0758
22489W        W42769   3.733   1.615  12.132 -0.3056 -0.4744 -0.1490
22490W        W42770   5.165  10.743   3.323 -0.1993  0.1347  0.1051
22491W        W42771   3.274  10.636  12.065  0.4554  0.1689 -0.0475
22492W        W42772  18.296   5.792  11.745  0.1846  0.2958 -0.0603
22493W        W42773  12.315  17.110  12.656 -0.1031  0.0972 -0.1008
22494W        W42774   5.804  13.435  13.611  0.0988 -0.1945  0.0193
22495W        W42775  13.443   8.897   3.476 -0.3003 -0.2556 -0.1438
22496W        W42776   0.788  19.117  11.299  0.3058  0.2511 -0.0601
22497W        W42777  13.761  19.703  11.427  0.2350  0.0583 -0.0348
22498W        W42778   3.407   3.717   3.936  0.0161 -0.0803 -0.0563
22499W        W42779   9.900  15.991  10.278  0.0588 -0.1582 -0.1297
22500W        W42780   0.267   2.657   3.907  0.1371 -0.1728 -0.2322
22501W        W42781   9.041  17.570  11.004  0.0170 -0.0602 -0.3215
22502W        W42782   4.005  13.011   4.636  0.2522 -0.1520  0.1959
22503W        W42783   5.450   6.718   2.453  0.0285  0.1156  0.2618
22504W        W42784  15.841   2.469  12.095 -0.0524  0.0113  0.2324
22505W        W42785   2.150  18.236  11.372 -0.0093 -0.1012 -0.2676
22506W        W42786   7.057  12.989  12.292  0.1007  0.6075  0.0523
22507W        W42787  12.458  18.867  11.047 -0.2466 -0.1434  0.0970
22508W        W42788  17.839  14.717   1.887  0.4682  0.4723 -0.0992
22509W        W42789   1.093  11.452  12.644  0.0510 -0.1744 -0.1978
22510W        W42790   8.531  12.461   1.210  0.0886 -0.1201 -0.0520
22511W        W42791   7.260  12.888   0.248 -0.3134  0.1985 -0.0163
22512W        W42792  16.996  19.190   4.631  0.0694 -0.0638  0.0872
22513W        W42793   1.348   1.683   9.229 -0.0074  0.0629 -0.3981
22514W        W42794  19.111  16.096  10.357 -0.3423 -0.1984  0.0069
22515W        W42795  16.289  14.781  11.491 -0.1256 -0.0653  0.0029
22516W        W42796   1.125   9.522  12.936  0.2068  0.1524  0.0378
22517W        W42797  14.431  14.103  12.793  0.2091  0.0519  0.0658
22518W        W42798  12.487  12.191  13.898 -0.0504 -0.0460  0.0835
22519W        W42799   1.545   2.852  12.333 -0.2315 -0.2181  0.0123
22520W        W42800  10.652  14.513   2.699 -0.1473 -0.0144 -0.1932
22521W        W42801   3.677   7.696   3.324 -0.0575 -0.0308 -0.0228
22522W        W42802  16.473  15.759  13.686  0.0046  0.0682  0.1354
22523W        W42803   1.907   8.185   0.425 -0.3637 -0.1143  0.0579
22524W        W42804   6.918  13.758  10.965  0.5141  0.1974  0.1302
22525W        W42805  19.534   3.447   0.016 -0.2716  0.1212 -0.0853
22526W        W42806   8.317   6.439  11.732  0.1134 -0.2148 -0.1017
22527W        W42807  12.171   0.837  12.555 -0.0619  0.1217 -0.0153
22528W        W42808   9.051  14.951   1.728  0.2030  0.2087 -0.1796
22529W        W42809  10.650   6.267   5.220 -0.4601 -0.0015 -0.0348
22530W        W42810   8.645   5.218  12.748 -0.1415  0.1896 -0.2177
22531W        W42811  13.589   4.534  12.389  0.0151  0.2674 -0.0703
22532W        W42812   9.867   5.347   1.909 -0.0433  0.0425  0.3114
22533W        W42813  11.366  10.877   4.097  0.1131 -0.0915  0.2553
22534W        W42814  11.100   5.374  11.658  0.2538  0.1082  0.0319
22535W        W42815  13.870   4.176   2.345  0.0076  0.0404 -0.1073
22536W        W42816   2.833   2.987  10.727 -0.0540  0.2666  0.4988
22537W        W42817   5.507  19.773   0.463 -0.2253 -0.2438 -0.4026
22538W        W42818  11.883   9.886   0.035  0.1601 -0.0024 -0.1057
22539W        W42819  19.389   1.897  11.195 -0.0785  0.0951 -0.0241
22540W        W42820   8.973  13.827  13.704  0.0437 -0.1503 -0.0709
22541W        W42821  18.462  17.686  10.201 -0.2085  0.0438 -0.3435
22542W        W42822  13.982  16.033  13.599  0.2444 -0.0012  0.1606
22543W        W42823  19.507  16.655   1.309 -0.0428  0.1310 -0.2761
22544W        W42824   2.894  14.360   2.041  0.0180 -0.0902 -0.0755
22545W        W42825   9.013  11.078  11.783  0.1653 -0.2797 -0.0235
22546W        W42826   0.320  13.194  13.181 -0.0387  0.0792  0.0193
22547W        W42827  15.664   7.805  12.497 -0.4630 -0.2858  0.1628
22548W        W42828   7.155  15.271   4.351  0.2005 -0.1510 -0.2268
22549W        W42829  10.224  15.744  10.810  0.1973 -0.2085  0.1547
22550W        W42830  11.089  17.957   1.314  0.1166  0.1807 -0.3372
22551W        W42831   6.118   2.265  13.432 -0.1785 -0.1578 -0.1563
22552W        W42832  13.566  18.457   0.928 -0.0999 -0.2098  0.4109
22553W        W42833   2.483  17.853   3.516 -0.1558 -0.2500 -0.2013
22554W        W42834  18.877  10.318   0.926  0.1644 -0.0909  0.1916
22555W        W42835  13.065  18.125   3.610 -0.1908  0.2432 -0.1710
22556W        W42836   3.906   8.814  11.322 -0.1076  0.1317  0.0146
22557W        W42837  11.030   1.017  10.497  0.1443  0.2599 -0.1716
22558W        W42838   1.194  19.096   3.425  0.1373 -0.0492  0.2687
22559W        W42839   1.214  14.358   0.567  0.1639  0.0942  0.0146
22560W        W42840  11.611   3.815  12.198 -0.0525  0.2250  0.2328
22561W        W42841   5.380   6.963   2.933 -0.0049  0.0173  0.1765
22562W        W42842   2.317   7.419  10.850 -0.0703  0.1584 -0.1791
22563W        W42843   4.157   6.350   3.114  0.0939  0.2001 -0.1921
22564W        W42844  17.111  14.379   0.389 -0.0474  0.0734 -0.0418
22565W        W42845  17.925   4.841   9.324 -0.2096  0.2518  0.0032
22566W        W42846   9.657  17.555  13.278  0.0403 -0.2254 -0.4363
22567W        W42847  14.397  13.036  11.367  0.0969 -0.1479 -0.1384
22568W        W42848  16.506  12.087  11.127 -0.1305  0.1151 -0.0681
22569W        W42849   6.113   8.982   4.074  0.0057  0.0399 -0.0419
22570W        W42850  16.658   2.013  13.298 -0.4035  0.0960 -0.0723
22571W        W42851   4.616   5.674   3.450 -0.2066  0.0345  0.1706
22572W        W42852   1.671  12.874  12.012  0.0542  0.1781  0.2226
22573W        W42853  14.226   7.261  13.855  0.0189 -0.3583  0.2712
22574W        W42854  13.083  10.250   4.003 -0.1101  0.3389  0.1836
22575W        W42855   3.653  14.968   1.259 -0.0962 -0.1092  0.1310
22576W        W42856   2.437  14.385  13.177 -0.1664  0.2889 -0.1590
22577W        W42857   8.932  18.690  12.958 -0.1323 -0.0226 -0.1002
22578W        W42858   3.067   5.984   3.574 -0.0549  0.0373 -0.0361
22579W        W42859   9.581   3.706   2.907 -0.0823  0.2965 -0.3423
22580W        W42860  13.228  10.476   2.311  0.2179 -0.2970  0.0669
22581W        W42861  10.810  14.697   2.317 -0.1790 -0.3448 -0.1508
22582W        W42862  12.633  13.244  12.131  0.2976 -0.0643  0.0841
22583W        W42863   4.637  17.960   3.600 -0.0905 -0.0954 -0.1588
22584W        W42864   5.488   0.219   0.964 -0.0905 -0.3080  0.1503
22585W        W42865  13.594   4.634   1.603 -0.1196  0.2356  0.1440
22586W        W42866  16.043   9.094  12.857  0.0411 -0.0949  0.1078
22587W        W42867   1.850  14.022  11.411  0.1108 -0.2935  0.0816
22588W        W42868   9.134   3.918   9.404  0.3905 -0.0508 -0.0177
22589W        W42869   2.836   3.920  10.188  0.0428 -0.5391  0.0240
22590W        W42870   4.337  17.054   0.965  0.1523  0.0538  0.0891
22591W        W42871  14.666   8.834  10.901 -0.1480 -0.0269  0.0447
22592W        W42872   7.684  15.197   4.572 -0.1349  0.0119 -0.3184
22593W        W42873   5.778   0.228  11.329 -0.0597 -0.1332  0.2108
22594W        W42874   9.383  14.881   0.166 -0.1309  0.0878  0.0790
22595W        W42875   4.355   0.485   2.114 -0.3598  0.1662 -0.0809
22596W        W42876   5.047  15.764  10.543 -0.0389  0.2010 -0.0538
22597W        W42877  17.454   1.264   1.313  0.0426 -0.1527 -0.2873
22598W        W42878   0.205  19.300   0.391  0.1582  0.1004 -0.0710
22599W        W42879  14.852  11.517   4.643  0.0064  0.1050 -0.0118
22600W        W42880  12.874  10.705  12.125  0.4618  0.2112 -0.5507
22601W        W42881   5.910   9.665  12.209 -0.2360 -0.1736 -0.1873
22602W        W42882  11.874  16.166  13.483 -0.1712  0.3039 -0.3968
22603W        W42883  11.183   5.366  12.974  0.0988  0.3769 -0.2674
22604W        W42884   7.441  14.905   1.405 -0.0321 -0.0330  0.1477
22605W        W42885  15.562  10.563   1.946  0.4687  0.0752  0.2714
22606W        W42886   1.022  16.113   3.126 -0.1239 -0.0696 -0.0292
22607W        W42887  17.820  11.203   0.651 -0.0933 -0.0145 -0.0696
22608W        W42888   8.757  19.224   9.052  0.0993 -0.0456 -0.1226
22609W        W42889  19.697   0.717  10.467 -0.2992  0.4387  0.0686
22610W        W42890  14.429  15.303   2.954 -0.2292 -0.0801  0.1291
22611W        W42891  10.201  10.024   2.146 -0.0063 -0.2753  0.1465
22612W        W42892  10.445   8.900   0.671 -0.2977  0.0883  0.3394
22613W        W42893   1.154   4.920   4.154  0.1349  0.0107  0.0080
22614W        W42894   5.766   4.016  13.225  0.2687  0.1916 -0.1482
22615W        W42895  14.057   6.486   1.692  0.2254 -0.3425  0.1952
22616W        W42896  13.985  12.322  10.634 -0.3637 -0.1090 -0.0302
22617W        W42897   8.540  13.212  13.460  0.1367  0.0903  0.0788
22618W        W42898  17.835  19.444   2.603 -0.2597 -0.0510 -0.3578
22619W        W42899  11.138  16.192  11.761 -0.2108  0.1062 -0.2069
22620W        W42900   1.940   2.280  13.264  0.1349 -0.4979  0.0805
22621W        W42901   8.740  12.303  13.471 -0.3826  0.0029 -0.4885
22622W        W42902   9.435   2.528   2.050 -0.2467  0.1044 -0.0692
22623W        W42903  16.350  12.801  12.415  0.1819  0.0968 -0.3430
22624W        W42904   9.714   0.813   1.930 -0.3019  0.1212  0.1586
22625W        W42905   1.553  12.175   3.605  0.0259  0.0500  0.0981
22626W        W42906   4.883  11.391   3.954 -0.1726 -0.2828  0.0903
22627W        W42907   7.184   9.563   1.561 -0.0183 -0.1804 -0.3813
22628W        W42908   0.969  10.972  13.073 -0.0670 -0.0705  0.1130
22629W        W42909  15.154   3.554   0.648 -0.3548  0.1639  0.1998
22630W        W42910   0.999  19.083   9.417 -0.0418 -0.0559  0.0801
22631W        W42911   7.226  12.016  10.636  0.2403 -0.1734 -0.2301
22632W        W42912   0.820   0.153   3.234  0.3604  0.0201 -0.1402
22633W        W42913  19.220   6.381   3.134  0.1400 -0.0978 -0.0431
22634W        W42914  15.749   7.941  11.484 -0.1227  0.0177 -0.0893
22635W        W42915  17.195  15.327  12.454 -0.0761 -0.0389  0.1020
22636W        W42916  13.660   1.432   2.966  0.0960  0.2861 -0.2612
22637W        W42917  17.276  15.874  10.915  0.0678  0.3677  0.0954
22638W        W42918  12.567   2.653   1.600 -0.1736 -0.0085  0.1438
22639W        W42919  13.589   9.304   0.325  0.1540  0.2881  0.1147
22640W        W42920   2.963  14.116  13.020 -0.0016 -0.2785  0.0621
22641W        W42921  12.262  15.308   2.630 -0.1491 -0.2385  0.1165
22642W        W42922  18.563   0.657  11.770  0.1241 -0.0766 -0.3462
22643W        W42923  18.089  18.202  12.515  0.0360  0.1131  0.3578
22644W        W42924  16.476   0.326  13.015 -0.0905  0.0043 -0.1368
22645W        W42925  11.173   5.113   2.575 -0.2426  0.0649  0.2816
22646W        W42926   1.508  10.714  12.189 -0.1261  0.1242 -0.0505
22647W        W42927   5.454   6.981   0.062  0.0748  0.1011  0.1875
22648W        W42928  16.144  16.805  10.445  0.0599  0.3032  0.2122
22649W        W42929   4.697  19.009  13.067  0.0691 -0.2179 -0.2198
22650W        W42930  19.244   9.515   2.102  0.0014 -0.2834  0.1284
22651W        W42931  18.333  14.611   3.298 -0.2555  0.1031 -0.4977
22652W        W42932   7.477   8.477   5.030 -0.1433  0.0290 -0.1418
22653W        W42933  13.062   7.836   0.561  0.5422  0.0237  0.0189
22654W        W42934   3.356   9.298  12.674  0.2601  0.2067 -0.0904
22655W        W42935   6.824  16.167  11.859 -0.1902 -0.1701  0.1286
22656W        W42936   8.091   8.585   3.257 -0.0651 -0.1423  0.4763
22657W        W42937   5.337  19.009  12.586 -0.1389 -0.1094  0.0977
22658W        W42938   2.387   8.070   3.133 -0.3414 -0.3028 -0.1214
22659W        W42939  17.053   4.202   3.785  0.0215  0.3341  0.0236
22660W        W42940   5.679  14.726   1.878 -0.2492 -0.0856  0.0233
22661W        W42941   8.410  10.569  11.128  0.0233  0.1299 -0.0983
22662W        W42942   7.664  14.086  13.809 -0.0923  0.0129 -0.0988
22663W        W42943  15.422   0.720  11.848 -0.2515  0.1733  0.1421
22664W        W42944   3.919   3.519  13.275 -0.1446  0.1199 -0.2619
22665W        W42945   8.635   7.623  13.961  0.0100 -0.0752 -0.1045
22666W        W42946  14.524   3.295   3.101 -0.0308 -0.0603 -0.0129
22667W        W42947   2.766   2.349   3.046  0.0335  0.3864  0.0368
22668W        W42948   7.653   4.659   0.515  0.0166  0.2887  0.3097
22669W        W42949  13.856  17.850   3.490  0.0844  0.0113 -0.0294
22670W        W42950  10.142   8.429  12.377  0.0729 -0.2563  0.1165
22671W        W42951   6.391  14.103  13.298  0.0370  0.0337  0.1374
22672W        W42952   8.545   7.422  13.158  0.1321  0.1663  0.2047
22673W        W42953  14.898   3.570   2.212  0.0277  0.1071 -0.0411
22674W        W42954   2.349   6.037   0.413  0.1317  0.2398 -0.2199
22675W        W42955   3.931  16.905   2.033 -0.0843 -0.0893 -0.2039
22676W        W42956  10.526  10.347  10.618 -0.2752 -0.0949  0.0073
22677W        W42957  13.293   9.898   1.617 -0.1077 -0.0760 -0.1873
22678W        W42958   7.742   2.798   1.042  0.0415 -0.0224 -0.0368
22679W        W42959  14.244  16.323  13.264  0.1637  0.5050  0.0768
22680W        W42960   8.461   2.085  11.623  0.2908 -0.4037 -0.0427
22681W        W42961   4.298  11.135   1.453  0.1595 -0.1160 -0.0237
22682W        W42962   3.954   3.048  10.170 -0.1550  0.1408 -0.2385
22683W        W42963   2.484  13.061   1.929  0.2315  0.1918  0.1402
22684W        W42964  13.667  18.067   1.269 -0.4455 -0.0561  0.1035
22685W        W42965   2.735   2.645  13.746  0.2560  0.1736  0.0049
22686W        W42966  10.468  11.719  11.017 -0.0755 -0.1093 -0.1537
22687W        W42967  15.618   6.495  12.826  0.0316  0.2291 -0.0345
22688W        W42968   1.158   0.543   2.148 -0.0157 -0.2248  0.0722
22689W        W42969  13.682   8.681  13.994 -0.0386  0.0392  0.0490
22690W        W42970  17.002   0.694  11.053 -0.1833 -0.2489  0.0373
22691W        W42971  13.637   2.145   1.416  0.2251  0.0013 -0.0225
22692W        W42972  18.130   8.509   0.400 -0.0458  0.0483  0.1600
22693W        W42973   1.925  11.522  11.054  0.2785  0.1135  0.0065
22694W        W42974   4.714   4.774   3.657 -0.0638  0.0346  0.0306
22695W        W42975   3.786  10.327   0.067 -0.0742 -0.1910 -0.6196
22696W        W42976  16.380   8.903  12.385 -0.4123  0.0463 -0.0419
22697W        W42977   5.368  11.826  13.223  0.2644  0.1831  0.2343
22698W        W42978   8.610   2.496  13.705  0.1084 -0.0805  0.0497
22699W        W42979   4.056  11.276  11.846  0.1153 -0.1505  0.2408
22700W        W42980   9.118   0.790   1.157  0.0055 -0.1751  0.1729
22701W        W42981  13.712   7.718   4.218  0.1088  0.1090 -0.2733
22702W        W42982   6.299   6.922  11.613 -0.0438  0.0675 -0.2250
22703W        W42983  12.752  15.684  11.427  0.0581  0.2549 -0.0103
22704W        W42984   5.466   8.534   2.895 -0.1963 -0.3624  0.1977
22705W        W42985  19.708   1.351  10.600  0.2880 -0.5352 -0.2123
22706W        W42986  14.994   3.414  11.378 -0.1032 -0.1363  0.0591
22707W        W42987  18.212  15.340  12.197 -0.2388  0.1920 -0.0501
22708W        W42988   1.687   6.346  10.370 -0.0380 -0.0333 -0.0730
22709W        W42989   9.354  13.455  13.879 -0.1232  0.1186  0.1775
22710W        W42990   5.151   6.719  11.969  0.3332  0.3667  0.3024
22711W        W42991  18.072   2.785  10.368  0.2289 -0.0713  0.0985
22712W        W42992   2.346  15.101  11.930  0.0636  0.1115 -0.0051
22713W        W42993   1.546   1.565   1.281  0.0257  0.0574  0.0321
22714W        W42994  10.503   9.615   2.048  0.0963  0.1393  0.0214
22715W        W42995   1.326   5.396   2.120 -0.0313 -0.2333 -0.1440
22716W        W42996  10.278  19.014   0.063  0.2323 -0.0688 -0.0626
22717W        W42997   2.820  13.922  11.480 -0.1259 -0.0542  0.0811
22718W        W42998   6.711   8.332   2.525  0.0091  0.0733 -0.2603
22719W        W42999  18.603  16.400   2.105  0.1253  0.1388  0.2093
22720W        W43000  18.466   0.119   3.023  0.1364 -0.0924  0.0333
22721W        W43001  17.206  11.639  12.593 -0.2031  0.0589  0.0129
22722W        W43002   7.179  12.855  11.000  0.0332  0.0108 -0.1440
22723W        W43003  18.671   8.554  13.883 -0.0669 -0.0081  0.2479
22724W        W43004   6.545  12.043   5.152 -0.0360 -0.3922 -0.1270
22725W        W43005   9.748   7.364  14.019  0.1008  0.2175 -0.1298
22726W        W43006  12.751   2.128   2.269 -0.1474  0.1246  0.4296
22727W        W43007  19.759   9.650   2.178 -0.3194 -0.0943 -0.2660
22728W        W43008  13.488  14.171  13.167  0.2842 -0.1747 -0.2589
22729W        W43009   5.699   7.642  12.632  0.0251  0.1466  0.0067
22730W        W43010  13.083   4.942   2.868  0.0924  0.0054 -0.1521
22731W        W43011   6.967  18.065   2.419 -0.2984 -0.1699  0.0218
22732W        W43012   0.934   9.490  13.767 -0.0498  0.1164  0.2134
22733W        W43013  13.505   5.150   2.616  0.1012  0.0932  0.0375
22734W        W43014   7.071   7.819  13.083  0.2045  0.0470  0.1142
22735W        W43015  15.935   0.943  12.782  0.1635  0.0073  0.1994
22736W        W43016  18.048  17.150  11.373 -0.0315 -0.0326 -0.1172
22737W        W43017   9.830   1.020   0.232 -0.2205 -0.0661 -0.0931
22738W        W43018   0.951   4.751   1.738  0.1655 -0.0083 -0.0028
22739W        W43019   1.178   0.713   1.650 -0.1657  0.1471 -0.0137
22740W        W43020   4.930   0.074  11.637  0.1686  0.0790  0.2042
22741W        W43021  13.677   4.857  13.202 -0.0153  0.1141 -0.2022
22742W        W43022   2.173   4.766   1.618 -0.1260  0.0478 -0.0571
22743W        W43023  16.877  16.362   2.757  0.0287 -0.0487  0.2311
22744W        W43024   6.759  19.751   2.824  0.2824 -0.1734 -0.0378
22745W        W43025   5.079  10.256  12.523 -0.1433 -0.0242  0.0532
22746W        W43026  10.789  16.806  12.558 -0.0150 -0.0230  0.1388
22747W        W43027   4.760  18.299  11.549  0.1012 -0.4949  0.0806
22748W        W43028  12.709  14.554   3.347 -0.1603  0.3813 -0.0142
22749W        W43029  11.903   7.539   1.417 -0.1782 -0.0814  0.0021
22750W        W43030   0.868   3.022   3.223 -0.1851  0.0560  0.0193
22751W        W43031   8.431   6.394   1.567  0.0052  0.1859 -0.0139
22752W        W43032   8.614  13.796  12.284 -0.0978 -0.2622 -0.0118
22753W        W43033  10.413  16.702   3.436  0.1146  0.1171 -0.2024
22754W        W43034   3.766  14.732  10.909 -0.0353 -0.1983 -0.3314
22755W        W43035   5.926   2.155  10.907 -0.4222  0.0088 -0.0721
22756W        W43036   7.624  13.612   2.924 -0.1243 -0.0636  0.1193
22757W        W43037   3.031   2.396  11.384 -0.0445 -0.0591 -0.0398
22758W        W43038  10.545  15.646   3.621  0.0174 -0.0028 -0.1060
22759W        W43039  15.152   5.552   3.189  0.1220 -0.0561  0.1462
22760W        W43040  17.122  19.436   2.526 -0.2019 -0.0382  0.0857
22761W        W43041  11.749  15.832   2.935 -0.1503 -0.1002 -0.1183
22762W        W43042   6.016   7.542   2.729  0.0880 -0.0248  0.3578
22763W        W43043   5.367  13.853  11.698 -0.0604  0.1620  0.0094
22764W        W43044   4.030  10.954   2.359 -0.0975  0.2057 -0.2439
22765W        W43045   5.486  16.256   1.242 -0.1789  0.0715 -0.0568
22766W        W43046   0.602  13.877   0.968 -0.0268 -0.2648 -0.0370
22767W        W43047   4.913  17.497  10.750 -0.0449 -0.0249 -0.0194
22768W        W43048  14.206  18.259  10.454  0.2697  0.1418 -0.0793
22769W        W43049   1.304  10.431  11.838  0.1639  0.1726  0.1676
22770W        W43050  11.321   6.021   0.479  0.0933  0.1181 -0.0498
22771W        W43051  10.595   5.714   1.506  0.0546 -0.0723 -0.1365
22772W        W43052   0.248   9.124   5.299  0.0818 -0.0704  0.1358
22773W        W43053  14.373   0.370   0.869 -0.0428  0.1093 -0.0007
22774W        W43054   1.841  13.994   1.622 -0.1253  0.2722  0.2131
22775W        W43055   3.641  15.774  12.963  0.3216 -0.3995 -0.2014
22776W        W43056  15.815   2.108  13.086 -0.0759  0.1235  0.1085
22777W        W43057   7.718  12.282   1.852  0.1495 -0.0880 -0.4254
22778W        W43058  13.408  11.910  11.869 -0.1561 -0.0549  0.3609
22779W        W43059  14.638  11.019  11.648 -0.2195  0.0844 -0.1840
22780W        W43060  13.027  16.416   9.530  0.0154 -0.0892  0.0882
22781W        W43061  17.730   8.961   1.195 -0.0660  0.2279 -0.0098
22782W        W43062  17.764   9.732  10.867 -0.2057 -0.1271  0.0260
22783W        W43063   8.117   3.461  11.847  0.4221 -0.0682  0.0192
22784W        W43064  16.636   3.936  12.144  0.3737  0.2483  0.2961
22785W        W43065   3.242  17.881   9.313 -0.0329  0.0343 -0.0804
22786W        W43066  14.428  15.467   9.724  0.3160 -0.0451  0.5563
22787W        W43067  17.501   6.376  11.388  0.0218 -0.0588  0.1410
22788W        W43068   3.830  14.390   2.593  0.2766  0.2731  0.2484
22789W        W43069   9.632  12.230  12.304  0.1670 -0.3290  0.3202
22790W        W43070  11.450  17.941  10.539  0.2185  0.3605  0.0160
22791W        W43071  18.956   6.940   3.756  0.1962  0.0466 -0.1386
22792W        W43072   2.379  11.959   1.151 -0.1015 -0.0901 -0.0439
22793W        W43073   4.814  14.069  10.960 -0.3964 -0.1109  0.1029
22794W        W43074   5.242  11.050  13.052 -0.0592  0.2672 -0.1675
22795W        W43075  11.311  15.166  10.905  0.1379 -0.1511  0.1961
22796W        W43076   9.016   0.692  12.343  0.2126 -0.1470  0.2137
22797W        W43077   4.856   4.818   2.482  0.0480 -0.2137  0.1668
22798W        W43078   9.709  12.618   0.933 -0.1064  0.2795  0.0770
22799W        W43079   9.379   6.570   1.287  0.1436  0.1177  0.0810
22800W        W43080  12.314   2.731   9.872 -0.0881  0.0415 -0.3343
22801W        W43081   5.398   0.765  10.040 -0.1855  0.1624 -0.1246
22802W        W43082  15.045  12.843   1.339 -0.0863  0.1552  0.0057
22803W        W43083  18.509   8.121  12.412  0.3903 -0.1114  0.1803
22804W        W43084   3.821  18.399   3.529 -0.2118 -0.0895  0.0925
22805W        W43085  18.498   7.115  11.957  0.0174  0.1584  0.1804
22806W        W43086   4.875  15.412   1.829 -0.1105  0.2135 -0.1998
22807W        W43087  18.825  15.713  12.061 -0.0763  0.3273  0.3877
22808W        W43088  11.584   5.495  11.642  0.0194  0.1489 -0.0524
22809W        W43089  15.668   7.465   2.237 -0.1857 -0.3388  0.2292
22810W        W43090  16.768   0.301  11.327  0.1000  0.1282 -0.0181
22811W        W43091   9.698  12.007  11.857 -0.0781 -0.1406  0.1071
22812W        W43092  11.001   5.372  12.302  0.2718  0.1240 -0.0228
22813W        W43093  10.146   8.506   3.799 -0.0635 -0.1469 -0.1640
22814W        W43094   4.472   1.542   0.150  0.0286 -0.4410  0.3340
22815W        W43095  16.247   4.279   3.015 -0.0018  0.3839 -0.2623
22816W        W43096   9.468  11.145  11.582 -0.0670 -0.0731  0.0071
22817W        W43097   0.151  12.986  11.171 -0.0188 -0.1592 -0.0189
22818W        W43098   8.335  18.791   1.273  0.2567  0.1802  0.0120
22819W        W43099   5.079   0.098  13.672 -0.2298 -0.0874 -0.2032
22820W        W43100   1.743  11.336   2.008  0.0432 -0.1929  0.2797
22821W        W43101  14.288   3.989  12.789  0.1082 -0.2846  0.2127
22822W        W43102  19.075   4.797  12.894  0.2577 -0.1401 -0.2141
22823W        W43103  17.797  17.118  12.975 -0.0160 -0.0212  0.0895
22824W        W43104  17.761   1.325  13.813  0.1985  0.1188 -0.2552
22825W        W43105   8.401   0.069  10.571  0.0038 -0.2352  0.1649
22826W        W43106   2.026  18.283   0.255 -0.2996 -0.0045  0.0300
22827W        W43107   9.453   0.973  10.779 -0.1445 -0.0637  0.0218
22828W        W43108   9.084  17.189   0.352  0.2350 -0.1391  0.0025
22829W        W43109   7.591  15.903  11.905  0.0867 -0.2314  0.2471
22830W        W43110   4.113  17.558  14.035 -0.0270  0.4474  0.0558
22831W        W43111  19.717   0.844  12.886  0.0912 -0.2264 -0.0527
22832W        W43112   9.074   6.834   4.584 -0.3628  0.1490 -0.1862
22833W        W43113   1.016   0.650   3.646 -0.0276 -0.2126 -0.2424
22834W        W43114  16.773  17.985   1.823  0.3211  0.0986 -0.0628
22835W        W43115  13.250  12.190  12.330  0.0700  0.2103  0.0604
22836W        W43116   3.306  12.624   0.552 -0.1833 -0.0651  0.1099
22837W        W43117   6.687   0.335   0.381 -0.1736 -0.0847 -0.1570
22838W        W43118  14.436  13.076  12.364  0.2742  0.0498  0.1938
22839W        W43119   2.444  10.444  13.432 -0.1937  0.1692 -0.3258
22840W        W43120  19.660  10.535   2.227  0.1567  0.2654  0.3871
22841W        W43121   4.253   3.434  10.971  0.0204  0.1357 -0.0684
22842W        W43122  16.154   6.546  11.000  0.1506 -0.1653 -0.1018
22843W        W43123  19.458  11.656   0.304 -0.0327  0.2400  0.1797
22844W        W43124  14.616  10.780  13.488  0.0027  0.1575 -0.0176
22845W        W43125   4.431  16.261  11.447 -0.1779  0.2533  0.1670
22846W        W43126  15.783  12.970   0.375  0.3296  0.2145  0.3045
22847W        W43127  12.988  13.605   3.174 -0.1806 -0.2646  0.1957
22848W        W43128   0.083   7.775   3.429  0.0022 -0.0082  0.0523
22849W        W43129  18.296  17.524   0.090 -0.1462  0.4644 -0.0512
22850W        W43130  15.531   2.694   3.758  0.1564  0.1351  0.1998
22851W        W43131  14.885   5.453   9.120  0.1536 -0.0338 -0.0280
22852W        W43132   6.193  14.730   3.421 -0.0699  0.1498 -0.0659
22853W        W43133  11.493   1.075   1.328  0.1337  0.1452  0.0322
22854W        W43134  13.307   1.655  13.718  0.0765  0.0508  0.1014
22855W        W43135  18.938   4.496   1.505 -0.0497  0.1848 -0.1645
22856W        W43136   3.283   5.251   1.303  0.1271  0.2861 -0.3574
22857W        W43137   8.778  17.648   2.430 -0.0345  0.1312  0.0629
22858W        W43138   4.330   6.974  11.789  0.0161  0.1587  0.0258
22859W        W43139   7.304  14.932  13.748 -0.0004  0.0078  0.0016
22860W        W43140   9.075  14.708  12.802 -0.2268  0.0107  0.2498
22861W        W43141   1.957   5.136  10.481  0.1147  0.0844 -0.3568
22862W        W43142  12.266  14.113   2.138 -0.1622  0.2114  0.3007
22863W        W43143  19.643  15.826   1.751 -0.1827 -0.0366 -0.4246
22864W        W43144  13.828   7.974   2.415  0.0230 -0.4853  0.1058
22865W        W43145  11.135  12.136  13.150 -0.0696 -0.0373  0.0929
22866W        W43146   2.756  12.602   2.285  0.2267 -0.0523 -0.2694
22867W        W43147  11.910  13.035   2.834 -0.0363 -0.0661 -0.1829
22868W        W43148   7.406   1.462   0.405 -0.3162 -0.0964  0.0357
22869W        W43149  16.680   8.572  13.550 -0.0549 -0.1156 -0.2643
22870W        W43150   3.051   1.383   3.371  0.1574 -0.0385 -0.1099
22871W        W43151   6.245  10.694  11.008  0.1025  0.2833 -0.2406
22872W        W43152   7.466  12.852  13.304 -0.2261 -0.0759 -0.0140
22873W        W43153  16.096  16.574  13.098 -0.2952  0.0456  0.2550
22874W        W43154  13.415  12.794   4.336 -0.2650 -0.4106  0.1482
22875W        W43155   7.520  11.264   2.050  0.3926  0.2660  0.4620
22876W        W43156   1.963  15.990  11.762 -0.0762 -0.1725 -0.2736
22877W        W43157  12.981   2.009   1.601 -0.2958  0.1985  0.0538
22878W        W43158  11.164   6.450  10.804 -0.3585 -0.0855  0.1768
22879W        W43159   1.466   4.879   5.137  0.1796  0.0093 -0.4165
22880W        W43160   0.834   5.659  13.579  0.0856  0.1589 -0.1324
22881W        W43161  15.188   9.681  12.670 -0.3971  0.2372  0.5049
22882W        W43162  12.655  14.225  13.077  0.0501  0.3089 -0.5014
22883W        W43163   2.992  16.219   3.351 -0.2705  0.0459  0.2808
22884W        W43164  17.019  16.539  11.582  0.1007 -0.0188 -0.1880
22885W        W43165   0.383   5.959  12.786 -0.2017 -0.1494  0.1453
22886W        W43166   9.023  16.506   1.052 -0.0497 -0.0611 -0.2046
22887W        W43167   8.477   0.333  12.862  0.0735  0.0392 -0.4303
22888W        W43168  15.697   0.026   2.709  0.1605  0.0674  0.1706
22889W        W43169   6.059   0.003   3.713  0.2084  0.1353 -0.1930
22890W        W43170  17.448  17.584   2.484 -0.0474 -0.0087  0.1845
22891W        W43171   6.821   5.228   0.612  0.1515  0.2285 -0.0678
22892W        W43172   6.917   2.709   3.263 -0.0942 -0.1371 -0.2524
22893W        W43173  10.781  10.212   2.130  0.3965 -0.0571  0.0312
22894W        W43174   8.320  12.780  13.636 -0.1033  0.2294  0.2490
22895W        W43175   9.713   9.082   4.296  0.1154 -0.1164 -0.1469
22896W        W43176  10.127   3.888  12.416  0.1566  0.2104  0.2011
22897W        W43177  18.754   1.313  11.275  0.2726  0.0150 -0.2602
22898W        W43178  15.017   3.039   0.365 -0.0110 -0.0625  0.0130
22899W        W43179  10.292  12.932   2.780 -0.0825  0.0805 -0.1403
22900W        W43180  19.520   6.461   1.708 -0.2543  0.1976  0.1008
22901W        W43181  14.032   4.468   1.851  0.3196 -0.4720  0.0691
22902W        W43182   8.006   4.342   3.941 -0.2398 -0.1953 -0.1391
22903W        W43183   1.355  12.916  10.880 -0.0417 -0.0337 -0.1832
22904W        W43184  10.500   3.781   1.772 -0.1716  0.2018  0.0418
22905W        W43185   3.354   2.536   0.665 -0.4394  0.2214  0.2187
22906W        W43186   2.248  12.105   3.334  0.0409 -0.1637  0.0887
22907W        W43187  13.388   3.875   1.403  0.0054  0.0423  0.5638
22908W        W43188  16.721  11.275   1.558 -0.0746  0.0068 -0.0183
22909W        W43189  15.680   9.861  11.577  0.3537  0.2262  0.2352
22910W        W43190  17.795  19.732  13.251 -0.1806 -0.0699 -0.0468
22911W        W43191  12.667  17.198   0.557 -0.2083 -0.3648  0.1876
22912W        W43192   8.212  11.866  12.147 -0.0765 -0.1106  0.0130
22913W        W43193   2.722  10.897   0.518  0.0506  0.0550  0.0434
22914W        W43194  19.764   9.214  11.345  0.2574  0.3036 -0.0302
22915W        W43195   9.943   2.631   2.046  0.1644 -0.0523  0.0771
22916W        W43196  17.956  14.389   0.797  0.0402  0.1187 -0.0991
22917W        W43197  10.283  19.093  11.664 -0.0985  0.1529 -0.0184
22918W        W43198   3.653   4.653  10.783  0.0033  0.0244  0.0274
22919W        W43199   9.049   6.407  10.191  0.0964  0.1737  0.4274
22920W        W43200  17.706  17.157  10.300 -0.0630  0.0970 -0.0131
22921W        W43201   3.760  11.981  11.761  0.1356  0.2599 -0.1320
22922W        W43202   3.959   7.494   2.248 -0.1331 -0.0374 -0.3534
22923W        W43203  16.034  19.509   3.101  0.2676 -0.0161  0.0652
22924W        W43204   5.700   7.394  13.194  0.0002 -0.0351  0.0419
22925W        W43205  11.444   3.445  10.958  0.2771  0.0858  0.0053
22926W        W43206  11.893   5.151  12.713  0.0930 -0.0769 -0.0745
22927W        W43207   8.123   8.966  14.087 -0.1000 -0.0525  0.0564
22928W        W43208   2.839   8.109   3.425  0.0252  0.0700  0.0220
22929W        W43209   4.490   8.089  11.056  0.2481 -0.2787 -0.0205
22930W        W43210   2.540   5.791   1.824 -0.0659 -0.0006 -0.3305
22931W        W43211   0.895  11.956   3.348 -0.3449  0.0706  0.0622
22932W        W43212   4.629   3.698   3.850 -0.1659 -0.2828  0.0613
22933W        W43213  15.899  16.850  12.716  0.2161  0.0628 -0.0705
22934W        W43214  11.427   0.479  11.938  0.0187  0.1166  0.2850
22935W        W43215  15.715  15.036  13.136 -0.1481 -0.5483  0.1121
22936W        W43216  15.679   0.574  12.839 -0.1397  0.1936  0.2534
22937W        W43217   3.855   4.674   3.885 -0.2398  0.1410 -0.0764
22938W        W43218   3.279  12.221  10.661 -0.2504  0.1746  0.0412
22939W        W43219   6.781   6.037  11.281 -0.1918  0.2985 -0.7395
22940W        W43220   7.417   8.345   0.313 -0.1874  0.0672 -0.0378
22941W        W43221   5.713   8.348  13.823  0.2441 -0.1418  0.2094
22942W        W43222   3.649  19.670   0.774  0.1386 -0.1799  0.2579
22943W        W43223   9.660   6.670   2.208  0.1384 -0.1650 -0.3126
22944W        W43224  10.898  17.489   3.416 -0.1967 -0.1167  0.0678
22945W        W43225  18.240   4.790   3.571  0.1144  0.1234 -0.0434
22946W        W43226   5.816  15.882  11.818  0.3018  0.0835 -0.2570
22947W        W43227  11.619   8.795  11.878  0.0295  0.2077  0.1326
22948W        W43228  17.818   7.675   2.940  0.3088  0.0091 -0.2095
22949W        W43229  14.608  19.103  12.032 -0.0934 -0.0342 -0.1225
22950W        W43230  13.568  15.601   9.826 -0.1111 -0.0073 -0.0431
22951W        W43231  18.848   5.782  11.665  0.0500 -0.2495 -0.1228
22952W        W43232   2.714   3.413  11.513 -0.1137 -0.4489  0.0415
22953W        W43233   4.087  18.385   0.979  0.0224 -0.0722  0.0557
22954W        W43234  14.980   6.450   9.898 -0.1943 -0.0087 -0.0078
22955W        W43235  18.207  19.749  12.862  0.1010  0.2094  0.0589
22956W        W43236  18.568   3.314  12.098 -0.1374  0.3207 -0.0942
22957W        W43237   0.927   9.532   0.370  0.2490  0.0623  0.0145
22958W        W43238   8.920   6.459   1.571  0.1119  0.3668  0.0506
22959W        W43239   3.833  16.939   9.829  0.1720  0.4005 -0.0442
22960W        W43240   5.145   8.362   1.293 -0.0402 -0.1480 -0.2271
22961W        W43241   6.559   6.427   2.487  0.1085 -0.0212  0.1223
22962W        W43242   1.576   6.786  11.208  0.2002  0.2673 -0.1173
22963W        W43243  16.402   6.019  12.132  0.2284 -0.1060  0.1673
22964W        W43244   7.606  15.991   2.711 -0.1707 -0.0216 -0.0589
22965W        W43245   1.562  12.926   0.754 -0.1537  0.1388  0.2303
22966W        W43246   0.726  14.210   3.148 -0.0234 -0.3758  0.0579
22967W        W43247  12.205  14.439   0.285 -0.1814  0.0437 -0.3332
22968W        W43248   8.631  15.647   3.870 -0.1414 -0.0102 -0.2448
22969W        W43249  17.004   9.241  13.877 -0.0616 -0.1876  0.0129
22970W        W43250   8.786  12.459   1.944 -0.3672 -0.1898  0.0339
22971W        W43251  10.355   7.500  11.438 -0.0232 -0.2620 -0.0716
22972W        W43252  16.260  19.345  10.241  0.1902 -0.2943  0.2371
22973W        W43253   8.948   5.464   3.154 -0.1345 -0.0446 -0.2297
22974W        W43254   0.213   8.546   2.858 -0.2670  0.4421  0.0584
22975W        W43255   5.785  12.138  12.219 -0.4884 -0.1287 -0.2601
22976W        W43256  12.079  18.592  11.097 -0.2337 -0.0011 -0.0401
22977W        W43257  17.804  18.803  11.817  0.2292 -0.1950  0.0319
22978W        W43258  16.239   8.246   2.592 -0.0564 -0.0472  0.1618
22979W        W43259   5.431   9.043   2.873 -0.0236 -0.3869 -0.1787
22980W        W43260  17.369  12.843   1.966  0.1525  0.1780  0.1972
22981W        W43261   1.262  10.940   5.260  0.0901 -0.0982 -0.0038
22982W        W43262   0.353   8.527  11.902 -0.0061 -0.1599  0.0033
22983W        W43263  18.033  19.185   3.539  0.1926 -0.2548  0.2074
22984W        W43264  13.487   4.376  13.285 -0.0312  0.0459  0.0725
22985W        W43265   6.282  19.491   2.746 -0.1182 -0.3898 -0.0089
22986W        W43266  16.221   2.244  10.634 -0.3174 -0.4686 -0.2186
22987W        W43267   3.227   9.556   2.601  0.0488 -0.1039  0.0493
22988W        W43268  14.864   4.208  10.338  0.0619  0.0097  0.1728
22989W        W43269   4.532   5.767  13.167 -0.0330  0.2900  0.2295
22990W        W43270  11.877   5.327   3.343  0.3102 -0.1191  0.1363
22991W        W43271  18.486   9.355  11.987  0.1723  0.2288  0.1950
22992W        W43272   8.234  18.335  11.411 -0.3515  0.1869 -0.0125
22993W        W43273  17.834  10.188  12.985  0.2155 -0.2531 -0.1121
22994W        W43274   3.910   0.431   1.757 -0.2977  0.1538  0.0625
22995W        W43275   9.755   3.311  10.381 -0.0169 -0.0608  0.0027
22996W        W43276   4.571  17.272   1.354 -0.0521  0.0258  0.2132
22997W        W43277  17.978   7.656   2.421  0.2093 -0.0581 -0.1168
22998W        W43278   6.023  18.502   1.821 -0.1733 -0.1299  0.1875
22999W        W43279  18.325   8.404   9.082  0.1012 -0.0528  0.0114
23000W        W43280   1.935   5.522   4.816 -0.0904 -0.2854 -0.0233
23001W        W43281   0.530  13.156   1.553  0.5243 -0.1340  0.2258
23002W        W43282   5.413  12.348   0.285  0.1374  0.1556  0.0728
23003W        W43283  14.152   9.097  11.531 -0.0492  0.0735 -0.2136
23004W        W43284  14.497   9.791  12.727 -0.2656 -0.1218  0.0987
23005W        W43285  16.620   9.506  10.599  0.1768  0.2809  0.1678
23006W        W43286  13.455  17.841   2.135 -0.4842  0.3698 -0.1684
23007W        W43287   4.133  10.430  12.415 -0.1441 -0.0032  0.1889
23008W        W43288  17.924   1.620  10.485  0.1675  0.1659  0.1584
23009W        W43289  14.001   0.647  11.259 -0.1257  0.1706 -0.0016
23010W        W43290   9.091   4.907  12.746  0.1943 -0.0588 -0.4360
23011W        W43291  18.753   5.538  10.828  0.0042 -0.2911  0.0851
23012W        W43292  16.262   5.844   2.034 -0.1694  0.1328  0.0203
23013W        W43293   5.361   3.423   9.281 -0.0440  0.2198 -0.1782
23014W        W43294   7.671   1.146   2.672 -0.1024  0.1375 -0.2156
23015W        W43295  15.427   6.781   1.901  0.0082 -0.0832 -0.0525
23016W        W43296  19.106   4.958  13.641 -0.0210  0.1424  0.0341
23017W        W43297  13.537   1.177  10.981  0.1195  0.1044 -0.0691
23018W        W43298  14.772   9.970   0.462 -0.0996 -0.1239 -0.1602
23019W        W43299   3.569   4.105   0.048 -0.1674 -0.1352  0.0282
23020W        W43300  18.316   7.696   2.080 -0.0628  0.1321  0.0231
23021W        W43301  16.400   7.713  11.241 -0.1142  0.0614  0.1392
23022W        W43302   4.976   6.590   0.752 -0.0364 -0.0830  0.0326
23023W        W43303  19.100  14.638  10.808 -0.0269 -0.0572 -0.2460
23024W        W43304  14.967   6.965  10.771  0.0401 -0.3095  0.0186
23025W        W43305   0.101  12.152   3.679 -0.2757 -0.4108  0.3110
23026W        W43306   4.308  14.046  10.765  0.0163 -0.5392 -0.2888
23027W        W43307  10.248  11.414   9.571 -0.1210 -0.0581  0.1390
23028W        W43308  12.689   8.916  13.335  0.0968 -0.0139  0.2426
23029W        W43309  18.436   5.029   0.165  0.0252 -0.2087  0.1492
23030W        W43310  19.273   4.575   2.686  0.3965 -0.1556  0.1644
23031W        W43311   4.282   8.907   1.433 -0.0994 -0.2057 -0.0648
23032W        W43312  13.245   6.804   0.132  0.2604  0.1756 -0.3157
23033W        W43313  12.094   3.938   4.540  0.1145 -0.0067 -0.1595
23034W        W43314  14.801   5.782  11.472  0.0644 -0.0742 -0.1562
23035W        W43315   0.414   9.411   3.090  0.0200 -0.1743 -0.2643
23036W        W43316  15.264  18.511   0.956  0.0141 -0.3664  0.0090
23037W        W43317   1.190  10.360  12.945 -0.0695  0.1277 -0.1959
23038W        W43318  17.799   7.518   9.840 -0.1514  0.0303  0.2083
23039W        W43319  12.893  19.319  13.419  0.3908 -0.1433  0.2216
23040W        W43320  16.134   8.729   2.558 -0.0906 -0.0745 -0.2361
23041W        W43321   6.528  15.065  12.253  0.0322 -0.0013  0.0851
23042W        W43322   5.429  11.540   1.998  0.2776 -0.0418  0.0111
23043W        W43323   0.384   6.148  10.669  0.1017  0.3859 -0.0278
23044W        W43324   8.094   4.089  13.531  0.1819 -0.3177 -0.0244
23045W        W43325   1.877  16.169   0.968  0.1065  0.1480 -0.0782
23046W        W43326   0.109   3.095  10.565  0.0256  0.0477  0.1185
23047W        W43327   3.437  16.585   4.077 -0.3986  0.1962 -0.2185
23048W        W43328   1.699   9.554  11.287 -0.0835 -0.3847 -0.0720
23049W        W43329  16.910  11.371  10.465 -0.1100 -0.0457 -0.0689
23050W        W43330  12.126   3.163   9.631 -0.1573  0.1071  0.0580
23051W        W43331  19.194  10.891   1.829 -0.0992 -0.0462  0.0007
23052W        W43332   0.447  15.336  12.047  0.0198 -0.2659 -0.2169
23053W        W43333   1.701   4.702  10.248  0.2387  0.1776 -0.1633
23054W        W43334   8.445   4.275  11.127 -0.0316 -0.2743 -0.3102
23055W        W43335   4.468  15.935  12.916 -0.2490 -0.1383  0.0013
23056W        W43336  10.586  12.688  10.906 -0.1037  0.3004  0.1784
23057W        W43337  17.647   0.372  10.930  0.1639 -0.2500 -0.1915
23058W        W43338  10.091  19.156   3.793 -0.2365 -0.2823 -0.1845
23059W        W43339  11.909   2.210   2.749  0.0429  0.0206 -0.0920
23060W        W43340   4.852   4.420   4.013 -0.3314 -0.0979 -0.2194
23061W        W43341  14.098   8.351  10.472 -0.1043  0.0792 -0.3554
23062W        W43342   3.026   9.655   2.151 -0.0162 -0.0336 -0.3843
23063W        W43343  18.853   8.260   1.094 -0.4696  0.2062  0.1241
23064W        W43344  16.474  17.897   3.592 -0.0581 -0.1762 -0.0448
23065W        W43345  19.639  12.641   1.840 -0.0546  0.1306 -0.2972
23066W        W43346  18.002  17.601   3.296 -0.0316  0.1178  0.0299
23067W        W43347  13.763  15.285   0.989 -0.0530  0.3419 -0.3324
23068W        W43348   7.356  12.645  12.825  0.0123 -0.3524  0.5177
23069W        W43349   4.779   8.110  13.622  0.1100 -0.3506 -0.1882
23070W        W43350   5.137  10.719   3.881 -0.1081  0.0764  0.0518
23071W        W43351  17.408   7.818  10.847  0.2572 -0.1080 -0.1480
23072W        W43352   8.533  19.532   0.685 -0.2869 -0.0644 -0.1852
23073W        W43353  14.189  17.316  10.301 -0.2646 -0.0883 -0.0840
23074W        W43354  18.923  11.591  11.756  0.1005  0.0627  0.0543
23075W        W43355   7.530   0.627  12.405  0.0091  0.1569 -0.1075
23076W        W43356  14.324   5.133   0.526  0.0443 -0.0278  0.3193
23077W        W43357   7.706   0.194   0.937 -0.4445 -0.0299  0.1916
23078W        W43358   2.211  11.555   0.296  0.0293  0.2321 -0.0801
23079W        W43359  10.619   2.926   1.783 -0.1546  0.1127  0.1497
23080W        W43360   9.903   2.063   0.093 -0.2494 -0.1399  0.5104
23081W        W43361   4.469   1.997  13.941  0.1808  0.0790 -0.0143
23082W        W43362  11.292  19.632   0.465  0.2970 -0.0642 -0.0988
23083W        W43363   1.973  11.306   1.425 -0.1406 -0.3646 -0.1063
23084W        W43364  11.845  15.291  13.254  0.3451 -0.2181 -0.0647
23085W        W43365   0.208  10.557   3.425 -0.2169  0.2124 -0.0781
23086W        W43366  19.707   9.472  10.450  0.1243 -0.2426  0.0508
23087W        W43367  17.677  16.589   2.043 -0.2796 -0.1368 -0.1356
23088W        W43368  16.901  19.582  10.194  0.1108  0.0821 -0.2193
23089W        W43369  16.155   6.549  13.594 -0.0985  0.1387  0.3113
23090W        W43370   6.277  15.927  11.944 -0.0714 -0.0694  0.2100
23091W        W43371  14.506   8.653   3.954 -0.0003 -0.5916 -0.0421
23092W        W43372   7.892  17.995  11.314 -0.1143 -0.0675 -0.1437
23093W        W43373   5.739  11.749  11.222 -0.0129 -0.2518 -0.2761
23094W        W43374  15.687   7.068   3.264  0.0552 -0.1993 -0.5265
23095W        W43375   9.398  12.293   2.833  0.0671 -0.0697 -0.2360
23096W        W43376   8.089   6.181  12.649  0.0666 -0.0916 -0.0709
23097W        W43377  15.824   4.575   3.063 -0.1201 -0.1215  0.1440
23098W        W43378  15.387  14.990  10.526 -0.2102 -0.1892 -0.0412
23099W        W43379   5.915  11.952  13.594  0.0206  0.1760 -0.1050
23100W        W43380  12.599   0.852  10.496 -0.0124  0.2055 -0.3993
23101W        W43381   2.220  10.697   2.480 -0.1875  0.2064  0.1121
23102W        W43382   8.129   2.087   0.378  0.1511 -0.0301  0.1275
23103W        W43383  18.797   0.464   3.169 -0.0949  0.2440 -0.0491
23104W        W43384   4.203   0.301   3.940  0.0174  0.0449  0.4009
23105W        W43385   0.106  12.874   1.001 -0.0972 -0.1344 -0.0634
23106W        W43386   8.084   6.466   0.684  0.1479  0.1145  0.2241
23107W        W43387   0.603  16.145  13.441 -0.2274 -0.3267  0.1681
23108W        W43388  11.987   3.964   2.633 -0.3042 -0.2700  0.0500
23109W        W43389  16.043   3.134  12.675  0.2587  0.2924 -0.2154
23110W        W43390   9.841   7.473   3.266  0.0091  0.1437 -0.0164
23111W        W43391  16.496   5.408   2.003 -0.2312  0.1403 -0.5120
23112W        W43392  13.158   0.933  11.370 -0.0695  0.4478  0.1891
23113W        W43393   1.252   9.713   2.803  0.0992 -0.1067 -0.0848
23114W        W43394  13.988   0.784  11.825 -0.0373  0.2491 -0.0987
23115W        W43395  13.347   0.864  11.875 -0.0401  0.1070 -0.2891
23116W        W43396   4.057   2.490  13.749  0.1065  0.0879 -0.0764
23117W        W43397  13.690  19.223   3.157 -0.1861 -0.0389  0.2220
23118W        W43398  16.344   9.140  10.385 -0.2365  0.0051 -0.0493
23119W        W43399  14.462  15.432   3.474  0.0594 -0.1833  0.0916
23120W        W43400  10.173   5.908   2.155 -0.3087 -0.0765 -0.0546
23121W        W43401   2.760  10.298  11.015 -0.0927  0.1762  0.4089
23122W        W43402  18.023   8.553  12.905  0.0577  0.0209 -0.1102
23123W        W43403  14.058   1.736  12.323 -0.2654 -0.0324  0.1118
23124W        W43404   3.314  17.101  13.692 -0.2837  0.3625  0.0652
23125W        W43405  16.583   3.037   0.157  0.6097 -0.0665  0.0490
23126W        W43406  10.209   2.339   2.340  0.1637 -0.1855 -0.0371
23127W        W43407  18.440  15.934   9.868  0.1865 -0.0594  0.1125
23128W        W43408   3.596   2.382  10.998  0.4107 -0.2638 -0.0999
23129W        W43409   6.673   4.646  12.319  0.2929  0.0758  0.0345
23130W        W43410   9.345   4.586   0.859  0.2616  0.1351 -0.1689
23131W        W43411  16.870   1.224   3.670  0.2162  0.2787 -0.2053
23132W        W43412   4.628  15.045  11.874 -0.2134 -0.0397 -0.1279
23133W        W43413   3.420  15.401   1.228  0.3209  0.2328 -0.2716
23134W        W43414  15.089   8.330  13.130 -0.1123 -0.0378  0.1528
23135W        W43415   5.540  10.733  11.711 -0.0801  0.0429  0.1933
23136W        W43416   5.941   6.447   2.674 -0.0451  0.0491  0.0376
23137W        W43417  11.718  15.426   9.469 -0.1306  0.0686 -0.0018
23138W        W43418   3.207  17.933  12.678 -0.0176 -0.0741 -0.1711
23139W        W43419   9.576  16.407   1.765  0.2427  0.0942 -0.0733
23140W        W43420  16.845   0.530  12.703 -0.1349 -0.3537 -0.4951
23141W        W43421  15.851  10.079  13.724 -0.2655  0.2423 -0.3502
23142W        W43422   0.603  13.362  14.072 -0.3598 -0.1423 -0.1374
23143W        W43423   7.755   6.833  10.348  0.3836 -0.2118  0.3076
23144W        W43424  18.932  11.975   1.461  0.0833 -0.0282  0.4606
23145W        W43425   2.945  18.138   0.392 -0.2437 -0.0207 -0.0774
23146W        W43426  18.415  17.480  11.954 -0.0056  0.0895  0.0060
23147W        W43427  15.015  10.390   3.707  0.5304  0.0582 -0.0925
23148W        W43428   8.115   1.395   2.782  0.0280  0.3747 -0.1348
23149W        W43429  17.802   8.450   1.718 -0.2388 -0.2212 -0.2160
23150W        W43430   9.890   7.716  10.550 -0.1003  0.1360 -0.2578
23151W        W43431  19.414   9.181  13.591 -0.4891  0.0385 -0.0746
23152W        W43432  11.408   3.603  13.810 -0.1823  0.0646  0.0742
23153W        W43433   6.948  16.374   2.310 -0.0448  0.2625 -0.1280
23154W        W43434  13.334  15.667  12.437  0.2070 -0.0884 -0.2402
23155W        W43435   6.522   0.848   3.342  0.0023  0.1258 -0.1567
23156W        W43436   3.149   4.816  10.485  0.3657  0.0882  0.0985
23157W        W43437   7.646  19.082  11.841 -0.3553 -0.2621  0.0699
23158W        W43438   6.161   7.196   3.780 -0.1287  0.3141  0.1321
23159W        W43439  15.487  18.643  13.382 -0.0479 -0.4196 -0.2839
23160W        W43440   1.500   2.435  10.536 -0.1260  0.1184  0.1118
23161W        W43441   5.091   3.533   1.437 -0.0417  0.2140  0.0551
23162W        W43442   8.495  11.288   3.551  0.0485 -0.0819  0.2807
23163W        W43443   0.264   7.002   0.031  0.5023 -0.2680  0.2015
23164W        W43444  13.774   7.757   1.097  0.1390  0.1074 -0.2147
23165W        W43445   3.327  11.793   3.326 -0.5948 -0.0367  0.1065
23166W        W43446   4.723   6.484  12.908  0.1638  0.0844  0.2338
23167W        W43447  19.049  18.574   3.638  0.0244  0.0196  0.1031
23168W        W43448  10.745  15.994  12.046 -0.0004 -0.3920 -0.0532
23169W        W43449   5.450   1.276   2.391 -0.0412 -0.1263  0.4438
23170W        W43450  10.901   4.294   4.580  0.0829  0.0301 -0.1726
23171W        W43451  12.696   8.313  10.677 -0.0238  0.0253 -0.0731
23172W        W43452   6.627  18.608   9.865 -0.0930  0.4019 -0.0072
23173W        W43453  19.390   0.051   1.959 -0.2614 -0.3537 -0.0027
23174W        W43454  14.712  12.770  10.175 -0.0664 -0.1754  0.1195
23175W        W43455  10.581  14.978   4.092 -0.1564 -0.1960  0.2294
23176W        W43456   9.074   1.101   0.671  0.3488  0.1445  0.2097
23177W        W43457   4.249   2.231   3.588 -0.3256  0.2015  0.2017
23178W        W43458   8.262  12.883  11.992 -0.2308 -0.3162  0.0148
23179W        W43459   3.303  13.282  12.746 -0.1856  0.2451  0.0349
23180W        W43460  11.588  15.092  12.614  0.1864  0.0529 -0.0994
23181W        W43461   3.189  17.493  10.540 -0.3271 -0.1374  0.0297
23182W        W43462   0.524   2.965  11.461 -0.1812  0.1990  0.2749
23183W        W43463   4.171  10.230   0.999 -0.3023  0.2743  0.1663
23184W        W43464   3.593   8.595   0.659 -0.1036  0.0539  0.1031
23185W        W43465  18.223  12.277   1.933 -0.0369  0.4408  0.1419
23186W        W43466  15.284   8.123  12.268  0.1660 -0.0124  0.0419
23187W        W43467  12.799  19.225  11.204 -0.2498  0.1358  0.0406
23188W        W43468  19.644  11.570   3.507  0.3963 -0.2864  0.1239
23189W        W43469   2.361   8.147   3.646  0.0614 -0.1850 -0.1964
23190W        W43470   5.235  19.090   1.102 -0.1898  0.1072 -0.1740
23191W        W43471   6.309   8.174  13.195 -0.1320  0.0947 -0.4568
23192W        W43472  17.252  11.116  13.324 -0.0202 -0.0447 -0.1248
23193W        W43473  14.872   4.278   3.401  0.1303 -0.2375 -0.5759
23194W        W43474  12.569  16.105   1.456 -0.0437  0.0742 -0.1538
23195W        W43475   8.631   6.158  13.696 -0.1768  0.0760  0.1762
23196W        W43476  19.640  11.490  11.341  0.0543  0.0240  0.1624
23197W        W43477   8.460  13.435   1.290 -0.1283  0.2823 -0.0730
23198W        W43478  10.556   5.517   0.581  0.1740 -0.0032  0.1950
23199W        W43479  17.526  17.839   9.694 -0.1317 -0.0985  0.1716
23200W        W43480  12.921  14.026  11.977  0.0426  0.1403  0.1589
23201W        W43481   6.282   0.408  12.846  0.0120  0.3865  0.1490
23202W        W43482   9.611  12.697   3.631 -0.0061  0.2283  0.0980
23203W        W43483   8.736  14.689   4.283  0.1479  0.1229  0.0966
23204W        W43484  16.508  10.048  11.401 -0.2644  0.4177  0.1450
23205W        W43485  12.307  17.193   3.034  0.0235 -0.2454 -0.1046
23206W        W43486  14.635  18.591   9.761 -0.0230  0.1489  0.3506
23207W        W43487  11.005   2.315  10.280  0.0007 -0.3631  0.0337
23208W        W43488  15.843   8.479  11.214 -0.0124 -0.1743 -0.0526
23209W        W43489  18.207  13.172   1.129 -0.1721  0.0699  0.1449
23210W        W43490   0.713  16.888   4.348  0.2114 -0.1199  0.2058
23211W        W43491  11.702  18.785   1.305  0.4155 -0.0500 -0.0300
23212W        W43492  18.359  14.492   1.649  0.0955 -0.2319 -0.1615
23213W        W43493  16.376  12.666   4.163 -0.0681 -0.2698  0.2217
23214W        W43494  16.467  18.705   2.429 -0.2114 -0.1366  0.0526
23215W        W43495  12.808  10.108   1.452  0.0252  0.2649 -0.0301
23216W        W43496   9.671  18.235   0.348 -0.0578 -0.0779  0.0895
23217W        W43497   9.154   6.104  13.492  0.1920  0.1567  0.1574
23218W        W43498   1.876   5.500   0.451 -0.0091 -0.2161 -0.2737
23219W        W43499   9.330   4.161  11.737  0.2593  0.0184 -0.0798
23220W        W43500  14.141   7.754  12.987  0.0193 -0.0393  0.0138
23221W        W43501   4.329   3.316   2.698 -0.5067  0.2451 -0.3348
23222W        W43502   5.549  18.751   1.839 -0.0341  0.3750 -0.2201
23223W        W43503   4.604   5.715   1.470  0.1288  0.1151  0.0219
23224W        W43504  14.467  10.856  12.925 -0.2636  0.4531  0.3425
23225W        W43505   6.279  11.330   0.620 -0.2236 -0.0784  0.0141
23226W        W43506  13.222   0.036   1.355  0.0894  0.1299  0.0543
23227W        W43507   3.635   5.620  14.000  0.1617  0.1805  0.2556
23228W        W43508   6.232   0.328  10.566  0.1796 -0.1050 -0.0302
23229W        W43509  16.815  13.003  13.110  0.2343  0.2810  0.0907
23230W        W43510  17.699   7.362   3.911  0.1955 -0.0065 -0.1143
23231W        W43511  16.876  13.687  13.895 -0.1395 -0.4779 -0.2441
23232W        W43512   2.942  18.693   0.246  0.1621 -0.2106  0.0524
23233W        W43513   9.552  16.969   0.430 -0.0526  0.1674 -0.0111
23234W        W43514  12.961  17.513   9.802 -0.1597 -0.3007  0.3000
23235W        W43515   2.298  13.864   2.537  0.0698 -0.1982 -0.1980
23236W        W43516   4.431  15.378  12.748  0.1034 -0.0339  0.0332
23237W        W43517  19.288  18.701  10.791  0.1901  0.1294  0.0215
23238W        W43518   8.935  10.629   2.148 -0.0283  0.1702 -0.0250
23239W        W43519   6.760   0.780  13.540  0.0745 -0.4659 -0.4492
23240W        W43520   0.151   9.277  13.789 -0.1436 -0.0036  0.0476
23241W        W43521   5.014  13.789  13.716  0.3023 -0.1391  0.1334
23242W        W43522   3.185   7.935  13.746  0.0392 -0.0870 -0.1248
23243W        W43523  18.862  18.635  12.686 -0.0994  0.0236  0.1474
23244W        W43524  18.276  13.983  13.511  0.0056  0.2059  0.3055
23245W        W43525   0.885   2.396   1.168 -0.0377  0.0261  0.1962
23246W        W43526  11.509  10.797   3.196 -0.3220 -0.1496  0.0581
23247W        W43527   4.610   6.757  13.729  0.0663 -0.3209 -0.0150
23248W        W43528  14.254   6.186  12.771  0.2232  0.1025  0.0143
23249W        W43529  11.981  16.278   0.709  0.0971  0.3824 -0.0059
23250W        W43530  13.148   4.485   3.153  0.1277  0.3956  0.4867
23251W        W43531  13.102  13.041  10.429  0.0206  0.3623  0.0123
23252W        W43532   5.091  12.214  13.472  0.2877  0.2720 -0.3242
23253W        W43533  11.281  13.800   0.012  0.0220  0.1341 -0.2500
23254W        W43534  13.831   9.795  13.777  0.1420 -0.2395 -0.2132
23255W        W43535  11.225   1.872  13.109 -0.0530 -0.0083 -0.0560
23256W        W43536  18.591   5.321  12.339  0.0134 -0.1323 -0.1451
23257W        W43537   0.384   6.138   0.522 -0.1844  0.0856 -0.2029
23258W        W43538   4.810   1.937  12.953  0.1184  0.1295 -0.2614
23259W        W43539   1.182  15.334   3.234 -0.1358  0.0550 -0.0383
23260W        W43540  16.173  15.857  11.673 -0.1997  0.0965 -0.2099
23261W        W43541   2.686   2.085  13.779 -0.1516 -0.0897 -0.2102
23262W        W43542   1.359   3.533   9.915 -0.3292 -0.1899  0.0657
23263W        W43543   0.734  17.563  10.280 -0.2921  0.1044  0.3541
23264W        W43544   0.374   6.458  12.568  0.1669 -0.1071  0.0361
23265W        W43545  14.497   6.715  10.772 -0.3020 -0.4161  0.0600
23266W        W43546   2.702  18.114  12.493 -0.0121 -0.0371  0.0700
23267W        W43547  10.283  10.062  11.456 -0.1708 -0.0816 -0.4647
23268W        W43548   7.553  17.666   0.978 -0.0521  0.0586  0.4561
23269W        W43549   9.584   7.879   3.598  0.1709  0.1534  0.0274
23270W        W43550   0.128  18.429   2.415 -0.0604 -0.0125 -0.2347
23271W        W43551   8.390   5.989  11.184  0.0444  0.2682 -0.4014
23272W        W43552   5.864  15.043   0.579  0.2104 -0.1349 -0.1885
23273W        W43553  14.715   6.264  12.038 -0.2922 -0.4800 -0.2121
23274W        W43554  14.535  18.334   1.044  0.1407  0.0099  0.0894
23275W        W43555   3.153   9.201  11.633 -0.1291  0.0686  0.1500
23276W        W43556  14.572  13.706   1.834  0.1918  0.1622  0.1407
23277W        W43557  17.000   5.187  10.580 -0.0969 -0.0858  0.1855
23278W        W43558  13.691  10.694   8.867 -0.0508  0.0449  0.0535
23279W        W43559  14.820   5.866   3.426 -0.1254  0.0928  0.0639
23280W        W43560   9.780   6.187  13.407  0.0902  0.0749 -0.1450
23281W        W43561   2.851  14.792   3.380  0.1264 -0.4042 -0.2070
23282W        W43562   0.168   7.007   0.600  0.2986 -0.0491 -0.1447
23283W        W43563   8.623  18.660  10.985  0.1532  0.4577 -0.2876
23284W        W43564   0.944  14.291   0.057 -0.0128 -0.2745  0.1620
23285W        W43565   9.261   4.557  10.007  0.0069 -0.0236  0.0557
23286W        W43566   3.833  19.139  13.016  0.0502  0.0694 -0.0428
23287W        W43567  12.732   9.226   1.176  0.2137 -0.0263 -0.0526
23288W        W43568  12.933   2.702   0.874 -0.1301  0.2952  0.0755
23289W        W43569  17.700   3.622   2.584  0.0862 -0.0909 -0.0301
23290W        W43570   4.263  16.144   9.478  0.0801  0.4677 -0.1201
23291W        W43571   3.215   0.622   1.914 -0.1468  0.0057  0.1266
23292W        W43572   3.920  13.657   2.587 -0.1540  0.1518  0.0620
23293W        W43573  13.144   1.439   2.988  0.0552 -0.3435  0.0456
23294W        W43574   6.549  11.641  10.806 -0.1925  0.0448  0.2395
23295W        W43575  13.031  16.932   3.186 -0.0018  0.0014 -0.0960
23296W        W43576   6.184  17.900  11.453 -0.1376  0.1106  0.0560
23297W        W43577  19.473  16.675  10.603 -0.2896  0.2676  0.0669
23298W        W43578  13.501   6.955  13.185  0.1500  0.1848 -0.4316
23299W        W43579  13.328   4.184   0.770  0.2028  0.0284 -0.1220
23300W        W43580  10.154   0.131  12.836  0.3555 -0.1081  0.1626
23301W        W43581  10.519  11.408  14.028  0.0985 -0.1024 -0.0328
23302W        W43582  18.307   6.823   1.408 -0.1878 -0.1317  0.0257
23303W        W43583   4.182   5.927   1.648  0.1035 -0.0511  0.3466
23304W        W43584   8.558   3.735   3.644  0.0833 -0.0594 -0.2864
23305W        W43585   4.217  14.862  11.037 -0.4520 -0.2213  0.0331
23306W        W43586  13.283   9.769   4.901  0.1667 -0.1581  0.0646
23307W        W43587   5.745  19.040   1.001 -0.0216  0.2592 -0.0092
23308W        W43588  19.195   6.590  12.862  0.0396  0.0338 -0.2119
23309W        W43589   6.856   5.827   2.958  0.0252  0.0487  0.2892
23310W        W43590  17.753  16.075  11.126  0.3825 -0.3163 -0.0183
23311W        W43591   1.346   1.000  10.961 -0.1108  0.0461  0.1268
23312W        W43592   5.002  13.798  12.209 -0.2130  0.2303 -0.2535
23313W        W43593   3.071   7.627   0.086  0.1069  0.3057 -0.0016
23314W        W43594   3.941  14.086  11.666  0.0676  0.0147 -0.0108
23315W        W43595   0.351   6.103   2.469  0.0454 -0.0541 -0.2367
23316W        W43596  11.505   5.604   0.729 -0.3307 -0.0238 -0.1246
23317W        W43597   9.901  12.442  12.751 -0.1879  0.0157 -0.0779
23318W        W43598  13.981  18.767   0.439 -0.5762  0.1064 -0.0954
23319W        W43599  12.822   9.489   0.760 -0.2303  0.2833  0.0460
23320W        W43600  17.987   6.512   1.257  0.1044 -0.0433  0.0150
23321W        W43601   7.320   3.219   4.872  0.0142  0.1137 -0.1105
23322W        W43602  12.583   9.851  12.098 -0.0969 -0.0712  0.0541
23323W        W43603   3.384  18.500  13.880  0.0888 -0.1910 -0.2425
23324W        W43604   3.069   7.181  13.262  0.1056 -0.0566 -0.2690
23325W        W43605  13.517   5.624   0.786  0.0401 -0.1638  0.2914
23326W        W43606   1.892   4.519   2.111 -0.0190 -0.0065  0.3785
23327W        W43607  17.046   9.449   1.433 -0.0287 -0.1885 -0.0154
23328W        W43608   1.641   5.746   1.859 -0.1999  0.0214  0.1715
23329W        W43609   2.613  11.558   2.035  0.1369  0.1750 -0.1739
23330W        W43610   5.942  15.667   1.901  0.0394 -0.0507 -0.1743
23331W        W43611  16.265  14.033   4.405 -0.1664 -0.0381  0.0523
23332W        W43612  13.648   6.361  11.341 -0.0468  0.1239 -0.1632
23333W        W43613  13.316   5.028  10.443  0.1447  0.1145 -0.0908
23334W        W43614  13.173   7.339   0.314  0.0497  0.1311 -0.0638
23335W        W43615  16.935   2.255  10.215  0.0238 -0.0398  0.0564
23336W        W43616   9.793   6.592  10.605  0.2569 -0.0527 -0.0547
23337W        W43617   7.546   9.235   2.692  0.0362  0.2533  0.1020
23338W        W43618   8.487   2.859   2.938  0.1610  0.0861 -0.2582
23339W        W43619  10.764   9.648  11.290 -0.2664  0.2343 -0.1002
23340W        W43620  16.273  19.649  12.190  0.1387  0.3387  0.1847
23341W        W43621   1.263  10.318  13.509 -0.2626  0.0046  0.0557
23342W        W43622  12.435   6.243   1.363  0.3301 -0.1424  0.1742
23343W        W43623  16.649   1.609  10.281  0.1166 -0.0550  0.1147
23344W        W43624   1.253  16.957  13.253  0.0143  0.1704  0.1511
23345W        W43625   0.538  13.408   5.242  0.2265  0.4216 -0.0858
23346W        W43626  10.530  16.602   0.433 -0.1461 -0.1052  0.0592
23347W        W43627  16.676   5.350  11.789  0.1264 -0.2171  0.1690
23348W        W43628   9.511   3.191   9.993  0.1181  0.2444  0.1241
23349W        W43629  10.649  13.361   0.552 -0.2668 -0.2013  0.0012
23350W        W43630  14.867   6.672  10.357 -0.1386  0.0978 -0.2770
23351W        W43631  12.926   2.215   0.706 -0.1548 -0.1338 -0.4439
23352W        W43632  12.523  15.774  11.857  0.1736 -0.0182  0.0416
23353W        W43633  13.699   4.398   3.165  0.3305  0.2326  0.2106
23354W        W43634   2.545  14.276   1.139  0.2546  0.1859  0.1804
23355W        W43635  16.707  19.719   9.345  0.1437  0.2636  0.1258
23356W        W43636  15.827  17.894   0.891 -0.0282  0.0985 -0.2913
23357W        W43637  18.413  18.679  10.705 -0.2237 -0.0742 -0.1131
23358W        W43638  15.010  15.024   2.265  0.1523 -0.3613 -0.0562
23359W        W43639  16.658  15.703   3.053  0.2955  0.0354  0.1262
23360W        W43640  16.024  13.914  11.793  0.0622 -0.3306  0.1793
23361W        W43641  14.943  11.703   0.441  0.1868  0.1803 -0.0248
23362W        W43642   4.036   0.322   3.334 -0.1809  0.2895  0.1338
23363W        W43643  13.477  10.897  13.713  0.1015 -0.0501  0.2008
23364W        W43644  14.128   2.044   1.248 -0.0616 -0.1827  0.0157
23365W        W43645  12.758   0.767   2.203 -0.0212  0.3421 -0.0314
23366W        W43646   9.817  11.366  10.458 -0.2532  0.0053 -0.2077
23367W        W43647  18.716   4.089   0.875  0.0254 -0.1170  0.0570
23368W        W43648  10.872   5.271   4.126  0.2451 -0.0795  0.0046
23369W        W43649   7.716  12.228   0.659 -0.0724  0.0349 -0.3044
23370W        W43650   6.258  16.883   1.366 -0.0560  0.0302  0.2226
23371W        W43651  16.751  18.958   0.464  0.1500 -0.1976 -0.1173
23372W        W43652   8.039  19.396   9.279 -0.1861 -0.1148  0.1121
23373W        W43653   5.124  10.586  11.458 -0.0872 -0.0813  0.3315
23374W        W43654  19.407   8.992   3.701  0.4124 -0.2085 -0.0212
23375W        W43655  16.392   5.223  13.984  0.2248  0.0467 -0.0502
23376W        W43656   5.588  16.080   1.938 -0.0148 -0.1632 -0.3117
23377W        W43657   0.355  18.275   1.024 -0.0790  0.0827  0.3533
23378W        W43658  11.951  19.159  11.060  0.0563  0.1793 -0.1409
23379W        W43659   1.357  15.633   9.657  0.0021  0.0665 -0.0559
23380W        W43660  10.159   2.172   1.170  0.3790  0.4065  0.0310
23381W        W43661   4.553   8.121  14.057  0.2919 -0.0988  0.1135
23382W        W43662  15.862  12.579  13.856 -0.4067 -0.1423  0.1417
23383W        W43663  17.975   1.292   1.164  0.1129 -0.2475 -0.1741
23384W        W43664   9.347   4.084   3.070 -0.0057 -0.1100  0.0818
23385W        W43665  11.530   4.005   2.023 -0.1189 -0.1926 -0.1062
23386W        W43666  15.782  18.873   1.572 -0.1605  0.2516 -0.0138
23387W        W43667  10.427   0.311   9.187 -0.2454  0.3936 -0.0560
23388W        W43668  13.299  10.472  12.413 -0.2034 -0.2182  0.1522
23389W        W43669   9.940   8.736  10.758  0.1669 -0.0573  0.2656
23390W        W43670  12.246  13.953  13.211  0.1567 -0.0538  0.0034
23391W        W43671   2.038   4.495  12.058  0.0797 -0.1235 -0.1000
23392W        W43672   8.810  10.012  11.911 -0.1320 -0.0792  0.1293
23393W        W43673   3.238   0.473  11.119 -0.1688 -0.2105  0.2143
23394W        W43674  16.050  12.594  12.776  0.0413  0.1549 -0.0440
23395W        W43675   5.856  19.241  10.122  0.0387  0.0208  0.0701
23396W        W43676  14.668   8.133   1.051  0.1743 -0.3280  0.2958
23397W        W43677  15.323   2.112   2.440  0.0968 -0.1100 -0.2443
23398W        W43678   4.097   6.859  13.665 -0.1310  0.2418  0.3853
23399W        W43679   6.302   4.829  12.045  0.0531  0.0566  0.2195
23400W        W43680  16.811   3.039  12.434 -0.5211 -0.0520  0.1487
23401W        W43681   1.049   2.089  13.993  0.2824  0.2230  0.2482
23402W        W43682  12.946   9.099  10.339 -0.0279  0.1773  0.0288
23403W        W43683  12.670   1.904   1.036 -0.2319  0.0037  0.0093
23404W        W43684   3.670   9.699   1.632 -0.0465  0.2165  0.1317
23405W        W43685  19.227  18.601  14.099  0.0173 -0.1403  0.2937
23406W        W43686   4.126   4.604  10.647 -0.3591 -0.3715 -0.3961
23407W        W43687  18.182  11.985  12.965 -0.2168 -0.0780  0.0176
23408W        W43688  15.669   1.289  12.449 -0.2231 -0.0543  0.1799
23409W        W43689   2.783   5.678  13.403  0.0576 -0.0292 -0.0085
23410W        W43690  16.931  18.604   3.105 -0.0185 -0.3058 -0.1739
23411W        W43691  10.800   3.223   0.252  0.2432  0.1998  0.5053
23412W        W43692   9.546  11.395   3.867  0.1478  0.0365  0.1681
23413W        W43693   1.780   1.199   1.933  0.1178 -0.1923  0.2513
23414W        W43694  17.325   1.587   1.710  0.0528 -0.0310 -0.2024
23415W        W43695   2.911  13.005  13.039  0.2323 -0.1698  0.4082
23416W        W43696  16.885   4.664  10.261  0.4373 -0.0210 -0.1208
23417W        W43697   6.503   0.019   1.484 -0.3371 -0.0840 -0.1730
23418W        W43698   3.616  19.149   0.888  0.1145 -0.2130 -0.1989
23419W        W43699  18.146   8.815   2.623  0.1418 -0.0349 -0.2177
23420W        W43700  11.231  16.532  11.343  0.3878  0.0297 -0.1730
23421W        W43701  12.258   8.477   3.264 -0.2338  0.0165  0.2028
23422W        W43702   3.633   9.704  12.692 -0.0808  0.0546 -0.4752
23423W        W43703  17.639   0.486  13.354 -0.0926  0.1172 -0.2920
23424W        W43704   2.789   4.895   1.459 -0.0737  0.0861  0.2297
23425W        W43705   7.978  15.961   2.125  0.2190 -0.0611  0.1162
23426W        W43706  11.640   8.046  13.635  0.2439  0.0765 -0.0808
23427W        W43707   3.959   2.852   0.967  0.1000 -0.1056 -0.0092
23428W        W43708   9.764   5.807   1.853  0.2294  0.0224 -0.0067
23429W        W43709   9.942   3.651  12.854  0.0767  0.0014 -0.2491
23430W        W43710  10.662  17.496   0.596 -0.0252  0.0005  0.1246
23431W        W43711  12.372   5.747   1.337 -0.0317  0.1242  0.1283
23432W        W43712   7.483  18.468   0.190  0.3327 -0.0154  0.0873
23433W        W43713   2.939  12.566   0.249  0.1854  0.0326 -0.0635
23434W        W43714  18.867  15.787   1.454  0.1124 -0.1861  0.1868
23435W        W43715  11.607   4.331   9.905 -0.0830 -0.1151  0.1412
23436W        W43716   1.445   1.660  13.342 -0.1166 -0.0437 -0.2430
23437W        W43717   3.094   9.446   0.753  0.0428 -0.1113  0.0211
23438W        W43718   5.215  13.427   2.179 -0.2047 -0.1854 -0.0014
23439W        W43719  17.952   1.819   2.865  0.0512 -0.1808 -0.2676
23440W        W43720  10.871   7.268  13.069  0.2390 -0.0252 -0.1417
23441W        W43721  13.536   8.309   2.262  0.2436 -0.0849 -0.2884
23442W        W43722  11.386   8.550   1.797 -0.0525 -0.0404  0.2902
23443W        W43723   4.139   6.777  11.122  0.3329 -0.0404  0.1404
23444W        W43724  17.331   8.567  12.836 -0.1117 -0.3876  0.1009
23445W        W43725   2.103   3.787   1.448  0.2972  0.1469  0.0513
23446W        W43726  11.779  11.589   1.154  0.1445  0.0175 -0.1736
23447W        W43727  16.060  18.243  12.427  0.1972 -0.0215 -0.2827
23448W        W43728   1.776  17.100  13.739 -0.0921  0.1106  0.0256
23449W        W43729   5.893   1.300   1.560 -0.1332  0.1025  0.2863
23450W        W43730  11.178   8.217  11.502  0.3370 -0.3427 -0.1176
23451W        W43731  19.689  13.657   1.256  0.1787 -0.0891 -0.2194
23452W        W43732  17.755   3.736  12.973 -0.0937 -0.1278 -0.1725
23453W        W43733   5.858   5.643  13.733 -0.0204  0.1336  0.1000
23454W        W43734   5.677   0.446   9.551  0.1705 -0.1436 -0.1512
23455W        W43735   8.756   3.706  12.942  0.0586 -0.1835 -0.0396
23456W        W43736  19.698   8.387  12.159 -0.0633  0.0997 -0.0858
23457W        W43737   4.799   2.669  10.391 -0.3894 -0.1003 -0.0571
23458W        W43738  12.115  15.045  10.214 -0.0970 -0.0226  0.1062
23459W        W43739   0.318   6.254  11.283  0.1587 -0.0653 -0.1708
23460W        W43740   7.954   7.499  12.062 -0.0821  0.0415 -0.0423
23461W        W43741   2.625   7.019   1.780  0.0110 -0.1171  0.2862
23462W        W43742  13.422   5.443   0.339  0.1126 -0.2641 -0.1256
23463W        W43743  14.226  12.608   0.390 -0.2557 -0.1654 -0.1341
23464W        W43744   6.488  15.545   2.707 -0.0745  0.0388 -0.0079
23465W        W43745  17.326   3.031   0.862 -0.1357 -0.1530  0.0105
23466W        W43746  10.701  15.619  13.048  0.0733  0.2590  0.2310
23467W        W43747   2.360   6.722  12.430  0.3340 -0.1557  0.3835
23468W        W43748  12.474   9.008   2.134 -0.3411 -0.0600 -0.0108
23469W        W43749   3.256  12.244   1.342 -0.7203 -0.2960 -0.1398
23470W        W43750  15.211  14.648  11.564 -0.3655 -0.0352 -0.0490
23471W        W43751  11.041  15.882   0.757  0.0714  0.1238  0.0629
23472W        W43752   0.558   9.106   0.481 -0.1111 -0.1284 -0.1946
23473W        W43753   6.940   1.192  13.342  0.0727 -0.1312 -0.2589
23474W        W43754   9.835   4.745  13.535  0.3280 -0.1917 -0.1990
23475W        W43755   9.733   6.261   1.452  0.0545  0.2183 -0.1075
23476W        W43756  16.707  12.349   1.629 -0.0774  0.2647  0.0488
23477W        W43757  11.722  10.192   3.848 -0.1820  0.2093 -0.0463
23478W        W43758  19.228   1.164  11.109  0.0048 -0.1208  0.2301
23479W        W43759  17.995   0.396  13.688 -0.1119 -0.0722  0.1385
23480W        W43760  15.873   6.157   3.024  0.4843  0.2337 -0.2972
23481W        W43761  16.670  18.045  13.254  0.0962  0.1271 -0.1967
23482W        W43762  11.046   1.019  11.381  0.4556 -0.2779 -0.0082
23483W        W43763  11.132   7.454   0.763  0.0751 -0.0814  0.0587
23484W        W43764  14.348  17.511  11.650 -0.0585 -0.1167 -0.3182
23485W        W43765   7.691  10.473   0.598  0.0756 -0.0036 -0.0206
23486W        W43766  12.940   8.236  13.759 -0.0339 -0.0520 -0.2198
23487W        W43767   9.394  10.155  12.798  0.0357  0.0379 -0.0965
23488W        W43768  10.537   6.909  12.210 -0.0569 -0.1274 -0.0566
23489W        W43769  19.595  18.042  13.496 -0.1189  0.2782 -0.0343
23490W        W43770  18.383   2.463   0.234  0.1612 -0.0901  0.1540
23491W        W43771   3.134  13.874  10.619  0.1309  0.0829  0.0607
23492W        W43772  14.485   2.450  10.468 -0.1575 -0.1616 -0.2218
23493W        W43773  14.730  17.149  11.738  0.1104  0.0386 -0.2058
23494W        W43774   1.668   4.328   0.184 -0.1596 -0.2332 -0.0009
23495W        W43775   3.813   2.599  12.209 -0.2403 -0.1228  0.1791
23496W        W43776   7.656  16.344   1.959 -0.2632 -0.0793 -0.1279
23497W        W43777   6.293  17.754  13.635  0.0304  0.0858  0.0786
23498W        W43778   8.029   5.446   0.010  0.1183 -0.1607  0.0707
23499W        W43779   2.857  18.186  10.609  0.5777 -0.0445 -0.0873
23500W        W43780  15.937  12.289   0.649 -0.1305  0.1184  0.0795
23501W        W43781  15.857  14.844  10.955 -0.0636  0.1078 -0.0945
23502W        W43782  11.957   3.532   3.125  0.0302 -0.1437 -0.0523
23503W        W43783  17.156  18.823   3.628  0.0015  0.0497  0.2295
23504W        W43784   4.975  16.603  13.422 -0.2155 -0.1225 -0.0793
23505W        W43785   2.429  14.470   1.926  0.2229  0.3062 -0.0111
23506W        W43786  18.225   6.002  10.443  0.1941 -0.0290  0.0155
23507W        W43787   0.352   2.183  11.120  0.3238  0.0243 -0.0704
23508W        W43788   1.242   5.092  11.179 -0.0508  0.0509  0.3601
23509W        W43789  13.671  13.178   3.404 -0.0403 -0.0071 -0.0458
23510W        W43790   6.369   4.005   0.378 -0.3210 -0.1774 -0.2477
23511W        W43791   0.339  13.263  11.567 -0.3069  0.3047 -0.3588
23512W        W43792   8.207   8.331   3.651 -0.1048 -0.0257  0.4682
23513W        W43793   6.079  10.595   3.121 -0.0236 -0.0893  0.1396
23514W        W43794  11.602   2.990  12.265  0.0145 -0.1164  0.2326
23515W        W43795  17.762   6.057   3.635  0.3154  0.2351 -0.2964
23516W        W43796   1.389   3.315  12.909  0.1014  0.0074  0.1096
23517W        W43797   3.993   5.134   3.270  0.0692 -0.0410  0.2202
23518W        W43798  10.201   1.886   3.083 -0.2187  0.0327  0.1310
23519W        W43799   4.511  11.857   2.141 -0.1684  0.0278 -0.5084
23520W        W43800   7.668   4.252  10.589  0.1044 -0.3627  0.0970
23521W        W43801   2.309  11.162   0.733  0.1011  0.0251 -0.1123
23522W        W43802   4.031  14.962   9.367 -0.0765  0.0627  0.1864
23523W        W43803   9.591  13.689   0.326  0.2102 -0.3381 -0.4112
23524W        W43804   1.850   4.982   1.334  0.3597  0.3137 -0.3690
23525W        W43805  10.563  19.068  12.652 -0.0737 -0.1267  0.0586
23526W        W43806   5.822  10.296   1.161 -0.3127  0.1135 -0.0264
23527W        W43807   2.184   5.581  10.461  0.0892 -0.1396 -0.0457
23528W        W43808   6.963  12.292  11.545 -0.2318 -0.3196 -0.1187
23529W        W43809  10.149   2.482  10.204 -0.1926 -0.0857  0.0606
23530W        W43810  11.509   8.330  10.985 -0.2871 -0.0210  0.2969
23531W        W43811  19.477   2.539   3.033 -0.0023  0.0924 -0.2774
23532W        W43812  10.002   2.305  12.313 -0.0384 -0.1731  0.5996
23533W        W43813  12.694  14.186  13.638 -0.3409  0.1886  0.4157
23534W        W43814  18.888  17.041  11.185 -0.1116 -0.0806  0.1610
23535W        W43815  13.242  14.376  10.598  0.4808  0.2018  0.0385
23536W        W43816  17.675   0.793  10.615  0.2485  0.1460  0.2571
23537W        W43817  10.179  18.896  11.098 -0.1941  0.2307 -0.0486
23538W        W43818  15.364  12.215   1.110 -0.1188  0.2532 -0.1041
23539W        W43819  13.489  12.835   2.315 -0.0411 -0.0968 -0.3714
23540W        W43820   7.336  13.466   2.514 -0.1358  0.0657  0.0110
23541W        W43821  15.054  17.392  12.034 -0.3543  0.2212  0.0114
23542W        W43822  12.957   5.880  13.891 -0.0883 -0.0545  0.0532
23543W        W43823  16.602  12.418  10.630  0.1063  0.0576 -0.1490
23544W        W43824   6.450   6.089   0.784  0.1505 -0.2837 -0.2222
23545W        W43825  14.884  19.009  12.483  0.3383  0.1041 -0.1984
23546W        W43826   8.814  12.737  12.750 -0.2319  0.0866 -0.0366
23547W        W43827  17.167  19.757  13.860  0.1838  0.5114  0.1404
23548W        W43828   6.652   4.878   1.008  0.0607 -0.0144  0.0887
23549W        W43829   5.825   0.204  12.748  0.2709 -0.2372 -0.0246
23550W        W43830   5.285  16.953   1.772 -0.0386  0.0104 -0.0795
23551W        W43831  10.403  16.516   1.393  0.1904  0.0175 -0.3645
23552W        W43832   6.831  18.045  10.832  0.2892 -0.0799  0.2465
23553W        W43833  16.542   9.531  13.720 -0.2942 -0.1320 -0.1502
23554W        W43834   3.973   8.138  13.498  0.0683  0.0739  0.1286
23555W        W43835  16.004  13.925   0.072 -0.0138 -0.0687  0.3378
23556W        W43836  14.810   8.812   1.023  0.2104 -0.0735 -0.2231
23557W        W43837   4.449   5.959   2.924 -0.0104  0.1267 -0.2265
23558W        W43838   5.017  14.792  11.572  0.2006  0.2437 -0.0636
23559W        W43839   2.716   7.010   4.226  0.1811  0.0100  0.1082
23560W        W43840   5.454   8.792   3.372  0.0184  0.2437  0.2017
23561W        W43841   0.367  15.061  11.589  0.0257  0.1397 -0.0377
23562W        W43842  19.468  12.766  11.287  0.0111 -0.2415  0.1310
23563W        W43843   3.825   3.148   3.352 -0.1724  0.3627 -0.1503
23564W        W43844   0.057  10.598  12.857  0.0302 -0.1928 -0.1324
23565W        W43845   9.258   4.048  13.024 -0.0482  0.1911 -0.1959
23566W        W43846  13.824   9.686   3.395  0.0045 -0.2729 -0.0280
23567W        W43847   9.198   6.889   2.343 -0.3874 -0.1311  0.1507
23568W        W43848  19.638   5.630  13.992  0.0376 -0.2026 -0.1438
23569W        W43849   2.889  18.126   1.719 -0.0800 -0.0787  0.1409
23570W        W43850   7.785   6.128  11.126  0.2945  0.1179  0.0149
23571W        W43851  15.961   6.176   0.653  0.2037 -0.2501 -0.3684
23572W        W43852  16.028   5.232  11.675 -0.1882  0.0982 -0.0370
23573W        W43853   9.822  15.953  13.075  0.2375 -0.0148  0.0241
23574W        W43854  16.082  12.167   1.982 -0.0101 -0.2635 -0.2332
23575W        W43855  16.628  18.787  11.817  0.0107 -0.3297  0.0037
23576W        W43856   4.327  15.094  12.308 -0.0424  0.0009 -0.2685
23577W        W43857  14.818  13.797  12.502 -0.2285 -0.2727  0.0485
23578W        W43858   8.771   0.274  12.191 -0.2175  0.0162 -0.0911
23579W        W43859  19.091  18.182  13.380  0.0511 -0.1294  0.1097
23580W        W43860  16.859  15.786   0.118 -0.2125  0.1166  0.0362
23581W        W43861  16.602   3.903   0.690 -0.0257 -0.0025 -0.0453
23582W        W43862  19.742  10.117   2.532 -0.4108  0.0929  0.0325
23583W        W43863  14.183  17.536  13.097 -0.1048  0.0192  0.5272
23584W        W43864   7.441  17.297  12.717 -0.0578 -0.0100  0.1021
23585W        W43865  14.027  11.992  11.019  0.0135  0.3476 -0.1535
23586W        W43866  19.024   1.109  12.413  0.0017  0.0576  0.1620
23587W        W43867  13.008  17.262   2.599  0.1720  0.0525  0.4822
23588W        W43868   2.862   5.301   1.015 -0.0632  0.2698  0.0051
23589W        W43869   1.987  10.472   3.529  0.0094 -0.0052  0.2937
23590W        W43870   5.773   3.953   3.535 -0.1075 -0.0143  0.2439
23591W        W43871  17.590   0.424   1.367 -0.1391 -0.1610  0.0302
23592W        W43872  10.331  11.099  12.272 -0.3296 -0.0940 -0.0972
23593W        W43873   2.097   9.969  12.130  0.3444  0.2149 -0.2068
23594W        W43874  19.622  13.938   0.571 -0.1310  0.1490 -0.0115
23595W        W43875   9.701   3.851   3.410 -0.2216  0.2109 -0.1038
23596W        W43876  19.135  17.737   0.150  0.0995 -0.3744 -0.1597
23597W        W43877  13.616  18.490   9.239  0.0124  0.0804  0.2299
23598W        W43878  17.670  18.219   1.898 -0.3197 -0.3522 -0.0352
23599W        W43879   7.260  16.218   3.069  0.2640  0.3494  0.2360
23600W        W43880  10.891   0.737  13.177 -0.0121  0.0895 -0.0785
23601W        W43881   6.238  14.919  13.556 -0.1261  0.1861 -0.3351
23602W        W43882  14.872   3.888  13.006  0.0576  0.3610  0.1113
23603W        W43883  14.846  18.913  11.305 -0.0590 -0.2499 -0.1781
23604W        W43884   2.443   2.547   4.038 -0.1820  0.1151  0.0552
23605W        W43885  10.020  15.515   0.951 -0.2173 -0.1679  0.3827
23606W        W43886   4.888   7.418   9.786 -0.0236 -0.0233  0.1600
23607W        W43887  10.613   4.695   0.570  0.3768 -0.1813  0.1457
23608W        W43888   8.587   8.254  13.717  0.1760 -0.0137 -0.1841
23609W        W43889   7.959  12.778  10.066  0.1004 -0.0797  0.0871
23610W        W43890  17.310   7.257   0.605  0.0730  0.1766  0.0358
23611W        W43891  15.849   8.359  11.748 -0.0166  0.1392  0.1251
23612W        W43892  11.390   6.608  11.935 -0.0415  0.2736 -0.0354
23613W        W43893   2.836  18.251   1.249 -0.1691 -0.1559  0.0550
23614W        W43894  14.347   8.568  13.709  0.0924  0.2152  0.1757
23615W        W43895  18.470   1.840  12.898  0.1689  0.0638 -0.0953
23616W        W43896   2.931   4.658   0.519 -0.0156  0.1078 -0.2860
23617W        W43897   7.522   9.685   2.806  0.0836  0.0432 -0.1687
23618W        W43898   9.881  16.722  10.779 -0.0923  0.0414  0.4118
23619W        W43899   3.046  18.214  11.067  0.0356  0.0309  0.2752
23620W        W43900  12.725  15.718  13.727  0.1519 -0.5597  0.1495
23621W        W43901  13.561   8.299  13.191 -0.1468 -0.2457 -0.2185
23622W        W43902   1.106  15.608   0.066 -0.2233  0.0555  0.0179
23623W        W43903   8.428   9.492   0.933  0.1556 -0.1335  0.3933
23624W        W43904   3.020  17.228  10.058 -0.0654  0.2165 -0.2039
23625W        W43905   2.406   9.096  12.979 -0.1536  0.2370  0.1613
23626W        W43906   4.029   8.202   3.421 -0.1494  0.1906 -0.4993
23627W        W43907   6.427  10.132  11.360 -0.1029  0.2675  0.3850
23628W        W43908  17.755   0.137  12.159 -0.1209 -0.1431 -0.1050
23629W        W43909   4.339   9.095   3.965 -0.3209  0.1980 -0.1173
23630W        W43910   1.200  19.484   2.077 -0.0457  0.2226  0.0096
23631W        W43911  17.064   5.601  10.231 -0.2663  0.4124  0.0641
23632W        W43912   0.477  15.592  13.408 -0.1255  0.2298 -0.1742
23633W        W43913   9.242  15.290  11.243 -0.0488 -0.4298 -0.1042
23634W        W43914  13.410   4.551   3.583 -0.0383 -0.1678  0.2444
23635W        W43915  16.174  10.228  12.457  0.0263 -0.1644 -0.0075
23636W        W43916   3.078  19.609   0.027 -0.1156 -0.0499 -0.0347
23637W        W43917  17.885   3.364  13.516 -0.1325 -0.1216 -0.1070
23638W        W43918  10.461  14.048   0.415 -0.2754  0.1174  0.2660
23639W        W43919   7.581  16.893   1.229 -0.3406  0.1904 -0.0224
23640W        W43920   2.245  16.476   3.040 -0.2332  0.3716 -0.0302
23641W        W43921  17.147  16.188  11.989 -0.3828  0.1161 -0.0073
23642W        W43922  17.214   5.406   0.805 -0.0894  0.0869  0.0008
23643W        W43923   7.486  12.032  13.635  0.3353  0.4011  0.2078
23644W        W43924  16.281   6.469   2.844 -0.2471 -0.0308 -0.4076
23645W        W43925   8.793   6.925   1.473 -0.2378  0.0080 -0.0879
23646W        W43926   1.373   5.593  11.082  0.1042 -0.4939 -0.3034
23647W        W43927  16.419   7.602   0.690  0.1093 -0.0110  0.4930
23648W        W43928  14.320   5.967   3.391 -0.3590 -0.0804  0.0748
23649W        W43929  17.397  17.423  13.636  0.1703 -0.1126  0.1343
23650W        W43930   5.244  19.761   1.751 -0.3700  0.3622 -0.3630
23651W        W43931  12.889   6.690  13.871  0.0201  0.2176  0.2172
23652W        W43932  11.523   2.877   3.480 -0.2289  0.1421  0.1672
23653W        W43933  10.230  17.144  13.816 -0.2203 -0.4314 -0.2198
23654W        W43934  16.545   9.852  12.754 -0.2157 -0.0204  0.0110
23655W        W43935   5.382   7.944   1.183  0.0278  0.3053 -0.2436
23656W        W43936  11.860   1.707  12.981 -0.0870  0.1177 -0.1105
23657W        W43937  18.348  19.391  13.167  0.0623  0.1774 -0.0084
23658W        W43938  19.250   5.676   2.610  0.2155  0.4772 -0.0575
23659W        W43939   6.935  18.110  12.745 -0.0030 -0.2594  0.0479
23660W        W43940  12.770   2.887   3.347 -0.1233 -0.1820  0.2682
23661W        W43941   7.015   0.481  14.093  0.2481  0.0238  0.0916
23662W        W43942  16.131   3.698  11.476  0.0214  0.1014 -0.3475
23663W        W43943  18.407  18.903   2.730  0.1548 -0.1519 -0.0089
23664W        W43944   2.880   3.473  10.681 -0.0341 -0.1734 -0.0863
23665W        W43945  11.930  16.231   2.586  0.1961 -0.2539  0.2683
23666W        W43946  14.053  10.007  10.903 -0.1457 -0.3709  0.2206
23667W        W43947   7.918   2.281  10.048 -0.2795  0.4350 -0.1488
23668W        W43948  18.150   4.714   0.696  0.0756  0.1932  0.1321
23669W        W43949   5.998   7.290   1.707 -0.0330  0.3028 -0.1492
23670W        W43950   7.558  17.361   2.315  0.0378  0.0059  0.4998
23671W        W43951  10.616   7.915  13.935 -0.1196 -0.0317  0.0535
23672W        W43952  19.525   2.766   3.492  0.2323  0.0962 -0.2449
23673W        W43953   7.364  12.899  10.495 -0.0892  0.0416 -0.1218
23674W        W43954  19.144   5.508   0.300  0.0686 -0.0238  0.2188
23675W        W43955   4.340  13.242  12.609  0.0671  0.0238  0.1491
23676W        W43956  14.160   2.352   0.185  0.0202 -0.2055 -0.3006
23677W        W43957   3.338   6.285  11.240  0.1307 -0.0249 -0.0882
23678W        W43958  15.123  15.513   2.288  0.1131  0.0994 -0.1902
23679W        W43959   0.533   5.009   1.957  0.3451 -0.0194 -0.0142
23680W        W43960   4.675  13.940  11.887 -0.1870  0.2979  0.0119
23681W        W43961  18.778  12.807   2.086 -0.1520  0.0611 -0.0014
23682W        W43962   1.231  11.363   2.116 -0.0463  0.0858  0.1673
23683W        W43963   3.867   3.367   1.031 -0.0650  0.2038 -0.3373
23684W        W43964  10.631  16.077  12.839  0.4315 -0.1309  0.0104
23685W        W43965  12.937  16.719  12.210 -0.1916  0.1916  0.1201
23686W        W43966  14.087   2.947  11.136 -0.0885 -0.0363  0.2543
23687W        W43967  12.426  10.272   1.756  0.0112 -0.0984 -0.2149
23688W        W43968   5.462  12.303   1.168  0.0592  0.0031  0.2929
23689W        W43969   3.621  10.881   9.645  0.2069  0.3861 -0.0187
23690W        W43970  14.826   8.944   1.693  0.1595  0.0434  0.0698
23691W        W43971  11.735  17.667   0.668  0.2328 -0.2271  0.0447
23692W        W43972   2.850  14.353   3.174  0.0635  0.0002  0.3134
23693W        W43973  17.304   4.900  13.344 -0.3318  0.0543 -0.1300
23694W        W43974   4.366   2.445   0.029 -0.1924 -0.1723  0.0237
23695W        W43975   3.839  14.928  11.353 -0.3105  0.1701  0.0885
23696W        W43976   4.599  14.374   3.176  0.2285 -0.2428 -0.1144
23697W        W43977   1.450  10.790  13.092 -0.0445 -0.0647  0.0216
23698W        W43978  14.805  11.502   2.147  0.1219  0.3170 -0.3258
23699W        W43979  19.650   7.882  10.497 -0.1423 -0.0945  0.1733
23700W        W43980   1.700   9.325  13.753  0.4539 -0.1478 -0.1947
23701W        W43981   9.132  15.799   4.008  0.1302  0.1915 -0.0670
23702W        W43982  15.909  14.385   3.678  0.0892  0.0862  0.0516
23703W        W43983   4.647   9.389   3.535  0.1735 -0.0052  0.1524
23704W        W43984   7.147  17.372   2.653 -0.1178 -0.0857  0.0187
23705W        W43985   1.319   4.508   4.767  0.1020 -0.0127 -0.1539
23706W        W43986   8.901  16.349  11.426 -0.1915 -0.0876 -0.1763
23707W        W43987   4.045  18.505  12.435  0.3526 -0.0275  0.0013
23708W        W43988  19.563  12.946  10.721  0.3945 -0.2143  0.1720
23709W        W43989  17.962  15.882   0.382 -0.1018 -0.2818  0.0495
23710W        W43990   5.709  14.195  12.496 -0.1138  0.2218  0.2360
23711W        W43991  17.872   8.226  10.741  0.0169 -0.0247 -0.0696
23712W        W43992  18.935   9.146  14.037 -0.2806  0.3135  0.0923
23713W        W43993   2.996  17.681  11.318  0.2459 -0.0890 -0.2714
23714W        W43994  17.977   2.004  12.102  0.0031  0.1912 -0.1058
23715W        W43995   3.099  13.303  10.529  0.1628  0.0907 -0.1102
23716W        W43996  12.984   0.222   0.954  0.3885 -0.0731 -0.1425
23717W        W43997  11.884  16.574  13.247  0.2248 -0.0126 -0.3119
23718W        W43998  15.910   2.196  14.025  0.1058  0.0258 -0.1494
23719W        W43999   9.303   1.672   1.926  0.3670  0.3092 -0.0813
23720W        W44000   5.969  18.769  10.976  0.1925  0.2747  0.2800
23721W        W44001   0.900  18.755  11.600  0.1407  0.3068 -0.1074
23722W        W44002   5.941   4.111   1.132  0.2821  0.0377  0.1017
23723W        W44003  17.690  10.951  13.618  0.1869  0.0530 -0.3499
23724W        W44004  13.862   6.598   2.598  0.0124 -0.1459  0.0205
23725W        W44005   6.228   9.871  13.967 -0.3106 -0.0988  0.0319
23726W        W44006   1.169  11.367  10.651 -0.0671 -0.1480 -0.1205
23727W        W44007  16.634  12.519   0.137 -0.1701 -0.1085 -0.2950
23728W        W44008  11.856   3.798   1.686 -0.3297  0.2672 -0.1020
23729W        W44009  11.264   6.522   0.405  0.1710 -0.0410 -0.0416
23730W        W44010   5.628  11.374  12.931 -0.0200  0.2859  0.3429
23731W        W44011  16.131   6.748   0.706 -0.0943  0.0630 -0.2017
23732W        W44012  17.389   1.062   1.788  0.1027 -0.2168  0.1918
23733W        W44013  14.534   2.393   2.803 -0.2873 -0.1532  0.3032
23734W        W44014  14.871  15.381  11.047 -0.1286 -0.1427  0.0940
23735W        W44015  10.998  10.571   1.080  0.0704 -0.0638  0.2325
23736W        W44016  15.169   2.980   1.274 -0.2093 -0.2552 -0.0822
23737W        W44017  13.308  16.565  10.635  0.1019 -0.3545  0.0248
23738W        W44018   5.428  12.910   3.303  0.4827 -0.2034  0.0430
23739W        W44019   7.602   5.543   3.128  0.0137  0.0198 -0.0164
23740W        W44020  10.498   2.156   2.702 -0.0428 -0.4324  0.1860
23741W        W44021   4.763   2.334   1.958  0.0395 -0.2673  0.3047
23742W        W44022   4.263   0.252  13.195  0.1018 -0.2701 -0.7388
23743W        W44023  16.979  17.504  11.578  0.1942 -0.3411  0.3958
23744W        W44024   2.290   0.078  12.026  0.2028  0.0147 -0.0852
23745W        W44025   6.604  11.686  12.011 -0.2166 -0.1691 -0.3597
23746W        W44026   7.759   6.835   0.581  0.0377 -0.1549  0.0892
23747W        W44027  15.197   9.059  12.724  0.2516 -0.1014 -0.2385
23748W        W44028   0.727   4.853   3.719 -0.1832 -0.4320  0.0591
23749W        W44029  11.311  16.127   3.269 -0.1819 -0.1873  0.1632
23750W        W44030   4.828   7.360   3.822 -0.0892 -0.0362 -0.1561
23751W        W44031   7.057   5.387  13.951  0.0688  0.2266  0.3114
23752W        W44032  10.153  11.824  14.010 -0.0910  0.1007 -0.3050
23753W        W44033   4.407   2.055  12.758 -0.0799  0.0427  0.2941
23754W        W44034   9.568  13.171  13.314 -0.0328  0.1600 -0.2581
23755W        W44035   5.115   6.939   3.815 -0.1726 -0.0188  0.1152
23756W        W44036   5.961  15.812   0.595 -0.0691  0.0849 -0.2286
23757W        W44037   4.259  10.812   3.812 -0.3445  0.1473 -0.1367
23758W        W44038   6.653  12.204  11.934  0.2635  0.3749  0.0058
23759W        W44039  16.374   5.687   1.550  0.0796  0.0627 -0.0354
23760W        W44040  12.109   6.381   0.989  0.0262 -0.0426  0.5294
23761W        W44041  13.189   0.391   2.226 -0.1067 -0.0322 -0.3069
23762W        W44042   4.007   9.227  11.038  0.0707  0.1941 -0.0423
23763W        W44043   7.565   9.522   1.250 -0.2326 -0.0992  0.1266
23764W        W44044   3.572   8.762   3.383  0.1457 -0.1010 -0.0776
23765W        W44045  15.610  17.418   2.292  0.1296 -0.0075 -0.1419
23766W        W44046  16.857  17.442   1.156  0.2820  0.0638  0.1559
23767W        W44047  10.730   8.767   1.192 -0.1299  0.1559 -0.3713
23768W        W44048  17.699   4.793   0.371 -0.0081  0.0580  0.1409
23769W        W44049  11.608   1.718  10.860 -0.1136  0.0678  0.0736
23770W        W44050  16.947   6.850   3.094 -0.2047 -0.2829 -0.0877
23771W        W44051   0.670   2.919   0.261  0.4426 -0.1490 -0.1808
23772W        W44052  16.991  17.641   2.264 -0.1935 -0.2321  0.1636
23773W        W44053   5.053  11.413  11.996 -0.0016  0.1099  0.0308
23774W        W44054  13.337   0.322  13.948  0.1532 -0.0936  0.1235
23775W        W44055   0.366  12.254   3.203  0.2556 -0.1437 -0.3455
23776W        W44056  12.910   3.704  10.804  0.0736 -0.1829 -0.2126
23777W        W44057   6.132   0.992   3.006 -0.1031 -0.0520  0.5089
23778W        W44058  18.293   0.986   2.424 -0.0379  0.0989  0.2109
23779W        W44059  19.659   9.971   1.574 -0.3691 -0.0277  0.2725
23780W        W44060   7.139   4.382  11.320  0.2073 -0.0260  0.0110
23781W        W44061  13.641  13.718   2.716  0.2054  0.1441 -0.0664
23782W        W44062   0.285   4.190   2.963 -0.1605  0.2000  0.1025
23783W        W44063   1.044  13.487   3.947 -0.1313  0.0794 -0.0617
23784W        W44064  17.903  18.225   0.887 -0.2291 -0.0116 -0.0269
23785W        W44065  14.179   4.220   1.432  0.0700 -0.1467  0.0181
23786W        W44066  18.428  18.167  10.860 -0.0812 -0.1457  0.2354
23787W        W44067  10.838  13.265   2.043  0.0480  0.0752 -0.1480
23788W        W44068   7.645   6.114   0.748  0.1018  0.1181 -0.2435
23789W        W44069  10.479  18.572  12.295  0.1332 -0.3197  0.0483
23790W        W44070  15.220  19.405  13.286  0.0698 -0.1632  0.0939
23791W        W44071  15.572   0.064  14.088 -0.0501  0.0947 -0.1251
23792W        W44072   8.673   6.988   3.682 -0.0479 -0.0973 -0.2276
23793W        W44073   6.502   2.662   3.927  0.1602  0.0713  0.0949
23794W        W44074   0.985   4.921   0.132 -0.1229 -0.0376 -0.0493
23795W        W44075   9.465   2.831   2.574 -0.0048  0.5412  0.2567
23796W        W44076   6.756  17.213   1.880 -0.0301 -0.0050 -0.2104
23797W        W44077   6.935   5.248   1.269 -0.0263 -0.1673 -0.0794
23798W        W44078   9.851   7.574  13.008  0.1390 -0.1040 -0.1587
23799W        W44079  11.317   5.652   3.049  0.1011  0.1219  0.1593
23800W        W44080  13.220  19.477  11.288  0.1619  0.0426  0.0265
23801W        W44081   7.636   3.528   0.270 -0.2152 -0.0281 -0.1487
23802W        W44082  10.882   1.395   0.705  0.1817 -0.0158 -0.1703
23803W        W44083  14.979   1.167  11.558  0.1161  0.0378  0.0238
23804W        W44084  11.429  15.514  13.947  0.1079  0.0720  0.3126
23805W        W44085  15.020  11.338  11.667 -0.1518 -0.0102  0.0811
23806W        W44086   3.506   6.589   4.127 -0.1578 -0.2080  0.0427
23807W        W44087   0.114   2.749   2.699  0.1542  0.1680 -0.0223
23808W        W44088   1.916  14.213   2.681 -0.1325 -0.1130 -0.3147
23809W        W44089   9.539  12.835   2.154 -0.2112  0.0117 -0.0220
23810W        W44090   2.457   6.995  12.832 -0.2163  0.1709  0.2703
23811W        W44091  13.357   2.859   1.969 -0.0158  0.1048 -0.0960
23812W        W44092  10.110  17.717  13.430 -0.1145 -0.1733  0.4889
23813W        W44093  12.070  15.099  11.301 -0.0626 -0.0894  0.1931
23814W        W44094  14.134   8.966  12.075 -0.0238 -0.0323  0.1942
23815W        W44095  18.815  17.069  12.208 -0.2648 -0.0456  0.0454
23816W        W44096  14.428  10.739   4.873  0.1419 -0.1238 -0.1340
23817W        W44097  10.757   5.974   0.496 -0.2367 -0.1005  0.1746
23818W        W44098  10.199  19.415   0.352  0.1323 -0.0953  0.0514
23819W        W44099  14.989   9.416   1.719  0.1144 -0.0804 -0.1596
23820W        W44100  10.455  17.486  13.175 -0.1801 -0.2150 -0.2023
23821W        W44101  17.180  11.665  10.871 -0.3536  0.3450 -0.0514
23822W        W44102   3.411  10.863  10.672  0.1050 -0.1066 -0.2987
23823W        W44103  13.016   1.514   0.253  0.1741 -0.1424  0.2262
23824W        W44104  14.304   2.138   9.482  0.0585  0.2790  0.5504
23825W        W44105  13.397   9.995   5.291 -0.0315  0.0417 -0.2275
23826W        W44106  10.061  10.312  10.421 -0.0205  0.0281  0.1360
23827W        W44107  19.160  15.870  11.720 -0.0775 -0.1558  0.2117
23828W        W44108   8.711   9.245   0.332  0.0861  0.0740 -0.3359
23829W        W44109   0.345   4.131   2.493  0.0197 -0.0683 -0.0735
23830W        W44110  12.298   4.545  13.297 -0.5145 -0.0682 -0.0579
23831W        W44111  17.638  18.758  14.055 -0.1232  0.1199  0.1419
23832W        W44112   8.554   7.411   3.924  0.0098  0.0722  0.3450
23833W        W44113  16.938  15.269  12.053  0.1575 -0.1277 -0.1388
23834W        W44114   4.910  19.098   0.483  0.1391 -0.2831 -0.1776
23835W        W44115  15.207  10.532  12.204  0.2548 -0.2230  0.0284
23836W        W44116   3.973  14.098  13.003 -0.2470 -0.0536  0.0338
23837W        W44117   9.173   0.083  10.273  0.0999  0.1325  0.0609
23838W        W44118  19.005   9.016   0.406 -0.1759 -0.0521 -0.0212
23839W        W44119  13.870  11.940  11.981 -0.2524  0.2337 -0.0317
23840W        W44120  12.611  18.054   3.372  0.0156  0.0291 -0.0487
23841W        W44121   5.367  11.170   2.435 -0.0907 -0.1278 -0.1871
23842W        W44122   7.815   9.370   2.311 -0.1767  0.0935  0.0306
23843W        W44123   5.746   9.873  14.033  0.0551 -0.0899  0.2673
23844W        W44124  12.408   9.893  13.300 -0.2295 -0.1071 -0.1535
23845W        W44125   7.980  12.220  10.948 -0.5775  0.2181 -0.1400
23846W        W44126   9.154   1.577  13.950 -0.1779 -0.3022 -0.1797
23847W        W44127   8.299  14.847  12.324  0.2023 -0.0886 -0.2892
23848W        W44128  18.406  13.682  13.896 -0.0762 -0.0432  0.0528
23849W        W44129  14.797   4.798   3.322 -0.1732  0.1526 -0.0469
23850W        W44130  17.619   7.925  12.532  0.0495 -0.2279 -0.0741
23851W        W44131  18.618   1.460  12.299  0.0859 -0.0747  0.0011
23852W        W44132  12.082  16.465   2.223 -0.0696 -0.1152 -0.1419
23853W        W44133   6.889  16.352   0.376 -0.3189  0.0507 -0.1204
23854W        W44134  13.905   6.152  13.626  0.1269  0.1064 -0.0802
23855W        W44135   2.415  15.429   3.751  0.1205  0.0477  0.0359
23856W        W44136  17.365   0.104  13.436  0.0945  0.1955  0.0630
23857W        W44137   7.741  12.620  13.682  0.0868 -0.1488 -0.0862
23858W        W44138  19.248  11.196   0.544 -0.0157 -0.1422 -0.1801
23859W        W44139  14.734   0.228  12.349 -0.3005  0.1914  0.3887
23860W        W44140  12.461   0.414   2.284 -0.1001 -0.0764 -0.1966
23861W        W44141   8.830  13.163  11.302 -0.2390 -0.0678 -0.5099
23862W        W44142  14.392  13.878   3.090  0.0183  0.1787 -0.1480
23863W        W44143   0.481   9.850   2.328 -0.0005 -0.0318  0.3246
23864W        W44144   9.877  18.675   0.281 -0.2218 -0.2520 -0.1524
23865W        W44145  11.327  12.900   2.178 -0.0509 -0.2840  0.1392
23866W        W44146   7.231  13.722  13.729  0.0752  0.1747 -0.0202
23867W        W44147   6.436   8.309   1.111 -0.2847 -0.0621 -0.1069
23868W        W44148   0.938   1.440   2.244  0.2108  0.0039  0.1133
23869W        W44149   1.129   0.159   1.807 -0.1346 -0.2521 -0.1305
23870W        W44150  15.169   1.436   0.637 -0.0799  0.3470 -0.0355
23871W        W44151   5.931   6.567  13.460  0.1038  0.0971 -0.5639
23872W        W44152   5.170  10.092  14.023  0.0728  0.1933 -0.0350
23873W        W44153  17.922  11.270   2.086 -0.0818  0.2998 -0.0755
23874W        W44154   9.649   8.072  13.202  0.0283  0.1788 -0.0622
23875W        W44155   7.223  13.452  10.421 -0.0490  0.0967  0.0848
23876W        W44156   9.939  10.811  10.839  0.1383 -0.1185 -0.1251
23877W        W44157  17.526  18.029  11.162 -0.0067  0.3801  0.0753
23878W        W44158   7.881  11.464   4.671  0.0565  0.1083  0.1080
23879W        W44159  10.914   8.343  14.033 -0.4142 -0.1043 -0.1368
23880W        W44160   3.021   5.565  10.134  0.0950 -0.0089 -0.1800
23881W        W44161  10.746   3.634  13.645 -0.1321  0.0238 -0.2582
23882W        W44162   9.748   8.231   4.046  0.0554 -0.1985 -0.0217
23883W        W44163   5.709  16.517   4.049 -0.0144 -0.0361 -0.0316
23884W        W44164   2.774  18.078   3.159 -0.1024 -0.3009  0.3459
23885W        W44165  16.882  11.990  12.805  0.1940 -0.0603 -0.2035
23886W        W44166   6.492  18.422  10.394  0.1378  0.0447 -0.2936
23887W        W44167   6.173  12.069   4.307  0.2276  0.0914 -0.4551
23888W        W44168  15.434   6.473  11.545  0.3076  0.1850 -0.1347
23889W        W44169   3.790  19.711   3.199 -0.1042  0.1974 -0.1477
23890W        W44170   7.751   0.553   1.391 -0.0137 -0.0279  0.4098
23891W        W44171  12.679  16.352   1.970 -0.0879 -0.1498 -0.3886
23892W        W44172  16.162  19.736   1.916  0.2157 -0.0729 -0.0252
23893W        W44173   1.887  16.428   2.649 -0.2716 -0.0666  0.1467
23894W        W44174  16.268   6.279   2.246 -0.3721 -0.0074 -0.0734
23895W        W44175  13.955   0.632   0.552 -0.2138 -0.1371  0.1454
23896W        W44176   7.609   8.290   3.048  0.0816  0.0807 -0.0011
23897W        W44177  17.745  11.927   4.695  0.1677 -0.0792 -0.1315
23898W        W44178   1.938  15.428   1.904 -0.0363  0.0601 -0.0021
23899W        W44179   2.256   1.023  13.047 -0.0095 -0.2227  0.0247
23900W        W44180  16.284  18.313  10.485 -0.3693 -0.0388 -0.1823
23901W        W44181   5.476  12.995   4.614 -0.1957  0.0493  0.0233
23902W        W44182  15.859   0.357  10.115  0.1874 -0.1693 -0.0622
23903W        W44183   0.288  15.299   0.150 -0.0168  0.1785  0.2173
23904W        W44184  15.364  17.239   1.817  0.1656  0.2247  0.1465
23905W        W44185   6.389   8.971   3.056  0.0884  0.0724  0.0738
23906W        W44186   3.844  18.234   4.031  0.1142 -0.0811 -0.0164
23907W        W44187   5.176  17.569   0.920 -0.0527 -0.1491  0.2748
23908W        W44188  12.244   7.472   3.785 -0.2602  0.1317 -0.1138
23909W        W44189   1.659   3.659  13.159  0.0331 -0.0529  0.5348
23910W        W44190  11.894  15.328   1.343 -0.1162 -0.0699 -0.1029
23911W        W44191  12.663   4.729   2.354  0.3058 -0.0046 -0.0284
23912W        W44192   2.790   9.266   2.780  0.1246  0.0965  0.1825
23913W        W44193  18.074  14.101  11.010 -0.2078 -0.0026 -0.0933
23914W        W44194  12.337  13.098  11.695  0.0998  0.1747  0.0667
23915W        W44195   5.417  17.914  13.880  0.1745  0.0763  0.0013
23916W        W44196   7.341   7.452   1.985 -0.1667  0.2380  0.2840
23917W        W44197   1.530  15.977  12.462  0.3580 -0.1155  0.1436
23918W        W44198   5.979  11.030   1.543 -0.0187  0.0603 -0.1805
23919W        W44199  18.803  17.309   0.150  0.1546 -0.1065  0.1793
23920W        W44200   8.685  15.452  10.535 -0.3188  0.0925  0.0527
23921W        W44201  17.585   5.362   2.022 -0.0390 -0.0225  0.1485
23922W        W44202   9.171  11.897   3.038 -0.0791 -0.0784 -0.0554
23923W        W44203   2.342  14.030  11.536 -0.0341  0.2909 -0.2219
23924W        W44204   7.996   1.233  12.773 -0.2538 -0.0933  0.3428
23925W        W44205   5.250  16.552   2.143  0.0358  0.4050 -0.3202
23926W        W44206   5.447  14.203  12.062 -0.5335 -0.2095 -0.3415
23927W        W44207  13.804   1.216   1.225 -0.2285  0.2674 -0.3629
23928W        W44208   6.438   8.093  12.254 -0.1500  0.0449 -0.0871
23929W        W44209   3.556  18.810   1.613  0.0892 -0.1362  0.1580
23930W        W44210   7.429   7.086   2.310 -0.0664 -0.0996  0.2579
23931W        W44211   1.157  12.540  12.030  0.2034 -0.0108  0.2421
23932W        W44212  18.398   0.754   3.343 -0.0117  0.2474  0.0977
23933W        W44213   8.026  17.881   3.021 -0.1267 -0.0242  0.2061
23934W        W44214  18.819  18.180   0.152 -0.2059 -0.2237 -0.4325
23935W        W44215   2.157  17.106  13.366 -0.1437  0.0248  0.1596
23936W        W44216  17.195  11.108  14.096  0.0694 -0.1713  0.1953
23937W        W44217   3.303  17.186   1.584  0.1609  0.0008  0.1684
23938W        W44218  19.017  15.245   1.332 -0.0498 -0.0727  0.4219
23939W        W44219  10.729   4.026  13.300 -0.0563 -0.0485 -0.0539
23940W        W44220  15.266  14.688   1.067 -0.2675  0.0081 -0.3005
23941W        W44221   5.305  19.475  12.427 -0.2933 -0.1363  0.0934
23942W        W44222  15.585   4.063  12.503 -0.0246  0.0516 -0.1019
23943W        W44223  19.027  16.567  12.327  0.3771 -0.2716 -0.0700
23944W        W44224  17.263  10.767   1.496  0.2030 -0.5206 -0.1212
23945W        W44225   9.283  12.193   1.435 -0.1653 -0.1022 -0.0484
23946W        W44226  17.548   0.815  11.100 -0.3055 -0.1987 -0.4787
23947W        W44227  18.219  17.994   3.548 -0.1045 -0.0638  0.0881
23948W        W44228   4.893   2.465  13.157  0.0078  0.0673 -0.0779
23949W        W44229   1.111   2.796   2.832  0.0009  0.1465  0.0691
23950W        W44230   3.967  17.485   2.399 -0.0559  0.0918  0.1464
23951W        W44231  17.600   0.616   0.362 -0.0440 -0.1744 -0.3544
23952W        W44232   0.604  17.986  12.696  0.2720  0.1474 -0.2557
23953W        W44233  14.410   8.470   9.053 -0.0395 -0.2710 -0.4589
23954W        W44234   1.735   3.113   2.035  0.1596  0.0138  0.2348
23955W        W44235  17.536   7.764  13.941  0.0431  0.1815 -0.0800
23956W        W44236   5.002   8.965  13.135  0.0660 -0.1210  0.3771
23957W        W44237  11.295  10.143   2.137  0.2711 -0.4811  0.1846
23958W        W44238  15.456  13.757   0.851 -0.1023  0.1740 -0.1919
23959W        W44239  13.633   4.013   0.370 -0.0909 -0.1854 -0.3299
23960W        W44240   3.218   5.906  10.474  0.3256 -0.1334 -0.2165
23961W        W44241  17.741  11.076   3.372  0.1405 -0.0217 -0.0463
23962W        W44242   7.458  17.565  11.522 -0.1018  0.1456 -0.0322
23963W        W44243  14.268   1.374   2.000  0.1540 -0.0097 -0.0260
23964W        W44244   4.996  16.381   3.432 -0.1330  0.3010 -0.1648
23965W        W44245   8.690  19.598  12.776 -0.0898 -0.0403 -0.0248
23966W        W44246   9.847   5.530  14.073 -0.0047  0.1022 -0.1723
23967W        W44247   9.870   0.715   3.341  0.0003 -0.2448 -0.1709
23968W        W44248   8.880  15.383  12.436  0.0278 -0.0089 -0.1555
23969W        W44249   0.672  16.298  12.866 -0.2363  0.3307  0.1269
23970W        W44250   5.009  18.054   1.914  0.1878  0.2283 -0.3419
23971W        W44251   6.500   4.178   1.099  0.1015  0.2077  0.2471
23972W        W44252   0.353  15.423   2.786 -0.2896  0.0523 -0.1968
23973W        W44253   5.343   4.389   2.874  0.1724  0.0228 -0.2538
23974W        W44254   5.335  14.013   1.389 -0.2410 -0.0999  0.0074
23975W        W44255   9.029   3.221  13.692 -0.0850 -0.0680 -0.1535
23976W        W44256  18.813  15.560  11.573  0.1655  0.2323 -0.0974
23977W        W44257   9.937   1.319   3.160  0.0201 -0.0388 -0.1659
23978W        W44258   4.614  19.207  10.972  0.0760 -0.1898  0.1494
23979W        W44259  10.891   9.170   0.792  0.1187 -0.0033 -0.0241
23980W        W44260  15.332   3.305  10.619  0.4318  0.0172 -0.0042
23981W        W44261  15.331   8.365   9.776  0.1891 -0.1768 -0.0947
23982W        W44262  12.604  14.646  13.371 -0.2490 -0.2215 -0.1169
23983W        W44263  16.993   0.706   2.496 -0.1851 -0.0722  0.0262
23984W        W44264   0.769   0.181  13.283 -0.0642  0.2523  0.5200
23985W        W44265   2.060   5.957   2.533  0.0797  0.2901 -0.0095
23986W        W44266  11.474  15.115   1.171 -0.0957  0.2163  0.1095
23987W        W44267  17.860  17.064  13.482 -0.1803  0.0631  0.0498
23988W        W44268   6.412   9.907   3.328  0.0605  0.1298 -0.0302
23989W        W44269  11.458   1.701   1.195  0.1441  0.4484  0.1786
23990W        W44270   6.892   6.827   2.764 -0.3386 -0.1017  0.4207
23991W        W44271  10.155   5.031   0.047  0.1196  0.2228 -0.0037
23992W        W44272   5.150   2.842  12.887 -0.3419 -0.0366  0.3536
23993W        W44273   7.231  11.688   1.305 -0.2782  0.0693  0.0640
23994W        W44274  19.441   7.041  12.178  0.2304 -0.0493  0.1937
23995W        W44275   5.983   4.650  12.473  0.2431  0.0706  0.2231
23996W        W44276   6.019   5.849   2.696  0.1182  0.4771  0.1482
23997W        W44277   3.173   7.400  12.758 -0.0548  0.2302 -0.2022
23998W        W44278  15.637  13.167   2.038  0.1692  0.0033 -0.1830
23999W        W44279   0.781   8.015  13.076 -0.0568  0.1677  0.1063
24000W        W44280   2.714   2.374   1.312 -0.2454  0.0546  0.0412
24001W        W44281   4.407   3.606  13.078  0.0941  0.0264  0.0316
24002W        W44282   9.376  17.880   0.152 -0.2058 -0.0897 -0.1073
24003W        W44283  14.325   5.621  12.756 -0.0339  0.1504  0.0667
24004W        W44284   7.040  12.750   3.714  0.2897  0.0011 -0.0246
24005W        W44285   1.432  14.664  13.221  0.0946 -0.1954 -0.0785
24006W        W44286  16.236  18.802   0.265  0.0966 -0.0661  0.1442
24007W        W44287  16.690  16.518  12.035 -0.0949  0.1856 -0.0365
24008W        W44288   9.754  18.347  11.672 -0.1360 -0.1120 -0.1607
24009W        W44289  18.476  16.119   2.854  0.3215  0.2172  0.1123
24010W        W44290   6.481   6.905   9.919 -0.0409 -0.0699 -0.0150
24011W        W44291  11.167   7.569   9.319  0.1369  0.2702  0.2068
24012W        W44292   8.972  17.574  10.150  0.3007 -0.0128  0.0583
24013W        W44293   5.180  16.183   0.686  0.1201 -0.1012  0.3628
24014W        W44294  19.663   4.018  13.013 -0.1259 -0.1545  0.0955
24015W        W44295   3.362  17.462  12.798 -0.3481  0.1027  0.1444
24016W        W44296  17.408   0.926   0.910 -0.0821 -0.0894 -0.1552
24017W        W44297   8.549   2.071  13.470  0.1597 -0.1528 -0.0652
24018W        W44298   2.389  15.091   0.260 -0.0790 -0.1888 -0.0382
24019W        W44299  14.775   7.564   3.065  0.0731  0.1015  0.2338
24020W        W44300   8.352  13.604  13.207  0.1252  0.0473  0.2167
24021W        W44301  11.651   7.005   0.362  0.0428  0.0287 -0.0642
24022W        W44302  13.442  15.040   3.494 -0.1598  0.0309  0.2983
24023W        W44303   8.179  18.634  11.921 -0.1372  0.0381  0.0525
24024W        W44304   1.632   9.672   0.475 -0.1056 -0.3106 -0.2376
24025W        W44305   1.234  10.190   3.502 -0.3325  0.3585 -0.0396
24026W        W44306   8.064   7.795   0.629 -0.0732 -0.1325  0.4484
24027W        W44307   5.249  17.248  14.027 -0.0097 -0.2808 -0.5691
24028W        W44308   6.677  10.159   3.799 -0.0168 -0.2083  0.4746
24029W        W44309  11.519  14.472  12.526  0.1580 -0.0496 -0.0408
24030W        W44310   4.896  11.185   0.759 -0.0875 -0.2216  0.0189
24031W        W44311  16.623  16.151  13.383  0.0438  0.0257  0.2755
24032W        W44312   3.755   9.290   3.332 -0.2502  0.0625  0.2510
24033W        W44313  13.846  15.876  12.326 -0.1509  0.2304  0.1322
24034W        W44314   9.824  16.280   3.585 -0.1748 -0.1668 -0.2797
24035W        W44315  17.434  12.602  11.739 -0.3144  0.1503 -0.0720
24036W        W44316  10.570  18.058   1.217  0.0005  0.0904 -0.1781
24037W        W44317  12.774  15.099   1.260 -0.1066  0.0792 -0.0545
24038W        W44318   3.792   6.266   9.918  0.2069 -0.3177  0.2134
24039W        W44319  14.946   3.903   3.738 -0.1122 -0.3060 -0.0890
24040W        W44320   7.135  14.132   4.164 -0.0872  0.0348  0.0418
24041W        W44321  16.548  15.997  11.009  0.0514 -0.1591 -0.4177
24042W        W44322   3.313   8.076   0.152  0.0543  0.2456 -0.0442
24043W        W44323  15.612   0.523   3.281 -0.1098 -0.1986 -0.0818
24044W        W44324   7.097  15.635  11.796 -0.4157 -0.0922  0.1603
24045W        W44325   3.063  11.679   0.703  0.1778 -0.1619  0.0980
24046W        W44326   7.946  13.416  12.914  0.1783 -0.0250 -0.0282
24047W        W44327  14.830  10.833   3.407 -0.0187  0.1466  0.0259
24048W        W44328  13.226  13.644  13.937 -0.3789 -0.1514 -0.0680
24049W        W44329   8.486   3.828  10.308 -0.0407 -0.3513 -0.1292
24050W        W44330   6.997  18.508  10.602  0.1577 -0.3136 -0.4608
24051W        W44331  10.019  11.368  12.718  0.1350  0.0777  0.0169
24052W        W44332   0.856   2.841   3.758  0.1323 -0.0928  0.1930
24053W        W44333  15.342   4.401  10.028  0.0596 -0.2536 -0.3555
24054W        W44334   3.420   7.489  13.797 -0.0955  0.0015  0.1737
24055W        W44335   0.783  17.922   0.739  0.4345  0.1302 -0.3563
24056W        W44336   9.966   8.060  12.693  0.1213  0.0317  0.3890
24057W        W44337  14.191  18.645   2.429  0.0453 -0.1796 -0.0687
24058W        W44338  19.290   0.715  12.698 -0.0316  0.0429 -0.0088
24059W        W44339  13.418  12.044   3.789 -0.3664  0.1664 -0.1018
24060W        W44340   3.612   3.159   1.741  0.1909  0.1371  0.2359
24061W        W44341  17.455   6.908   4.634 -0.0719  0.0240 -0.4469
24062W        W44342   2.395   3.716   4.102 -0.0110 -0.0306  0.0256
24063W        W44343   6.503   1.961  13.230  0.2731 -0.2096 -0.1360
24064W        W44344  16.901   5.094   3.923  0.4228  0.2312  0.2226
24065W        W44345  14.244  11.238   1.386 -0.0726  0.1477  0.0784
24066W        W44346  15.491   2.583   2.403 -0.2619  0.0461  0.3333
24067W        W44347  14.158   6.280  11.116  0.0949 -0.1151  0.0013
24068W        W44348  13.893   3.618  13.797  0.0847 -0.1997 -0.3766
24069W        W44349  19.463   7.906  11.968 -0.4386  0.1006  0.0081
24070W        W44350   1.334  15.415   1.863  0.0762 -0.0994  0.1078
24071W        W44351   7.956   2.865   1.851 -0.0709 -0.1956 -0.1611
24072W        W44352   8.681  15.548   0.576 -0.2334 -0.1820 -0.0578
24073W        W44353  11.227   5.183  14.060 -0.1214  0.0643  0.1140
24074W        W44354   6.508   2.462   9.070 -0.3976 -0.2220  0.1914
24075W        W44355  10.684   0.248   1.158  0.1368  0.2168  0.2831
24076W        W44356  18.314   5.329  13.424 -0.0365  0.2625  0.1446
24077W        W44357   6.991   6.105  12.733 -0.0576  0.0800 -0.2605
24078W        W44358  11.656  14.493  13.137 -0.0051  0.1599  0.3006
24079W        W44359   7.932  17.957   2.037 -0.1257 -0.0314 -0.3807
24080W        W44360  13.786   6.718  13.981 -0.1077 -0.0460 -0.0390
24081W        W44361   5.579  10.792   9.295  0.4826 -0.1283  0.2817
24082W        W44362   6.616   9.096  12.759 -0.3586 -0.0612 -0.0593
24083W        W44363   5.933   6.954   0.653  0.0546 -0.2934  0.2355
24084W        W44364   6.634  19.102   9.888  0.1406 -0.3258 -0.2773
24085W        W44365   9.994   6.334   2.457 -0.0378  0.0606 -0.0513
24086W        W44366   9.975  14.101   0.624  0.0521  0.1738 -0.4736
24087W        W44367  10.041  10.512  11.629 -0.1871  0.0248  0.0077
24088W        W44368   4.038  16.009   2.495  0.1570  0.1876  0.2461
24089W        W44369  13.139   1.712   0.696 -0.1504 -0.1291  0.0090
24090W        W44370   6.892   1.416   4.641  0.3360  0.0894 -0.0214
24091W        W44371  17.178   0.705  13.519  0.1914  0.1040 -0.0368
24092W        W44372   6.016   7.354  13.576  0.1934 -0.2163 -0.1245
24093W        W44373  11.735  15.421  12.056 -0.0571 -0.2052  0.0555
24094W        W44374   9.973  12.378   0.033  0.0551  0.0940  0.0967
24095W        W44375  10.506   3.277  12.097  0.0634 -0.0639  0.0601
24096W        W44376  16.746   1.023  12.467  0.1159 -0.3188  0.2395
24097W        W44377  12.198   3.186   1.012 -0.1007  0.2666  0.0124
24098W        W44378   7.716  18.738   2.726 -0.2468  0.0136 -0.3011
24099W        W44379  11.026  10.093   4.357  0.1229 -0.1911  0.0039
24100W        W44380   2.138  16.988   2.061 -0.2348  0.3616 -0.0437
24101W        W44381   2.469  12.144   4.348 -0.1226 -0.0517  0.2333
24102W        W44382   7.974   6.753  13.128 -0.4748 -0.2810 -0.0617
24103W        W44383   7.610   4.364   3.574  0.0719  0.5937  0.1721
24104W        W44384   5.831   6.097   1.128  0.3508 -0.3312  0.0075
24105W        W44385   3.828  13.737   4.046 -0.0368 -0.0925 -0.1123
24106W        W44386  14.473   6.250  10.501 -0.1613  0.2278  0.0168
24107W        W44387   0.809  12.297   9.278 -0.0311 -0.2079  0.0041
24108W        W44388   3.089   3.619  13.333 -0.2378 -0.1108  0.0809
24109W        W44389  17.329  14.173   9.184 -0.2350 -0.1437 -0.0179
24110W        W44390   6.027  14.380   9.465  0.3788  0.2524 -0.1041
24111W        W44391  19.728  14.796  12.501 -0.1574  0.4456  0.0464
24112W        W44392  14.989  14.764   3.888  0.0225 -0.0919  0.2858
24113W        W44393  12.777  11.402  13.664  0.1758 -0.0901 -0.0404
24114W        W44394  19.096  11.713   2.717  0.0710  0.0774  0.0063
24115W        W44395  10.905  10.828  13.293  0.0429 -0.3804  0.1024
24116W        W44396   7.246   2.455  13.827 -0.0184 -0.0099 -0.0720
24117W        W44397   5.203  12.584  11.045 -0.2175 -0.2119  0.1493
24118W        W44398   4.331   0.046  12.755 -0.1481 -0.0407  0.1004
24119W        W44399  14.288   5.877  10.756  0.3552 -0.0668 -0.0496
24120W        W44400  15.063   8.627   1.966  0.3335 -0.1121 -0.0056
24121W        W44401  11.564  15.043  11.312  0.0722 -0.2105  0.0795
24122W        W44402  12.530  14.546   2.832 -0.0110  0.0442  0.0836
24123W        W44403   3.841   8.133  11.265 -0.5086 -0.2084 -0.0131
24124W        W44404  13.317   2.524  14.065 -0.0691 -0.0370  0.2009
24125W        W44405  11.004   1.886  12.589  0.0084  0.1774 -0.0066
24126W        W44406  11.445   1.550  12.736 -0.0481  0.1963  0.0483
24127W        W44407   0.857   9.194   1.439  0.2275 -0.1472 -0.2790
24128W        W44408  13.058   3.345  10.483  0.1974 -0.0287  0.0189
24129W        W44409  17.388  13.566  12.890 -0.0706 -0.1325  0.2175
24130W        W44410  17.859  17.091   1.998 -0.3454 -0.0246 -0.1293
24131W        W44411   3.160   9.901  11.141 -0.3054 -0.1542 -0.4038
24132W        W44412   2.159   0.611   9.403  0.0300  0.0686  0.0646
24133W        W44413   5.804   7.215  12.285 -0.1712  0.0813 -0.0189
24134W        W44414   0.346  16.797   2.353  0.0029 -0.1758  0.0466
24135W        W44415   6.843   8.729   2.245  0.0726  0.2868 -0.2901
24136W        W44416   7.711  17.939   3.413 -0.0340 -0.1410  0.0873
24137W        W44417   6.098  11.437  10.868  0.0311  0.1427  0.0002
24138W        W44418  13.691   6.719   2.057 -0.3219 -0.1581 -0.0384
24139W        W44419   6.361   2.840  11.280 -0.0329 -0.4501  0.1378
24140W        W44420   3.873   1.414  11.649  0.0721  0.1584  0.3808
24141W        W44421  12.748  18.225  12.582  0.2851  0.0540  0.2944
24142W        W44422   1.745   9.846   2.763 -0.0361  0.1447  0.2156
24143W        W44423  12.929   2.144  12.478 -0.1088 -0.2189  0.2345
24144W        W44424   8.784   9.512   3.888 -0.2137 -0.0467 -0.0498
24145W        W44425  16.593   1.932   0.499  0.0266 -0.1829 -0.0272
24146W        W44426  10.526  17.169   3.191  0.0384 -0.0945  0.0118
24147W        W44427   6.804  13.431  13.901  0.0409  0.1945  0.2025
24148W        W44428  11.965  18.849  12.635  0.0051 -0.2482 -0.2350
24149W        W44429  15.675  19.704   1.583 -0.0574 -0.0672 -0.1028
24150W        W44430   7.846   7.028  11.368 -0.0632  0.0024  0.0319
24151W        W44431  11.521   1.490  13.312  0.0364  0.1231  0.1193
24152W        W44432  10.962   1.799   0.158 -0.4499 -0.0750 -0.0731
24153W        W44433   5.544   3.265   1.141 -0.0637 -0.1323  0.2552
24154W        W44434  19.384  13.999  10.696  0.1645 -0.2235  0.0253
24155W        W44435   0.441   1.203   4.058 -0.0347  0.1130 -0.2967
24156W        W44436   4.087   6.818   4.032 -0.0570 -0.3478 -0.0724
24157W        W44437   8.738  16.142   3.978 -0.1418 -0.3189  0.0221
24158W        W44438  16.665  11.671  10.843 -0.2444  0.4181  0.3821
24159W        W44439  18.552   2.042  11.031  0.3766  0.0099  0.3070
24160W        W44440   4.877   5.068   2.923  0.1771  0.0543 -0.2154
24161W        W44441  16.647  10.411   3.932 -0.0548  0.0999  0.0844
24162W        W44442   6.556  11.465   2.015  0.2251  0.1861 -0.1689
24163W        W44443   2.991   6.827   3.807  0.1674  0.3497  0.3135
24164W        W44444   5.160  16.676  10.355 -0.1485 -0.3488 -0.0149
24165W        W44445   9.888   5.071  10.139 -0.3501  0.3801  0.0877
24166W        W44446  13.309  11.155  13.290 -0.0305 -0.0006  0.2076
24167W        W44447   0.583   9.554  12.739  0.0442  0.2291  0.2596
24168W        W44448   1.185   2.348  11.404  0.0278  0.0301  0.2419
24169W        W44449   7.650  15.525   1.956  0.0268 -0.3151 -0.0817
24170W        W44450  17.808   3.228  12.648  0.2222 -0.2089  0.3991
24171W        W44451   7.405  17.033   0.031 -0.4002 -0.0891 -0.2332
24172W        W44452  12.497   8.435  11.963 -0.4002  0.2130 -0.0494
24173W        W44453   0.540   5.733   3.121  0.1284  0.2653  0.3097
24174W        W44454  11.325  17.633   0.365 -0.3699 -0.0335  0.0456
24175W        W44455   3.607   2.605   2.755  0.0107 -0.1950  0.3333
24176W        W44456   3.166   1.590  10.537  0.0546  0.1286 -0.0216
24177W        W44457  13.750   4.411  12.839 -0.0174 -0.0866 -0.1146
24178W        W44458  12.640  18.486  14.015 -0.2375  0.1464 -0.0876
24179W        W44459  16.922   3.703  12.986 -0.2050 -0.0393 -0.2866
24180W        W44460   9.014  10.598  11.333 -0.0401 -0.2047  0.1422
24181W        W44461  14.760  11.702  11.076  0.1425  0.1724 -0.1674
24182W        W44462  10.091   7.296   2.627 -0.0740 -0.2571 -0.0284
24183W        W44463  14.945   2.073   0.378  0.0240  0.0745  0.2128
24184W        W44464  15.030   7.942   3.328 -0.2499 -0.0407 -0.1447
24185W        W44465   5.511  16.490   0.323 -0.1704 -0.3132  0.2826
24186W        W44466   3.654  12.895   2.243 -0.1432  0.0736  0.1340
24187W        W44467   0.931   5.466  14.058 -0.1852  0.2283  0.1538
24188W        W44468   4.383  16.354   4.085  0.0302  0.0277 -0.1785
24189W        W44469   5.825  17.736  10.112  0.1780  0.2751  0.0682
24190W        W44470  15.884   0.434  13.574  0.3687 -0.0126  0.1416
24191W        W44471  11.660  19.189   0.063 -0.2065  0.1872  0.0061
24192W        W44472  14.948   0.761   1.635  0.0866 -0.3374  0.0755
24193W        W44473   6.359   5.537   3.004  0.2575  0.0741  0.0462
24194W        W44474   2.099  16.448   2.184  0.1382 -0.1749  0.0297
24195W        W44475  14.440  12.207  10.818  0.0749 -0.1605 -0.1692
24196W        W44476  14.079   1.433  13.551 -0.0510  0.4314  0.2346
24197W        W44477  13.223  15.510  13.860 -0.3989 -0.0237  0.1096
24198W        W44478  11.593  16.171   9.937 -0.1964 -0.1061 -0.1338
24199W        W44479   4.521   5.025   0.140  0.0728 -0.1525  0.0782
24200W        W44480   1.619  14.537  11.551 -0.2204  0.1179  0.0024
24201W        W44481  14.369  14.080  11.473 -0.2839  0.1274 -0.0404
24202W        W44482   7.120  19.613  12.633  0.0362 -0.0122  0.1927
24203W        W44483   8.167  12.469   0.558 -0.1087 -0.0179 -0.4533
24204W        W44484  15.504   2.922   1.958 -0.0261  0.1352 -0.1923
24205W        W44485  16.020   5.365   2.257 -0.0903 -0.1657  0.2105
24206W        W44486   0.086  16.580   1.874  0.2151  0.0892  0.1209
24207W        W44487   2.926   6.888  12.103 -0.1330 -0.1264  0.2871
24208W        W44488   8.713  15.251   3.608 -0.0169 -0.1093  0.2870
24209W        W44489  17.556   3.805   0.319 -0.2720 -0.0105 -0.0889
24210W        W44490  14.467  11.570   3.829  0.3576 -0.1871  0.4301
24211W        W44491  12.284   2.664  11.886 -0.0338  0.0904 -0.1439
24212W        W44492  19.384   1.602  12.327  0.2418  0.1465 -0.0928
24213W        W44493   1.836  10.978  10.153  0.4161 -0.0556  0.0298
24214W        W44494   1.753   1.488  10.721  0.3826  0.1871 -0.1374
24215W        W44495   4.091  15.320  11.957  0.0494  0.0951  0.0811
24216W        W44496  11.155   2.613   3.636  0.2923 -0.0728  0.2026
24217W        W44497   6.672   9.251   0.676 -0.0728 -0.1898  0.0524
24218W        W44498  17.791  10.544  13.837  0.1492  0.2188 -0.1992
24219W        W44499  18.413   7.580  11.052  0.0633  0.2306  0.0565
24220W        W44500   5.900  16.530   1.230 -0.3443  0.0065  0.0554
24221W        W44501  14.078   4.401  13.239 -0.0256  0.1771  0.1952
24222W        W44502  14.302  18.974   1.210  0.1923 -0.2499 -0.0666
24223W        W44503  18.961  10.992  10.767  0.0597 -0.3068  0.2186
24224W        W44504   0.562  11.892   1.066  0.1080 -0.1719  0.1245
24225W        W44505  14.720   7.269   3.487 -0.0747 -0.0421 -0.3452
24226W        W44506  19.578  15.939   3.011  0.0151 -0.0052 -0.0366
24227W        W44507  12.839   8.908   0.125 -0.2301 -0.0890 -0.3338
24228W        W44508  18.670   9.991  10.518  0.2689 -0.1403  0.1665
24229W        W44509   4.940  10.164  11.585  0.0145 -0.0005 -0.0435
24230W        W44510   3.810  19.201   1.385  0.0709  0.2485  0.1438
24231W        W44511  14.796  16.164  12.567  0.3327 -0.0524  0.0730
24232W        W44512   8.622   4.104  11.632  0.0443  0.0400  0.0428
24233W        W44513   5.828   0.893  14.023 -0.1805  0.0929 -0.1414
24234W        W44514   7.597   4.364  12.814  0.1056  0.1225  0.0464
24235W        W44515  12.580  19.014   1.289  0.0093  0.0101  0.3997
24236W        W44516   4.851  11.134   2.526  0.2095  0.2591 -0.3859
24237W        W44517  17.173  16.445   1.988  0.0938  0.0443  0.1463
24238W        W44518   0.168  16.741  13.737 -0.1790 -0.1928 -0.2951
24239W        W44519   2.174   3.921  13.060 -0.0854  0.0352  0.3347
24240W        W44520   0.208   7.235   2.607 -0.0691  0.1313  0.1320
24241W        W44521  13.210   6.305   9.984  0.0170 -0.1718  0.1656
24242W        W44522  16.324  17.770  12.533 -0.1147  0.0563  0.0515
24243W        W44523  14.272  16.264  10.381 -0.0403  0.0739  0.0885
24244W        W44524  19.411  13.785  11.183 -0.1723  0.0327  0.0519
24245W        W44525   0.851  17.121  10.607 -0.0661  0.3091 -0.0379
24246W        W44526   4.377  13.373   0.395 -0.0706 -0.0193 -0.1603
24247W        W44527  12.749  14.749   2.406 -0.0296  0.1837  0.1283
24248W        W44528  16.519  13.034   3.781  0.0510 -0.0446 -0.4466
24249W        W44529   9.164   6.110   1.207 -0.1976  0.2422  0.2690
24250W        W44530   7.762   7.791   2.936 -0.1338 -0.0519  0.1823
24251W        W44531   8.103  16.889   1.164  0.0324 -0.0615  0.0459
24252W        W44532  17.943   1.765   1.304 -0.2436  0.0621  0.1697
24253W        W44533  10.445   3.941  11.467 -0.0247  0.3456  0.3986
24254W        W44534  12.208   3.165  11.328 -0.0085 -0.1105  0.2596
24255W        W44535  19.594   8.270   2.588  0.4296  0.0799 -0.0871
24256W        W44536   3.827   9.288  11.572  0.1742 -0.4324 -0.0943
24257W        W44537  17.488   6.423  14.097 -0.1004 -0.0589  0.3367
24258W        W44538  12.223   5.774  11.195 -0.2204 -0.3410  0.1985
24259W        W44539   9.473  19.231   1.147  0.0906  0.4274  0.0950
24260W        W44540   3.253  15.646  12.257 -0.1935  0.1104 -0.0568
24261W        W44541  10.307   2.695   1.398 -0.0928  0.2876 -0.4229
24262W        W44542  15.202   1.956   3.830 -0.0176 -0.2664 -0.4180
24263W        W44543  10.778  10.304  12.650 -0.0668  0.0781  0.0494
24264W        W44544   8.743   3.272   3.007  0.4108 -0.1577  0.0646
24265W        W44545  14.178   8.934  11.080 -0.0501  0.1745  0.2077
24266W        W44546  11.095   4.641   0.841 -0.0658  0.3674 -0.0287
24267W        W44547   7.710  12.308  12.754 -0.2080 -0.1311 -0.2803
24268W        W44548   5.295   1.065  12.612 -0.0126 -0.1945 -0.2076
24269W        W44549   6.076  18.737   0.709  0.2396  0.0721 -0.2958
24270W        W44550   2.468   7.492   1.541  0.1298 -0.0313 -0.2681
24271W        W44551   2.294   0.610  12.459 -0.0677  0.2772 -0.1125
24272W        W44552   8.386   8.182   2.138 -0.2144  0.1691 -0.0803
24273W        W44553  18.583   1.016  12.153 -0.1163  0.0135 -0.0406
24274W        W44554  12.946  13.350   0.112 -0.0919  0.1626 -0.1105
24275W        W44555  16.391   7.620   3.314 -0.1174  0.2810 -0.0484
24276W        W44556   9.810  10.862  10.359 -0.0971  0.2625  0.0124
24277W        W44557  14.166  15.186   0.745 -0.0910  0.1249  0.1361
24278W        W44558   6.003  11.367  13.281 -0.3283 -0.0072  0.0148
24279W        W44559   9.097  15.448   1.468 -0.0505  0.1519  0.2493
24280W        W44560  13.237   0.357  12.565  0.0127 -0.0061 -0.0639
24281W        W44561  11.902  16.925   1.965 -0.0008  0.0564  0.0345
24282W        W44562  12.938  12.688  11.629  0.0814 -0.1086  0.0493
24283W        W44563   6.274  11.916   2.217 -0.2533  0.1270  0.1006
24284W        W44564  12.097   5.374  11.535  0.1649  0.0038  0.1177
24285W        W44565   9.846  17.467  13.832  0.3727 -0.0879 -0.0061
24286W        W44566   6.439   2.940  11.955  0.1093  0.1253 -0.0959
24287W        W44567  16.403   2.293   3.328  0.0906 -0.1446  0.1041
24288W        W44568  14.416  18.953  12.453  0.1865  0.1892  0.0432
24289W        W44569  10.643   2.818   0.660 -0.1693  0.1620 -0.1146
24290W        W44570   6.401   7.558   2.072  0.4572  0.1064 -0.0134
24291W        W44571   7.766  14.780  12.294  0.1157 -0.3486 -0.1451
24292W        W44572  19.244  17.639  12.456  0.0410 -0.2262  0.2350
24293W        W44573  12.417   6.139   3.315 -0.2828  0.1753 -0.2593
24294W        W44574   4.096   1.857   2.468 -0.1878  0.2591  0.0048
24295W        W44575   0.503   6.872  12.251  0.2019 -0.0716  0.1119
24296W        W44576   2.347  14.652   0.917  0.1336 -0.1399  0.0013
24297W        W44577   1.504   2.878   0.864  0.4118 -0.2915  0.0241
24298W        W44578   4.247  11.125  13.251 -0.1381  0.3773  0.1841
24299W        W44579   8.937   0.646  13.964 -0.1433 -0.1811  0.3094
24300W        W44580   8.612   4.918  13.563 -0.0596 -0.2342  0.1013
24301W        W44581   6.795  13.370   2.357 -0.1782 -0.1673  0.2790
24302W        W44582   4.661  14.089  12.436  0.1700  0.1882  0.0938
24303W        W44583  10.369  10.449   2.565 -0.1782 -0.0557 -0.1983
24304W        W44584  19.052  10.065  10.920 -0.0940  0.0150 -0.2611
24305W        W44585   9.777   1.701   1.016  0.4156  0.1797  0.2730
24306W        W44586  12.152   8.461   1.088  0.1251 -0.0774 -0.2705
24307W        W44587   7.986  13.964   5.003 -0.1063  0.0093 -0.1477
24308W        W44588  16.893  14.133  12.489 -0.2275 -0.0049 -0.1136
24309W        W44589  16.276  19.715  10.729  0.2033  0.0358  0.1625
24310W        W44590  19.756  18.880   2.482  0.2075  0.0619 -0.4362
24311W        W44591  10.465  15.631   2.271 -0.0954  0.0051 -0.2253
24312W        W44592  14.146  10.835   2.400  0.0708 -0.4323  0.3777
24313W        W44593   3.123  11.128  11.954 -0.0419 -0.1362 -0.1028
24314W        W44594   1.243   2.488   2.154  0.2898  0.2307  0.2144
24315W        W44595   2.863  10.239   0.904  0.2761  0.0169 -0.0293
24316W        W44596   9.174  16.328   3.412  0.2739 -0.1389  0.5336
24317W        W44597  15.368  17.617  11.625 -0.3554 -0.1667  0.0211
24318W        W44598  16.999  19.153  12.908  0.0344  0.2489 -0.2912
24319W        W44599   3.576   0.341   2.120 -0.2299  0.1332  0.1489
24320W        W44600  10.104   7.745  11.817  0.2969 -0.1193  0.0157
24321W        W44601  15.762   0.645  12.339 -0.0911  0.1432  0.0805
24322W        W44602   3.912  12.052  13.284 -0.1042  0.0355  0.0975
24323W        W44603   1.527  11.692  12.828 -0.0316  0.0681  0.0528
24324W        W44604  11.625   0.849  11.626 -0.1816 -0.4116  0.2564
24325W        W44605  11.936  13.124   0.504  0.3117 -0.0026 -0.2650
24326W        W44606   9.123   4.016   0.124 -0.0041  0.0676 -0.0094
24327W        W44607  17.897  14.241   1.761 -0.1963 -0.0026 -0.4621
24328W        W44608  16.683  15.400   1.087  0.3535 -0.3365 -0.0840
24329W        W44609  18.710  15.042   1.017 -0.3711 -0.1173 -0.1277
24330W        W44610   3.662   7.503   2.754  0.1263 -0.0232  0.2563
24331W        W44611  17.363   9.986   1.933 -0.2706  0.0088  0.1803
24332W        W44612  17.693  12.735  10.941  0.0591  0.1673 -0.0534
24333W        W44613  15.190  15.502  12.041  0.2742 -0.1868 -0.0889
24334W        W44614  15.599   8.051   0.535 -0.3096 -0.1081  0.0642
24335W        W44615   9.342   4.972  11.260 -0.1047  0.2560  0.1040
24336W        W44616   6.217  10.525  13.184  0.0092  0.0633  0.0371
24337W        W44617   3.621  19.647  12.244  0.0736 -0.3415 -0.0416
24338W        W44618   2.808  11.536   3.077  0.1666  0.1442  0.2306
24339W        W44619   1.403   0.261   1.432  0.0434  0.1443 -0.2040
24340W        W44620  16.841  15.029  12.637 -0.2088  0.0355 -0.1108
24341W        W44621   8.048  13.534   1.033  0.0347 -0.1779  0.2227
24342W        W44622   3.085  10.615   1.185 -0.0207  0.0290 -0.0872
24343W        W44623  15.707  14.483  11.349 -0.1176  0.1187  0.1050
24344W        W44624  17.209   6.691  10.891  0.0033  0.0969  0.2982
24345W        W44625   4.901   1.188  10.717 -0.0266  0.0776 -0.0487
24346W        W44626   3.647  17.987   1.171 -0.3019 -0.1354  0.2909
24347W        W44627  13.110  10.798   0.066  0.2012 -0.1431  0.1865
24348W        W44628  12.889   8.542  11.656  0.2784 -0.0006 -0.2742
24349W        W44629   9.110   8.386  10.931 -0.0242  0.3216 -0.0035
24350W        W44630   2.547   6.785  11.761  0.2439 -0.0022  0.0534
24351W        W44631  11.227  17.039  13.605  0.1875 -0.1868 -0.4235
24352W        W44632   2.836  12.826   3.824 -0.2089  0.1893  0.2089
24353W        W44633  10.973   9.739  13.112  0.2078  0.0058  0.0850
24354W        W44634   7.309   6.535   0.607  0.0912  0.0126 -0.4373
24355W        W44635   1.674   0.808  13.887  0.0141 -0.1002 -0.3667
24356W        W44636  12.295  14.159   3.150  0.0435 -0.0559 -0.0347
24357W        W44637   7.132  14.909  11.662 -0.1765  0.1255  0.1639
24358W        W44638   5.574   7.785   2.606 -0.0200  0.0979  0.1784
24359W        W44639   2.071  18.047  12.869  0.1048  0.1209 -0.0520
24360W        W44640   7.861  19.625  13.273  0.0276  0.1131 -0.0444
24361W        W44641  14.763   8.546  13.456 -0.0275  0.1684  0.1094
24362W        W44642   5.189   0.458   1.707  0.2314 -0.0247  0.1674
24363W        W44643   3.390  11.791   1.499  0.1878  0.0138 -0.2217
24364W        W44644  14.908  11.635   3.576  0.0933  0.2427  0.0392
24365W        W44645  10.270  10.732   3.652  0.0692  0.0391 -0.0387
24366W        W44646  12.353  10.302   1.249  0.2137  0.1670  0.0683
24367W        W44647  16.268   4.739   3.241 -0.3156 -0.2157 -0.1858
24368W        W44648   7.507  15.548  12.298  0.0310  0.0817 -0.1360
24369W        W44649   0.374   2.181   3.224 -0.0495 -0.0325 -0.2581
24370W        W44650   7.168  15.333   0.651  0.1378 -0.0981  0.1908
24371W        W44651  17.966   6.851  11.701 -0.3738  0.0440  0.3517
24372W        W44652   1.330  14.103   3.241 -0.1717 -0.0091  0.1610
24373W        W44653  13.286  10.227   1.222 -0.3674  0.0382 -0.0796
24374W        W44654   7.812  17.513   1.884 -0.3063 -0.0125 -0.0725
24375W        W44655   9.251  17.835  13.316 -0.1743 -0.0405 -0.0162
24376W        W44656  12.552   9.955  12.752  0.1267 -0.1630  0.2477
24377W        W44657  10.206  17.042   2.637 -0.0727 -0.1613  0.1813
24378W        W44658   3.061   9.089  13.383 -0.0776 -0.2399 -0.0012
24379W        W44659   4.223  17.132   3.178  0.0675  0.2999  0.3211
24380W        W44660   8.345   4.219   2.902  0.1089  0.1362 -0.2831
24381W        W44661   5.862   2.634  13.795 -0.3245 -0.1957 -0.1536
24382W        W44662  13.607  15.607  10.410  0.2270  0.1046 -0.0222
24383W        W44663  15.202   0.459  11.008  0.1293  0.0290  0.3042
24384W        W44664  15.247   0.724   1.243  0.0500  0.0820  0.1411
24385W        W44665   9.150  17.521   3.804  0.1671 -0.4642 -0.0195
24386W        W44666   3.648   5.575   4.002 -0.4105 -0.1814 -0.0531
24387W        W44667   8.609   3.678   4.686 -0.1647 -0.0463 -0.2719
24388W        W44668   9.499   2.414   2.872  0.3419 -0.1096  0.1647
24389W        W44669  10.788  19.153   3.310  0.2102  0.1247  0.1109
24390W        W44670   6.309   7.843  11.179  0.0503 -0.1685  0.1347
24391W        W44671   6.230   9.211  10.558  0.0659 -0.2055 -0.2203
24392W        W44672   3.481  13.839   3.735 -0.0073  0.0815  0.4547
24393W        W44673  15.779  14.726   3.376  0.0837  0.0127 -0.0248
24394W        W44674  16.571  16.523   0.749 -0.0194  0.0712 -0.0318
24395W        W44675   9.499   2.472   1.595 -0.2020 -0.0436 -0.1225
24396W        W44676   9.227   3.118   0.825  0.1463  0.2790  0.5501
24397W        W44677   5.590   8.412   2.375  0.2424 -0.1241 -0.0647
24398W        W44678   3.031  16.557   2.936 -0.1721  0.1203 -0.2146
24399W        W44679  15.822  17.081   2.922 -0.1943  0.2650  0.1731
24400W        W44680  14.721  16.793   0.458  0.0447 -0.0461 -0.0033
24401W        W44681   9.092  15.556  13.284 -0.1815  0.1907  0.1729
24402W        W44682  11.863   9.100   3.098 -0.0461 -0.3438 -0.2859
24403W        W44683  12.171  13.558  12.900 -0.0621 -0.1046  0.3576
24404W        W44684  17.389  16.186   2.887  0.2768 -0.0272 -0.0893
24405W        W44685   0.210  14.621  13.750 -0.3018  0.2072 -0.3491
24406W        W44686   1.074   0.515  13.550 -0.2030 -0.4459 -0.1624
24407W        W44687   0.463  11.819   2.098  0.1053 -0.0486  0.0778
24408W        W44688   0.644  12.002   0.196 -0.0386 -0.4975 -0.1339
24409W        W44689   6.508   6.340  10.984 -0.2189 -0.2631  0.3974
24410W        W44690  13.633  18.493  13.640  0.0175  0.1241  0.0695
24411W        W44691  16.872   2.384   1.254  0.2053 -0.4351 -0.0022
24412W        W44692   8.624  13.119   1.649 -0.3506  0.0438  0.0017
24413W        W44693   0.067   3.766   2.272 -0.0931  0.1040 -0.0711
24414W        W44694   0.177  14.573  11.087 -0.0136 -0.0550  0.0915
24415W        W44695   9.345   5.830   0.742  0.0267  0.0990 -0.0252
24416W        W44696   2.466   5.705   2.704  0.1998 -0.1553  0.0261
24417W        W44697  13.020   3.081   0.534  0.1671 -0.0022  0.3025
24418W        W44698  19.463  16.137   3.943  0.2028 -0.0666  0.1372
24419W        W44699   2.805  19.320   0.503  0.0113 -0.4515 -0.2500
24420W        W44700  18.191   0.270  13.268 -0.2346  0.3438 -0.0900
24421W        W44701  11.953  14.802  12.827  0.0313 -0.0947  0.1066
24422W        W44702  11.382  18.769   2.042  0.4253 -0.2707  0.1960
24423W        W44703   3.461  16.828   0.098  0.0072  0.0324 -0.0706
24424W        W44704   2.553  16.093   3.073  0.2257  0.1985 -0.2127
24425W        W44705   4.792  13.211   1.910  0.2504  0.1631 -0.2344
24426W        W44706   4.210  15.228  11.496  0.1279 -0.0435  0.2247
24427W        W44707   4.853  13.232   4.342 -0.2914 -0.1735  0.4197
24428W        W44708   8.977  14.155   2.962 -0.4666  0.0973  0.3702
24429W        W44709   2.845   6.731  14.077  0.0153 -0.1078  0.1176
24430W        W44710   5.052   5.518   0.263 -0.2390 -0.7229  0.0202
24431W        W44711  15.396  14.149   1.854 -0.0181  0.1088  0.1238
24432W        W44712  14.445   9.154  13.992  0.1746 -0.2640  0.3023
24433W        W44713   7.311   2.545  11.059 -0.1532 -0.1090 -0.4321
24434W        W44714   5.372   5.997  11.159  0.0218  0.0465 -0.0400
24435W        W44715   7.228  12.325  13.281 -0.0075  0.0323  0.0485
24436W        W44716   1.795   2.003   0.987 -0.2386  0.1999  0.3257
24437W        W44717   7.411  19.570   3.373  0.0597  0.1968  0.1490
24438W        W44718   2.509   7.660  13.925  0.3456  0.2912 -0.0770
24439W        W44719   3.919  10.611  10.776  0.2300 -0.2718  0.1197
24440W        W44720   4.289   5.165   2.859 -0.1083 -0.2711 -0.0314
24441W        W44721  17.921   7.841   1.857  0.0387  0.2361 -0.1425
24442W        W44722   0.986   8.675  12.667 -0.1751 -0.1990  0.3396
24443W        W44723   6.868   7.261  13.839  0.2385 -0.1333  0.4806
24444W        W44724   8.891  13.365  10.848  0.0582  0.0197  0.0347
24445W        W44725   3.203  18.154   4.796 -0.2865 -0.0313  0.1485
24446W        W44726  18.348   4.399   3.267 -0.1002 -0.3019 -0.0507
24447W        W44727   6.468   6.105   3.310 -0.3485  0.0398 -0.0067
24448W        W44728   9.650  15.172   3.796 -0.3656 -0.1840  0.1221
24449W        W44729  11.525  13.583  13.242  0.2392 -0.1755  0.3123
24450W        W44730  19.776   6.407  13.375  0.3284  0.0094  0.2986
24451W        W44731   4.135  15.954   0.780  0.2752 -0.1132 -0.0803
24452W        W44732  17.806  17.530  13.278 -0.1508  0.1424  0.3030
24453W        W44733  10.751  19.544   2.973  0.1313 -0.1040 -0.0357
24454W        W44734  12.335  10.344   0.772 -0.1200 -0.1351 -0.0584
24455W        W44735  12.126   0.786   2.284  0.3665  0.3155  0.1240
24456W        W44736   8.282   8.730   2.285 -0.3699  0.1207 -0.1558
24457W        W44737  19.363  18.745   1.652 -0.1204 -0.2798 -0.2100
24458W        W44738   6.709   8.403   3.553 -0.1359 -0.0973 -0.1819
24459W        W44739   6.173   8.174  12.699  0.1055  0.0515 -0.0497
24460W        W44740   6.190   6.958  12.137 -0.0181  0.3613  0.1838
24461W        W44741   3.520   6.666   0.771  0.1024 -0.2051  0.2163
24462W        W44742   0.775  19.363  13.573 -0.1238  0.2189  0.0265
24463W        W44743  15.809  19.089  10.481 -0.3380 -0.3621  0.0612
24464W        W44744  11.991   3.396   0.365 -0.3546  0.0812  0.0742
24465W        W44745   0.294   4.357  13.728  0.2791 -0.0893 -0.1007
24466W        W44746   1.038  14.371   3.594 -0.0079  0.0083  0.0493
24467W        W44747   5.481  16.899  13.038 -0.0419 -0.0030 -0.0234
24468W        W44748   7.310   7.841  11.503 -0.0238  0.1623 -0.1230
24469W        W44749  13.111  14.065   3.448 -0.0491 -0.0831 -0.0328
24470W        W44750  17.815  14.334  11.348  0.0443  0.1821  0.0947
24471W        W44751   1.358   2.466  12.704 -0.1742  0.0959  0.1521
24472W        W44752  15.856  19.297  11.822 -0.2498  0.2304 -0.0628
24473W        W44753   5.554   4.274   2.202 -0.0633 -0.1576 -0.1215
24474W        W44754  12.677   4.959  11.518 -0.1697  0.0515  0.0260
24475W        W44755   1.575   5.040  13.006 -0.1013  0.0089 -0.1126
24476W        W44756  12.226   9.123   2.716  0.0124  0.2279 -0.0161
24477W        W44757   8.196  11.548   3.906  0.0367  0.2520 -0.2454
24478W        W44758  16.593   9.398   2.298 -0.1744  0.0033  0.1788
24479W        W44759   6.627  17.342   2.496 -0.2732  0.0851  0.1517
24480W        W44760  14.772   5.827   2.279 -0.0850 -0.0877 -0.0348
24481W        W44761   5.219   6.383   3.305  0.4044  0.0773  0.1386
24482W        W44762  11.831  13.980  10.623 -0.2997 -0.1251 -0.0311
24483W        W44763   2.030   3.077  13.111  0.4532  0.1811 -0.1521
24484W        W44764  18.812  17.062   0.614 -0.0293 -0.0990  0.2755
24485W        W44765   0.384  14.173  13.105 -0.1692  0.1975  0.2106
24486W        W44766  11.984   9.333   1.781  0.1882 -0.0396  0.1040
24487W        W44767   5.752  12.241   0.709  0.1576 -0.0061 -0.1290
24488W        W44768  19.041   4.135   1.911 -0.0862  0.0384 -0.0665
24489W        W44769   4.989  15.255  13.422  0.2254 -0.0435  0.1811
24490W        W44770   4.957   4.047   3.115 -0.0247 -0.1331  0.1135
24491W        W44771   8.539  16.263   9.383 -0.0871  0.1038  0.1535
24492W        W44772   4.384  18.083   1.954  0.0286 -0.1003 -0.0910
24493W        W44773  17.360   2.447   3.688  0.2128 -0.0732 -0.2646
24494W        W44774   8.064   2.484   3.640 -0.3017 -0.1424 -0.1197
24495W        W44775  19.378  14.312  13.255  0.1566 -0.3804  0.0168
24496W        W44776  13.826   5.981   0.892  0.1281 -0.1937  0.1652
24497W        W44777  16.667   4.879   1.998  0.1970 -0.4538  0.1992
24498W        W44778  17.006   8.814   1.631  0.1439 -0.2744  0.1450
24499W        W44779   5.420  12.687   3.730 -0.1467  0.1604  0.1348
24500W        W44780  11.781   3.530   8.923  0.1003 -0.0455 -0.2455
24501W        W44781   9.908   2.112  10.575 -0.0143  0.3182  0.0972
24502W        W44782   5.293  11.284   1.054  0.1032  0.5136  0.1418
24503W        W44783   7.867  18.525  12.291 -0.1783  0.0721  0.0269
24504W        W44784  10.641  18.733  11.484 -0.2737  0.3533 -0.1328
24505W        W44785   0.671  13.663  13.587 -0.1244 -0.2064 -0.1127
24506W        W44786   0.875   8.216  12.619  0.0238 -0.1804 -0.2068
24507W        W44787   0.811  16.172  10.085  0.0934  0.0880 -0.1374
24508W        W44788  16.392  16.059   2.088  0.0354 -0.2704 -0.0737
24509W        W44789  15.850  17.609   1.918 -0.1203  0.3185 -0.2162
24510W        W44790  12.711   4.947  12.095 -0.2031 -0.3199  0.2347
24511W        W44791   7.206  16.094  11.552  0.3362  0.0794  0.1400
24512W        W44792   3.889  17.170  11.590 -0.2715 -0.2603 -0.2500
24513W        W44793   8.929   9.775   5.198 -0.1275  0.0769  0.0124
24514W        W44794   0.545  13.380   1.993 -0.2459 -0.2203 -0.0109
24515W        W44795  12.730   1.093  11.103 -0.1913  0.0783 -0.1061
24516W        W44796  18.259  19.093  12.654  0.0868  0.0236  0.1407
24517W        W44797  11.191  12.740  11.019  0.0300 -0.0337  0.1655
24518W        W44798  12.013  16.773   0.854  0.3183 -0.1253  0.1963
24519W        W44799   7.598   4.138  13.721  0.0624 -0.1153  0.2505
24520W        W44800  15.704   1.586  11.820 -0.1444 -0.0462  0.2927
24521W        W44801   9.963   5.462  11.983 -0.2140 -0.0547  0.1426
24522W        W44802   2.648  18.518  10.962 -0.4082 -0.2149 -0.1409
24523W        W44803   1.102  14.245  10.651 -0.0366 -0.1331 -0.0473
24524W        W44804  17.175   3.630   3.660 -0.1878 -0.2014  0.1074
24525W        W44805   9.990  11.482  11.092 -0.0335  0.1285  0.0037
24526W        W44806  11.407  10.852  11.558  0.0132 -0.2706  0.0577
24527W        W44807  15.915   7.593  11.153  0.0164  0.0366  0.0560
24528W        W44808  12.610   0.748   3.938 -0.2634 -0.0642 -0.0817
24529W        W44809  10.431   1.550  13.522 -0.2054 -0.0401  0.2610
24530W        W44810  13.318  16.773  13.278 -0.4327  0.1753  0.1229
24531W        W44811   5.393   4.799   2.619  0.1841 -0.0571  0.0174
24532W        W44812  12.946   6.255  13.576 -0.2391 -0.2294 -0.0989
24533W        W44813  10.356   5.515   1.929  0.0556 -0.1581 -0.1280
24534W        W44814   4.188   6.141  13.220 -0.1547 -0.2786  0.0740
24535W        W44815  14.002  15.564   0.528  0.0257 -0.0482  0.1108
24536W        W44816  19.719   6.058  11.993  0.0180 -0.1564  0.1460
24537W        W44817   7.474   4.363   2.035 -0.0204 -0.2209  0.3401
24538W        W44818  13.389   3.114  12.055 -0.0235 -0.1339  0.3231
24539W        W44819   1.296   2.922   1.881 -0.0897  0.2171 -0.0028
24540W        W44820  17.721  17.789   2.129 -0.1782 -0.3648  0.1554
24541W        W44821   9.722   9.296   0.048 -0.0939 -0.1419 -0.0176
24542W        W44822   1.536  13.175   1.961  0.0637 -0.0949 -0.4939
24543W        W44823   9.569   6.697  12.200  0.1142  0.3413  0.1119
24544W        W44824   1.933  13.746  13.915 -0.0524  0.4733  0.4177
24545W        W44825  11.040   3.406  12.397  0.0193 -0.1453 -0.0174
24546W        W44826  18.067   4.932  13.514 -0.2062 -0.0258  0.0001
24547W        W44827   5.445  10.106   0.340  0.1011  0.0686 -0.0176
24548W        W44828   1.207  14.602  12.682 -0.5216 -0.1854  0.0048
24549W        W44829  14.115  13.943   0.914 -0.1153 -0.0586 -0.0394
24550W        W44830  13.318  17.898  10.601 -0.0421 -0.0121  0.1812
24551W        W44831   1.761   4.498   1.291  0.1193  0.0687  0.1059
24552W        W44832   3.524   3.049  12.058  0.1039 -0.0314 -0.2764
24553W        W44833   0.698   9.477   2.001  0.2939  0.2471  0.1650
24554W        W44834   2.802  18.639   2.055  0.0340  0.0106  0.2750
24555W        W44835  14.051   7.996   4.498  0.1016 -0.1479  0.1741
24556W        W44836  19.768   1.447   4.194  0.0908  0.1149  0.1482
24557W        W44837  16.555   3.863   3.065 -0.0765 -0.1325 -0.2295
24558W        W44838  18.269   6.518   0.282  0.2123  0.0966 -0.0453
24559W        W44839   1.051   3.908   4.115  0.3257 -0.1190 -0.0961
24560W        W44840   6.607   4.427   0.655  0.1599  0.2480  0.0846
24561W        W44841  15.908   7.981   3.354  0.0414  0.0648 -0.2277
24562W        W44842   1.803  13.403   1.138 -0.3339 -0.0106  0.1048
24563W        W44843  13.928   9.722  11.596 -0.1282 -0.3227 -0.2683
24564W        W44844   0.449  15.781  11.823 -0.0981  0.1095 -0.0245
24565W        W44845  14.205   7.821  13.781 -0.1754  0.2898 -0.0308
24566W        W44846  12.118  18.024   3.527 -0.1280 -0.0775  0.3368
24567W        W44847   6.926   5.117  11.285  0.0011  0.1273  0.1678
24568W        W44848  17.404  13.950  11.411  0.3666  0.0704  0.0496
24569W        W44849  11.105  15.062   0.696 -0.1231 -0.0454 -0.2953
24570W        W44850  19.756  12.376   0.837 -0.3453 -0.0938 -0.0064
24571W        W44851   5.142   9.890   9.573 -0.0737 -0.1311  0.2511
24572W        W44852   3.723   7.420   0.882  0.0535  0.0598 -0.0934
24573W        W44853   5.746   8.189   0.525  0.0498  0.2545 -0.2096
24574W        W44854   8.862  16.664  12.615 -0.3857  0.0622 -0.0243
24575W        W44855   5.577   0.861  13.477  0.0524  0.2448 -0.3430
24576W        W44856  15.200  17.088  10.346 -0.1752  0.0903  0.1307
24577W        W44857   2.687  10.028   1.970 -0.0216  0.4439 -0.1072
24578W        W44858   1.024   1.896   2.506 -0.0590  0.2620  0.0826
24579W        W44859   5.274  19.519   3.092  0.1311  0.0172  0.3658
24580W        W44860   7.957   9.755  12.225  0.0807 -0.3117 -0.0164
24581W        W44861  19.523  14.795  13.486  0.0974  0.2369 -0.1029
24582W        W44862  14.827  14.870  13.355 -0.3609 -0.1877  0.1203
24583W        W44863   4.284  17.189   4.864 -0.2247  0.2035  0.2120
24584W        W44864   4.123   6.084  14.099 -0.0873  0.1168 -0.1142
24585W        W44865  17.251   9.359  13.108 -0.0857 -0.0550  0.2154
24586W        W44866  12.887  17.444  10.929  0.0020  0.2149 -0.0647
24587W        W44867   5.560   6.092  13.902 -0.0657  0.0129  0.1841
24588W        W44868   6.084   6.271   3.616 -0.4796  0.0662  0.0687
24589W        W44869  13.832   7.291   2.987 -0.2565 -0.3837  0.1538
24590W        W44870   7.723  12.967  14.086  0.1305 -0.0496 -0.0460
24591W        W44871   1.451  13.684   1.868  0.1280  0.2675 -0.1266
24592W        W44872  13.563   4.622  11.575 -0.0112 -0.1380  0.1508
24593W        W44873   0.654  15.489   4.712  0.1301  0.1406  0.0262
24594W        W44874  14.048   9.313  10.213 -0.1751  0.1316 -0.0249
24595W        W44875  17.607   6.879  11.190  0.2294  0.1757  0.0389
24596W        W44876  15.371   7.013  13.544 -0.0946 -0.0447  0.0561
24597W        W44877  14.572   0.080  13.601 -0.0120 -0.1224  0.0103
24598W        W44878   6.131  10.784   4.269  0.0487  0.1392  0.4672
24599W        W44879  13.147  18.068  11.867  0.0483 -0.2828  0.1447
24600W        W44880   7.259   0.160   3.075 -0.1455 -0.4743 -0.4038
24601W        W44881   0.972  18.189   2.736  0.0217 -0.3750  0.0118
24602W        W44882  15.879  15.242   2.205 -0.3436 -0.0409  0.0198
24603W        W44883   6.685  15.290   1.097 -0.3916  0.0519 -0.3338
24604W        W44884  13.183  19.630   2.490  0.2517 -0.2484 -0.3667
24605W        W44885   7.468  15.739   0.800 -0.0505  0.2683  0.3409
24606W        W44886   4.238   1.942   3.040  0.1486  0.2493  0.0284
24607W        W44887   1.562   1.620   2.652  0.1860  0.2542  0.2090
24608W        W44888  19.251  10.065   0.734  0.0846 -0.2386  0.0184
24609W        W44889   7.334   5.934   4.119  0.0571 -0.3566  0.1937
24610W        W44890  19.127  11.654  10.662 -0.2553 -0.3141  0.1120
24611W        W44891   0.095   8.576  12.643  0.0657 -0.1678  0.2365
24612W        W44892   1.215   9.507  11.110 -0.3604  0.1265 -0.3478
24613W        W44893  11.026  15.198   4.738 -0.0153 -0.1020  0.0024
24614W        W44894   5.026   0.103   0.794  0.0618 -0.0780  0.1228
24615W        W44895  12.602  16.662  12.623 -0.0698  0.0498  0.1461
24616W        W44896   5.478   7.839  13.174  0.0070  0.3218 -0.0474
24617W        W44897   5.363   4.382   1.742 -0.1560 -0.0390  0.0205
24618W        W44898  10.028   0.156  11.294 -0.0946  0.1051 -0.0306
24619W        W44899   3.593  10.875  10.140 -0.2329 -0.2825 -0.1330
24620W        W44900   3.033  19.230   3.490  0.2815  0.1327  0.2902
24621W        W44901  16.038   6.483  11.521 -0.1381  0.0774  0.2374
24622W        W44902   5.593  12.276  13.299 -0.3409 -0.1864 -0.2665
24623W        W44903  15.560  10.009   0.110  0.1798 -0.2750 -0.0960
24624W        W44904   3.625   8.960  13.492 -0.1538  0.0102  0.1404
24625W        W44905   8.579   7.802  13.536  0.1578  0.0818 -0.3600
24626W        W44906  12.668  17.455   2.239  0.1201  0.1512 -0.0917
24627W        W44907  12.989   2.555  11.577  0.2429  0.5335  0.0182
24628W        W44908   5.607   5.431   2.605  0.1170 -0.0338  0.0445
24629W        W44909   8.243   4.842   2.887 -0.0797 -0.0540 -0.3912
24630W        W44910  14.442   4.415   3.161  0.1381 -0.0730 -0.1398
24631W        W44911  11.810   4.811   1.533 -0.0619 -0.2188 -0.0427
24632W        W44912   8.757   5.698  12.635  0.0935  0.3635 -0.3061
24633W        W44913   5.119  16.095   0.053 -0.0478  0.2600 -0.2176
24634W        W44914  14.540   5.984   0.131 -0.0728  0.0714 -0.5628
24635W        W44915   8.511  11.807  13.075 -0.2061 -0.2561  0.5013
24636W        W44916   3.950  15.731   9.695  0.0645  0.0780  0.0160
24637W        W44917   8.127  14.250  13.628  0.0946 -0.0596 -0.0227
24638W        W44918  14.557  16.464   2.345 -0.0991 -0.3027  0.0526
24639W        W44919  15.666  10.281   3.596  0.0337  0.2232  0.0668
24640W        W44920  18.776   0.668   1.039 -0.3147 -0.1849  0.0812
24641W        W44921  18.319  19.516  12.325 -0.2459 -0.0142  0.1405
24642W        W44922   5.017   1.934   2.288  0.4782  0.0197  0.1725
24643W        W44923   8.138  10.155   1.687  0.1647  0.0525  0.0619
24644W        W44924  17.370  13.577   3.017 -0.1365 -0.0395  0.1172
24645W        W44925   6.793   4.610  11.041 -0.1767  0.0802 -0.1352
24646W        W44926  16.805  16.822  11.184  0.1357 -0.0143 -0.2822
24647W        W44927  11.685   8.701   0.969 -0.1343  0.0369 -0.0912
24648W        W44928   0.802   0.111  10.987  0.0787 -0.2943  0.3814
24649W        W44929   5.814   5.396   3.699  0.1030 -0.0998 -0.2363
24650W        W44930  18.364  10.807  10.913  0.2492 -0.4799  0.2047
24651W        W44931   2.898   3.498   2.843 -0.0781 -0.1032 -0.2278
24652W        W44932   5.775   8.112   3.723 -0.1764 -0.1750 -0.0190
24653W        W44933  10.658   6.314   1.332  0.1651  0.1117  0.2483
24654W        W44934   7.912   2.520  12.193  0.2050 -0.1902  0.1328
24655W        W44935  17.507   6.271   1.555  0.0972 -0.0353 -0.2962
24656W        W44936   3.418  12.309  11.863 -0.0026  0.0680 -0.1085
24657W        W44937   3.152   1.085  10.347  0.3251  0.0497  0.2471
24658W        W44938   0.351  17.269  13.889 -0.0001  0.3125  0.0300
24659W        W44939  13.942  18.523  10.758 -0.2116 -0.1063 -0.2407
24660W        W44940   8.126  17.095   1.825 -0.1618 -0.0230 -0.1726
24661W        W44941  10.516  13.363  13.356 -0.1354 -0.0017  0.0027
24662W        W44942   2.486   4.173  11.284  0.1023  0.0405  0.0085
24663W        W44943  14.204   4.912   1.972  0.1812 -0.0058 -0.0058
24664W        W44944  15.356  17.178   2.755  0.0787 -0.0293  0.0941
24665W        W44945   5.583  15.964   0.314  0.2424  0.2446 -0.2415
24666W        W44946   1.419   3.627  13.680 -0.0065  0.2003 -0.0604
24667W        W44947  15.286   4.252   3.043 -0.3514  0.1220  0.0041
24668W        W44948  14.536   3.488  13.071  0.1359 -0.3219  0.0266
24669W        W44949  12.820  13.388  13.163 -0.0191 -0.1199  0.0691
24670W        W44950  10.775   5.280   2.143 -0.0675 -0.0399  0.2233
24671W        W44951   6.920   3.268  13.647 -0.0104 -0.2435 -0.1494
24672W        W44952   4.902   6.432   0.274 -0.0645  0.2024 -0.0126
24673W        W44953   7.690   8.916   1.153  0.0461  0.2302 -0.2301
24674W        W44954   4.211   3.505   3.209 -0.0789 -0.1604 -0.1011
24675W        W44955   3.907   0.675   0.300  0.3261  0.5219  0.2410
24676W        W44956  11.392   4.732   0.002 -0.2566 -0.1522 -0.0198
24677W        W44957  14.841  13.616   3.055  0.4027  0.1560  0.2238
24678W        W44958   4.556   1.046   2.852  0.1115  0.0989  0.1157
24679W        W44959  13.986   7.907   0.196  0.1458 -0.5835 -0.2927
24680W        W44960  18.177  15.137  13.778 -0.0650 -0.2287 -0.1986
24681W        W44961   7.278  10.398  11.989  0.1880 -0.0008  0.0501
24682W        W44962  12.410   6.186  12.771 -0.2077  0.2072 -0.0890
24683W        W44963   4.134  16.636   3.149 -0.2279  0.1559 -0.2237
24684W        W44964  11.312   7.714   3.421  0.1928  0.1434  0.0700
24685W        W44965   5.944  16.448  10.732  0.0659 -0.0140 -0.3726
24686W        W44966  14.558   6.862   1.844 -0.2764 -0.1810 -0.3039
24687W        W44967  14.638  18.282  12.769  0.0420 -0.2285 -0.3385
24688W        W44968  17.775   9.365  13.266  0.0633 -0.0836  0.1704
24689W        W44969   7.637  12.237   3.043 -0.0665 -0.0565 -0.0093
24690W        W44970  10.257   4.979   4.190 -0.0085 -0.0022  0.2654
24691W        W44971   5.385  18.488  13.843  0.0087  0.0436  0.0012
24692W        W44972   2.372  16.236  13.577 -0.1819  0.0897 -0.2160
24693W        W44973  15.726  13.104   3.451  0.0509 -0.0032  0.2445
24694W        W44974  15.317  15.679   0.489  0.2430 -0.2028 -0.0750
24695W        W44975  10.041   4.389  12.261 -0.2895 -0.0354  0.0818
24696W        W44976   4.557  18.305  10.798  0.0111 -0.1171  0.1266
24697W        W44977   3.953   9.873   0.348 -0.0259  0.0879  0.1980
24698W        W44978   8.912   7.837   2.108  0.1909 -0.3390 -0.2487
24699W        W44979  13.699   0.211   3.349 -0.0449 -0.1546  0.2155
24700W        W44980   1.819   5.982   3.681  0.0973  0.1567  0.0221
24701W        W44981  15.593  12.893  10.752  0.0145 -0.2419  0.0040
24702W        W44982  10.011   7.154   0.953  0.0771  0.0918  0.3094
24703W        W44983   8.229  12.279  11.417 -0.0459  0.1335  0.2362
24704W        W44984   3.272  17.546  12.359 -0.0119  0.0478  0.1832
24705W        W44985   6.724  19.719  11.523 -0.0984  0.2006 -0.1957
24706W        W44986  14.765   7.335  13.582  0.0209  0.1595  0.0077
24707W        W44987  12.449   3.804  12.613  0.2428  0.1648 -0.1591
24708W        W44988   3.348  14.914  11.522 -0.0782  0.2978  0.0803
24709W        W44989  18.178   1.100  11.845  0.1210 -0.6272  0.1323
24710W        W44990   1.508  16.246   3.373  0.1397  0.0355 -0.1734
24711W        W44991  13.017   3.085  13.811 -0.0551 -0.0089 -0.1766
24712W        W44992  19.171  18.269   2.371  0.0135 -0.2823  0.1622
24713W        W44993   9.647  18.440   4.766 -0.1395 -0.0469 -0.2970
24714W        W44994  12.710   7.506   3.683  0.1308  0.0468  0.0476
24715W        W44995  17.841   7.131  12.978 -0.4081  0.1282  0.0216
24716W        W44996  18.845  10.922   0.562  0.0790  0.3497  0.1342
24717W        W44997  10.646   8.344   0.389 -0.1185  0.0415  0.1798
24718W        W44998   2.545  14.800   2.291  0.0914  0.0142 -0.1371
24719W        W44999   7.598  14.372  10.788  0.0131 -0.3905  0.4464
24720W        W45000  10.481  12.950   2.303  0.2644 -0.0601 -0.0120
24721W        W45001  12.327  16.089  13.783 -0.2747  0.0951 -0.2405
24722W        W45002  11.065  10.900   0.638  0.3889  0.1221 -0.0601
24723W        W45003   7.218  11.118   1.066  0.2899  0.0919 -0.1812
24724W        W45004   1.859  19.066   0.542  0.0268 -0.2753 -0.2799
24725W        W45005  15.011   0.313  10.415 -0.1259  0.1249 -0.1425
24726W        W45006   8.708   8.324  11.203  0.1519  0.1758  0.5548
24727W        W45007   7.345   4.903  12.102 -0.1475  0.1035 -0.3790
24728W        W45008   1.707   1.067  11.413 -0.2338  0.0470 -0.2289
24729W        W45009  18.943  18.574  12.152 -0.1194 -0.0224 -0.3631
24730W        W45010   1.580   4.153   2.338  0.2429  0.7216  0.0356
24731W        W45011   4.974   1.949   3.704 -0.0361  0.2805  0.2900
24732W        W45012  12.860   5.674   3.887  0.1967  0.0305 -0.1779
24733W        W45013   7.340  14.052  12.939 -0.0040 -0.1700  0.2089
24734W        W45014  18.009   3.474   0.368 -0.2895  0.0982 -0.1314
24735W        W45015   2.530   4.955   0.794 -0.0222  0.1462 -0.0069
24736W        W45016  10.102  13.751   0.207 -0.1182 -0.0579 -0.1935
24737W        W45017   0.308  10.070  11.043 -0.0477 -0.0674 -0.1045
24738W        W45018   7.773   5.595  10.965 -0.1150 -0.3354  0.0275
24739W        W45019  15.969  10.555  13.801  0.0787  0.1208  0.2293
24740W        W45020   1.859   2.470   0.702  0.0078 -0.0862 -0.0967
24741W        W45021   3.095  17.968  12.217  0.1691  0.0940 -0.0680
24742W        W45022  14.789  12.538  14.052  0.3673  0.0144 -0.1815
24743W        W45023   2.186   7.236   2.522 -0.0547  0.5166 -0.2173
24744W        W45024   5.768   3.488  13.135  0.1534 -0.1546  0.2947
24745W        W45025  15.182  10.319   1.689 -0.2072 -0.1882 -0.2307
24746W        W45026  17.210   3.186  10.456  0.1842 -0.6324  0.0632
24747W        W45027   2.635   8.286  11.826  0.1130  0.0415 -0.0256
24748W        W45028   2.425   9.842  13.645  0.0842 -0.0069 -0.0769
24749W        W45029  16.071  17.724   3.375  0.1972  0.1750  0.2912
24750W        W45030  12.781  12.381  11.240  0.2703 -0.0020 -0.0872
24751W        W45031  10.632  19.659   9.016 -0.1122 -0.0261 -0.2907
24752W        W45032  11.000  13.048   1.308  0.2773 -0.1327  0.2075
24753W        W45033   6.328   1.816  12.811 -0.0147 -0.0949 -0.3327
24754W        W45034  10.898  12.129  12.679  0.1990  0.1228  0.0995
24755W        W45035  13.176   2.910   2.980  0.0372 -0.1707  0.2530
24756W        W45036   3.718   5.126   3.680  0.1381  0.1693  0.0902
24757W        W45037  16.015   1.769   2.667 -0.1696 -0.0774  0.1343
24758W        W45038   8.411   6.339   0.244  0.0696  0.0666 -0.0385
24759W        W45039  16.697  12.993   4.306  0.1173 -0.3277 -0.1804
24760W        W45040   0.669   5.881   2.084 -0.3363 -0.2251 -0.0325
24761W        W45041  13.709  12.443   2.542 -0.1875  0.0568  0.0778
24762W        W45042   1.577   3.169  13.360 -0.0978 -0.5731  0.0049
24763W        W45043   9.050   4.511   3.173  0.0643 -0.4528 -0.0829
24764W        W45044  13.613   1.704  11.961 -0.1142  0.1431 -0.0253
24765W        W45045  17.220   5.493  13.542 -0.1361  0.0570  0.0670
24766W        W45046  11.609  19.662   2.104  0.0040 -0.0041  0.0754
24767W        W45047   6.103  19.405   1.531  0.0059 -0.2962  0.3104
24768W        W45048   3.590   0.147   2.683 -0.4203 -0.1421  0.2629
24769W        W45049   0.315   3.819   0.037  0.0932  0.0475  0.1140
24770W        W45050  17.681   2.255   1.388 -0.0463  0.1781  0.1821
24771W        W45051  12.255  12.325  11.987 -0.2932 -0.0050  0.1356
24772W        W45052   3.025   3.796   0.284 -0.0406  0.4104 -0.0077
24773W        W45053  15.064  17.708   1.228 -0.0288 -0.5255  0.0490
24774W        W45054   0.742  14.671  13.932  0.0813 -0.2212 -0.0153
24775W        W45055   3.398  19.561   2.962 -0.0123  0.2578  0.4266
24776W        W45056   0.018   3.407  11.832  0.1411  0.2390  0.4306
24777W        W45057  15.843   3.437  12.284  0.2013 -0.1643 -0.0467
24778W        W45058  13.113  18.129   4.612 -0.0300  0.0801 -0.1563
24779W        W45059   4.017  18.871   1.090  0.0877  0.1985 -0.1065
24780W        W45060  12.263  14.084  11.998  0.0551  0.2364 -0.1374
24781W        W45061   3.531   3.025   1.308 -0.0944  0.3196 -0.0432
24782W        W45062   2.791   6.499   3.488 -0.0168 -0.0579 -0.3780
24783W        W45063  10.988   1.674   9.187 -0.0217 -0.0253  0.0373
24784W        W45064   0.805   7.809  11.397 -0.3742 -0.2233 -0.1400
24785W        W45065  17.853  18.317  14.054 -0.0479  0.3122 -0.0711
24786W        W45066   8.799   6.067   1.872 -0.1287  0.3466  0.0508
24787W        W45067   3.213   3.640   9.866 -0.2551 -0.0702 -0.2167
24788W        W45068   1.726   3.270   9.604 -0.0515 -0.1475  0.0794
24789W        W45069   0.248   8.088  10.712  0.0591  0.0530 -0.0112
24790W        W45070   6.500   6.072  12.493 -0.1966  0.2943  0.0169
24791W        W45071  10.770  11.023   0.246 -0.0401 -0.0050 -0.0404
24792W        W45072   6.589   4.447   9.557  0.0446  0.2754  0.0947
24793W        W45073   0.262   9.200   2.053  0.0224 -0.3091  0.1089
24794W        W45074  16.107  12.316  12.330 -0.1989  0.0516 -0.1568
24795W        W45075  15.049   7.413  11.654 -0.0898 -0.0339  0.0132
24796W        W45076  12.509  13.602  13.472 -0.0273 -0.1492  0.1102
24797W        W45077  19.121  12.567   0.443 -0.2441 -0.1077  0.0178
24798W        W45078   7.035   5.952  14.027  0.1978 -0.0086 -0.1318
24799W        W45079  19.422  16.515   3.544 -0.0491  0.3099 -0.1630
24800W        W45080   3.620   6.702  11.134  0.5061  0.1321 -0.0950
24801W        W45081   5.030   2.184   3.222  0.1627 -0.1855 -0.1926
24802W        W45082  19.274   2.167  13.860 -0.1099  0.0048 -0.1454
24803W        W45083  10.552   0.931  10.813  0.1069  0.0351  0.3811
24804W        W45084  14.184  16.804  11.218 -0.1300  0.0678  0.0345
24805W        W45085   8.549   8.428   0.653  0.1428 -0.1460  0.3538
24806W        W45086   9.032  12.904  14.066 -0.2354 -0.3848  0.2394
24807W        W45087  19.682  15.498   2.118  0.0513 -0.0822  0.0544
24808W        W45088  14.001   4.053   3.379  0.3653 -0.1926  0.0050
24809W        W45089   0.557  18.301  10.540 -0.3571 -0.1209  0.7688
24810W        W45090  14.185  18.959   3.415  0.1613 -0.2648 -0.0617
24811W        W45091   0.162  16.831   2.895  0.0322  0.1278  0.1149
24812W        W45092  15.272   7.908   0.152  0.1635 -0.3297  0.1687
24813W        W45093  13.758   6.923  10.455  0.2920 -0.0986  0.0447
24814W        W45094   8.709   0.692  11.945 -0.2112  0.0344 -0.1603
24815W        W45095   8.351  14.452   1.670  0.0126  0.2424 -0.0079
24816W        W45096  12.914  12.143   3.692 -0.1497  0.1884 -0.4455
24817W        W45097   0.667   4.535  10.781 -0.0540 -0.1236 -0.1103
24818W        W45098   4.892   1.000   3.252  0.1631 -0.0155  0.0597
24819W        W45099  19.066   9.194   2.482 -0.2060 -0.0229  0.1876
24820W        W45100  12.023  16.811   3.256 -0.2728  0.1749 -0.0442
24821W        W45101  15.316   1.389   4.387 -0.0116  0.0955  0.2631
24822W        W45102   7.632  18.246  13.845  0.0225  0.0739  0.0923
24823W        W45103   1.340   4.850   1.356 -0.0363  0.1097  0.0927
24824W        W45104   0.209   2.917   0.457  0.4003  0.1485  0.0962
24825W        W45105   2.655  12.302   1.344  0.1520 -0.0701  0.3127
24826W        W45106   1.992   3.055   0.836  0.4388 -0.2061 -0.0987
24827W        W45107   0.756  15.580   3.480  0.5619  0.3059  0.1236
24828W        W45108   6.372  12.655   0.034 -0.1799  0.0479 -0.0624
24829W        W45109   4.326   6.650  10.667 -0.2273 -0.3478  0.0652
24830W        W45110  15.159   0.590   0.090  0.2119 -0.1076 -0.1329
24831W        W45111  12.309   2.694   3.154 -0.4194 -0.2378 -0.4390
24832W        W45112  14.398  10.863  11.213 -0.0946  0.0746  0.0587
24833W        W45113   5.842   4.732  11.120 -0.3714  0.1693 -0.2565
24834W        W45114   9.362  17.982   3.881 -0.0454  0.0053 -0.0889
24835W        W45115   4.031  12.855  11.725 -0.0666  0.2332  0.0958
24836W        W45116   6.754   4.331   2.923 -0.0206  0.0752 -0.0704
24837W        W45117  10.374   5.964  10.730  0.3312 -0.0029  0.2146
24838W        W45118   0.587   2.159  13.057  0.3006 -0.1868 -0.0540
24839W        W45119  14.650  12.658   4.237  0.0498 -0.3974 -0.1043
24840W        W45120   1.581  14.745   0.442  0.0304  0.2227 -0.2005
24841W        W45121   4.187  10.288   1.567  0.1073 -0.0709  0.0494
24842W        W45122   5.413   3.810   3.171  0.0528 -0.1850  0.0430
24843W        W45123   8.075   4.726   0.315  0.0512 -0.1120  0.0285
24844W        W45124   3.507   0.705  13.994  0.0592 -0.2377 -0.2255
24845W        W45125  10.218   2.607   3.334 -0.0375  0.1202 -0.0136
24846W        W45126  16.282  11.815  13.324  0.2609 -0.0961 -0.0393
24847W        W45127   5.886  18.001   0.308  0.2769  0.1153 -0.1868
24848W        W45128   9.615   9.852   2.590 -0.1044  0.1563  0.3802
24849W        W45129   9.931  17.667   1.930 -0.0057  0.1646 -0.2233
24850W        W45130  15.475  16.070   0.757  0.4088 -0.2922 -0.4790
24851W        W45131  10.660   4.494   1.106  0.0394 -0.0891  0.1663
24852W        W45132   9.181   9.338   3.308 -0.0214 -0.0842 -0.0429
24853W        W45133   1.920  14.482   1.747 -0.0430 -0.0477  0.0314
24854W        W45134   1.814  19.062  12.970 -0.0430  0.2441  0.0661
24855W        W45135  11.070   7.189   1.153 -0.1861 -0.3291 -0.2715
24856W        W45136  13.400   8.770  10.356  0.0760 -0.0424 -0.0038
24857W        W45137   2.214  10.194   2.277 -0.0127 -0.0346 -0.1073
24858W        W45138   7.983   8.041  12.374 -0.2855  0.2166  0.2604
24859W        W45139   4.331   9.367  12.717  0.1396 -0.1715  0.2981
24860W        W45140  13.869  16.968  11.569 -0.1661 -0.3035  0.1627
24861W        W45141  12.561   8.301   1.446  0.3119 -0.0286 -0.1016
24862W        W45142   4.894  13.689  10.636 -0.1975 -0.1114  0.1875
24863W        W45143   8.767  14.973  12.216 -0.0239  0.1475 -0.2424
24864W        W45144  15.619   9.863  10.674  0.1425  0.0903 -0.0975
24865W        W45145   5.212   3.907   1.995  0.0383 -0.0190  0.2047
24866W        W45146   6.207   6.276   0.279 -0.1561  0.0158 -0.1945
24867W        W45147   8.394   4.468  13.085 -0.2492 -0.0422  0.0321
24868W        W45148  14.514  16.303   1.401  0.1786  0.1206 -0.3507
24869W        W45149  13.084  17.336  11.337 -0.0361  0.1090  0.1658
24870W        W45150   7.342   1.931   2.874 -0.1423 -0.3939 -0.5058
24871W        W45151   8.189  19.003   2.940 -0.1595 -0.2120  0.1795
24872W        W45152  15.733   9.711   3.579 -0.4781 -0.2230 -0.1443
24873W        W45153  18.037   8.906   0.029  0.1837  0.0191 -0.2711
24874W        W45154  12.455  19.368   1.665 -0.1877  0.2935 -0.0080
24875W        W45155  16.906  10.489   1.754 -0.2400  0.4526  0.1894
24876W        W45156   3.820  16.294   0.575  0.3546  0.1994 -0.0698
24877W        W45157  15.687   6.077   1.077  0.0428 -0.0971 -0.4829
24878W        W45158   0.483   2.385   2.684 -0.1237  0.0176 -0.3299
24879W        W45159   7.809   0.015   1.474  0.0942 -0.0324 -0.1779
24880W        W45160  16.530  15.175   1.761 -0.1289 -0.3317  0.1613
24881W        W45161  14.701   7.073   0.907  0.0035 -0.1431 -0.0080
24882W        W45162  12.877  14.130   9.463  0.0853  0.1772  0.0007
24883W        W45163   4.905   4.119  13.344  0.1140  0.0279  0.1536
24884W        W45164   7.916   4.398   4.438 -0.1310 -0.1192  0.1452
24885W        W45165  19.406  17.356   0.833 -0.2230 -0.2753 -0.1319
24886W        W45166   6.549  18.717   1.086  0.5521 -0.1299 -0.1699
24887W        W45167   4.924   6.746   2.216 -0.1538 -0.0479  0.0988
24888W        W45168  18.013  19.660   2.065 -0.1061  0.1106 -0.0920
24889W        W45169   4.463  17.956   1.215 -0.0960  0.0832 -0.1547
24890W        W45170   8.238  18.886  10.008  0.1472 -0.2523  0.1903
24891W        W45171  17.187   1.005  10.705 -0.2067  0.0904 -0.0118
24892W        W45172   4.807   5.748   4.225  0.1105  0.0165 -0.1137
24893W        W45173  15.183   9.402  13.600 -0.1230 -0.2149 -0.2345
24894W        W45174   7.985  15.339  11.601  0.0502 -0.0401 -0.0068
24895W        W45175  13.498  18.374  10.635 -0.0079 -0.0670  0.0172
24896W        W45176  12.046  14.916   3.927 -0.0878 -0.1581  0.1625
24897W        W45177  17.264   4.747   3.154  0.1080 -0.1925 -0.0185
24898W        W45178   3.475   2.069   9.201 -0.0045 -0.0755 -0.2937
24899W        W45179   1.255   2.151   1.555  0.1364 -0.1035 -0.0693
24900W        W45180   3.988  16.248   3.388 -0.6441  0.2765 -0.0537
24901W        W45181   2.691  11.617  13.910  0.1453 -0.0747  0.0101
24902W        W45182   7.674   0.137   9.951  0.1054 -0.2475  0.0215
24903W        W45183   8.472  18.194  10.631  0.1424 -0.1645  0.1134
24904W        W45184  17.438   6.000  11.635  0.2796  0.0273 -0.0036
24905W        W45185   2.927  18.883  11.436 -0.1985 -0.1958  0.0754
24906W        W45186  13.768   1.826   9.336  0.1396  0.0337  0.1176
24907W        W45187   3.223   3.483  12.195 -0.4519 -0.1992 -0.1368
24908W        W45188   4.251   5.167   2.259 -0.1600  0.1441 -0.3511
24909W        W45189   7.508   8.228  12.217 -0.1120  0.0167  0.1433
24910W        W45190   1.339  17.173  10.660 -0.1886 -0.0206 -0.0691
24911W        W45191  14.327   9.951   3.591 -0.1329  0.1436 -0.3017
24912W        W45192  11.187  18.748  10.157 -0.2052 -0.0626  0.0193
24913W        W45193   1.371   6.321  13.386  0.1447  0.2565  0.1809
24914W        W45194   9.766   3.798  10.148 -0.0126 -0.3153  0.0184
24915W        W45195  15.417  19.039   2.915  0.4084 -0.2051 -0.0209
24916W        W45196  11.349  10.047  11.156 -0.1119 -0.1762  0.1546
24917W        W45197  10.760  15.124  12.343  0.2737  0.1111 -0.0770
24918W        W45198  19.121  14.318   3.761  0.2710 -0.0377  0.0158
24919W        W45199   4.886   4.052  12.538  0.0673 -0.1775 -0.3100
24920W        W45200  15.373  14.866  13.470 -0.1683 -0.0617 -0.1409
24921W        W45201   7.383  17.801   2.455 -0.0291  0.0589  0.1778
24922W        W45202  18.360   3.798  13.705  0.1401  0.1139 -0.0875
24923W        W45203  13.820   2.147   2.232  0.1838  0.2274  0.0504
24924W        W45204   7.756  12.705   0.485 -0.0730 -0.0708  0.2754
24925W        W45205   6.262  12.342   0.673 -0.0963 -0.1583  0.0330
24926W        W45206   6.040  15.956  10.841  0.0443  0.1861 -0.0621
24927W        W45207   1.409   6.011  10.735  0.1173  0.1101  0.1263
24928W        W45208  16.012   0.338  14.077 -0.2545  0.2771  0.2138
24929W        W45209  11.011   9.501  10.486 -0.2276  0.0592  0.0490
24930W        W45210   0.045   1.914  11.435 -0.2490 -0.2068 -0.0309
24931W        W45211  15.345   1.795   3.145 -0.1008 -0.1115 -0.0934
24932W        W45212   6.367  15.235  10.680  0.0528  0.0365  0.0282
24933W        W45213   0.679   8.383   1.141  0.0896  0.1422 -0.1756
24934W        W45214   8.952   6.699  12.833 -0.0710 -0.0326 -0.1978
24935W        W45215   6.785  17.177   3.487 -0.6038  0.2214 -0.1529
24936W        W45216  16.415   3.253   2.205  0.0502 -0.1321  0.1196
24937W        W45217   3.439  17.882  10.155  0.0679  0.0448 -0.1723
24938W        W45218  14.692  18.766  12.924 -0.0415  0.3711 -0.1692
24939W        W45219   8.804  16.227   2.115  0.0961 -0.0521  0.0632
24940W        W45220   8.737   0.929   0.343  0.2312  0.2076  0.0836
24941W        W45221  14.693   1.502  10.345 -0.2335 -0.3211  0.0098
24942W        W45222   9.505   1.076   2.642  0.1073 -0.0854  0.0941
24943W        W45223   8.096   7.898  10.970 -0.4006 -0.1402  0.2959
24944W        W45224  16.371   7.973  13.027  0.1384  0.2391 -0.0109
24945W        W45225  12.643  16.487   2.939 -0.2195 -0.1838 -0.1960
24946W        W45226   0.818  18.994   3.731  0.1806  0.2941  0.1772
24947W        W45227   1.951   8.866  13.648 -0.0750 -0.1285 -0.1075
24948W        W45228   3.071  14.146  11.127 -0.1640 -0.1114  0.0083
24949W        W45229   4.927  12.638  13.227 -0.0872 -0.0288  0.3403
24950W        W45230   5.406  17.978   1.230  0.0274  0.0490 -0.1171
24951W        W45231  16.219  15.179  11.148 -0.0183 -0.1630  0.0218
24952W        W45232   7.395  14.034   3.009  0.0379 -0.0555  0.1303
24953W        W45233   0.122  18.718   1.627  0.0622 -0.0245  0.3387
24954W        W45234  11.569   5.628   1.972 -0.1145  0.1484  0.0750
24955W        W45235  13.111   8.412   0.524 -0.0428  0.0376 -0.0688
24956W        W45236   0.751  16.861   2.098  0.1348  0.2835  0.1322
24957W        W45237   8.104  10.089  12.975  0.1160  0.2509 -0.0116
24958W        W45238  12.289  15.643   3.035 -0.0515 -0.1660  0.1152
24959W        W45239  16.269   7.351  13.874  0.3466 -0.0619  0.2152
24960W        W45240  12.239  13.475   2.645  0.2364  0.1204 -0.3913
24961W        W45241  17.134   5.307  13.009 -0.2569 -0.0465 -0.0613
24962W        W45242   6.830   1.879   1.534 -0.0569 -0.0104  0.4338
24963W        W45243  10.217   9.286  13.890 -0.2603  0.0845  0.1723
24964W        W45244   4.986  16.262  11.959  0.0014  0.1085 -0.0596
24965W        W45245   7.491   2.914   1.998 -0.1555 -0.0962  0.0793
24966W        W45246  18.027   2.516  12.198  0.2439 -0.2505 -0.1133
24967W        W45247  16.300  13.450   1.118 -0.1199 -0.2685  0.4017
24968W        W45248   6.056   6.521  11.398 -0.0650  0.2045 -0.0893
24969W        W45249   7.127   4.658   2.886 -0.1374 -0.2403 -0.0853
24970W        W45250   8.607   1.540   2.831  0.1437 -0.1744 -0.0983
24971W        W45251   3.976  10.462   2.001  0.3780  0.0672  0.1551
24972W        W45252  17.716   3.632  12.401 -0.0529 -0.1372 -0.2375
24973W        W45253   7.720  14.019  12.464 -0.1195 -0.0880 -0.0433
24974W        W45254  13.506  11.542   2.380 -0.0138  0.0137  0.1043
24975W        W45255   0.670   1.819  12.741 -0.0881  0.0540  0.2194
24976W        W45256   0.518  18.669   2.607 -0.2715 -0.2015 -0.1184
24977W        W45257   1.913  14.738  11.967 -0.1125 -0.0594  0.1710
24978W        W45258   9.884   1.719  10.939 -0.0626 -0.1940  0.0881
24979W        W45259  13.081  17.806  11.159 -0.2487 -0.0135 -0.1742
24980W        W45260  11.897   4.265  12.271  0.1341  0.2684 -0.0500
24981W        W45261  13.287  13.334   1.675 -0.0329  0.2141 -0.1498
24982W        W45262  13.175   4.985   3.556 -0.0478  0.0744 -0.0758
24983W        W45263  12.099   5.252   2.812 -0.1521  0.0002 -0.0917
24984W        W45264   9.200   4.876   0.474  0.1111 -0.2845 -0.0717
24985W        W45265   1.862  12.299  12.094 -0.0209  0.1055  0.4992
24986W        W45266  12.593   1.835  10.017 -0.1608 -0.0664  0.0655
24987W        W45267   9.893  18.796  11.892  0.1743 -0.2272 -0.1766
24988W        W45268   3.289   8.119  11.159  0.0992  0.2601  0.0620
24989W        W45269  17.765  12.261   2.318 -0.0780  0.2624  0.2311
24990W        W45270   2.558  11.208   3.444 -0.1222 -0.2996 -0.0495
24991W        W45271  17.008   7.207   1.007 -0.0863 -0.1200  0.0300
24992W        W45272  13.873   8.750  10.258  0.0068 -0.0643 -0.3430
24993W        W45273  19.211  18.142   3.346  0.0858  0.2765  0.0137
24994W        W45274  15.327   1.648  12.156 -0.1233  0.0877  0.0834
24995W        W45275   2.645   1.419   3.077 -0.2953 -0.0433  0.0371
24996W        W45276  18.134  16.728   2.983 -0.2964 -0.1199 -0.0181
24997W        W45277  12.275  12.754  12.406 -0.1339  0.0321  0.0640
24998W        W45278  18.090   0.949  10.435 -0.4766  0.1522  0.0248
24999W        W45279   6.582   6.797  11.213  0.0221  0.1488  0.0414
25000W        W45280   5.815   1.404   4.231 -0.0630  0.0458 -0.2748
25001W        W45281   6.950   7.598   2.172  0.0687 -0.0028 -0.2439
25002W        W45282   6.308   4.019   3.764 -0.2668  0.0225 -0.1311
25003W        W45283   6.500  11.471   3.704 -0.0258 -0.0565  0.2195
25004W        W45284  13.793  10.215   1.409 -0.2245 -0.1057  0.0008
25005W        W45285   8.926   1.604  11.782 -0.0501  0.2117  0.0124
25006W        W45286  10.030   4.178   1.184 -0.1083 -0.0678  0.0755
25007W        W45287  18.116  14.325   0.353 -0.1880 -0.2172 -0.4281
25008W        W45288   1.965   8.820   2.529  0.0885  0.1866 -0.0214
25009W        W45289  18.204  18.141  11.323  0.1573 -0.0029 -0.2632
25010W        W45290   4.310  16.963  11.708 -0.2514  0.0389  0.0662
25011W        W45291  18.255   1.586   1.763 -0.1742  0.0232  0.0300
25012W        W45292  19.368   5.216  13.166 -0.4592 -0.0356  0.3222
25013W        W45293  16.789  14.774  10.576 -0.4237  0.1537  0.0427
25014W        W45294   5.571  19.388  10.487 -0.3783  0.0529 -0.1436
25015W        W45295  12.165  16.399   3.456  0.3728 -0.0318  0.0514
25016W        W45296  18.453  16.567   2.592 -0.1510 -0.0296 -0.0324
25017W        W45297   1.183   1.665  13.764  0.0100 -0.2389 -0.0933
25018W        W45298   4.972   4.030   1.555  0.1790 -0.0419 -0.0938
25019W        W45299  10.238   8.263   4.287 -0.2258 -0.5151 -0.3728
25020W        W45300   1.635   2.372  12.221  0.2925 -0.1102  0.1433
25021W        W45301   9.261   6.854   5.082  0.2911  0.1306  0.0096
25022W        W45302   8.598   2.046   1.486 -0.0153 -0.0045 -0.1840
25023W        W45303   0.803   9.121  12.872  0.1049 -0.0165 -0.1713
25024W        W45304  16.860   3.331   0.865  0.2733 -0.1587 -0.1715
25025W        W45305  17.808   6.338   9.441 -0.0948  0.4010  0.0296
25026W        W45306  12.106   3.508   2.654 -0.1519 -0.0889  0.0632
25027W        W45307  16.090  15.067  13.472  0.3275 -0.2168 -0.0047
25028W        W45308   2.777  14.003   2.604  0.1094 -0.2078 -0.0312
25029W        W45309  16.654  13.840  13.450  0.1048  0.0922 -0.0115
25030W        W45310  18.291   7.680  13.248 -0.0511 -0.1450 -0.0572
25031W        W45311  18.010  18.601   1.219  0.1517 -0.0684  0.1986
25032W        W45312  17.004   3.935   3.276  0.1390 -0.0503  0.1165
25033W        W45313   7.251   5.307   2.200  0.0953  0.1845 -0.0901
25034W        W45314   9.616   5.822  12.202  0.2823 -0.2000  0.0558
25035W        W45315   9.058   6.297  12.446 -0.3089  0.0926 -0.1509
25036W        W45316  12.775  17.469  13.816 -0.0662  0.2727 -0.3848
25037W        W45317   7.543  16.965  11.397 -0.1914  0.2414 -0.0567
25038W        W45318  17.816  13.688  11.280 -0.0972  0.4409  0.0756
25039W        W45319   0.914  10.682  12.129  0.3185  0.0285 -0.0366
25040W        W45320   1.147   3.584   1.400 -0.0567  0.1230  0.0987
25041W        W45321  12.255   4.990  12.378  0.1505  0.0355  0.1560
25042W        W45322  19.386   4.096   1.059 -0.0443  0.2908 -0.1509
25043W        W45323   8.047   9.102   9.679  0.1580 -0.1361 -0.0190
25044W        W45324  12.625  17.126  12.180  0.0367  0.0817  0.0067
25045W        W45325  12.291   7.019  11.379 -0.0277  0.0315 -0.0028
25046W        W45326  17.095  16.379  13.401  0.0484  0.3019 -0.4523
25047W        W45327   6.358  12.971  11.692  0.2148  0.0840 -0.2834
25048W        W45328  11.204   6.472  13.489 -0.3229  0.1632 -0.0268
25049W        W45329   3.137   0.163   1.040 -0.0942 -0.0135  0.4509
25050W        W45330  10.674   4.942   2.505  0.0739  0.1421 -0.1782
25051W        W45331  16.711  19.265  11.498  0.5006  0.2360 -0.1647
25052W        W45332   6.557   4.735  11.532 -0.0886 -0.2299  0.0389
25053W        W45333  13.676   3.509  12.001  0.1758 -0.1561 -0.1393
25054W        W45334  13.545   7.066  10.890  0.1058 -0.0261 -0.2804
25055W        W45335   4.439   0.290   1.643 -0.2293  0.0013 -0.1585
25056W        W45336  18.499   0.101   1.450  0.1460  0.1589  0.1599
25057W        W45337   1.907   8.432   1.741 -0.2525  0.2316  0.2182
25058W        W45338  14.403   1.847  12.929  0.2138  0.1398 -0.1590
25059W        W45339  13.721   3.623   3.276 -0.1015 -0.1549 -0.2887
25060W        W45340   5.707   3.570   2.064  0.0448  0.0764 -0.1754
25061W        W45341   5.217  15.300  12.434  0.0213 -0.0364  0.0438
25062W        W45342  13.840   3.195   2.074 -0.0595  0.2324 -0.1513
25063W        W45343  16.318   4.977  13.075 -0.0477  0.2293  0.0222
25064W        W45344  11.082   0.190   3.634 -0.0573 -0.1731 -0.0910
25065W        W45345  13.737   2.409   9.639  0.0486  0.1684  0.2214
25066W        W45346   1.177  12.114  11.161 -0.1779 -0.2003 -0.2105
25067W        W45347  14.556  10.118   0.914  0.2085 -0.0325 -0.2848
25068W        W45348   1.803  19.648  10.192 -0.1738  0.0568 -0.2682
25069W        W45349   8.771  12.384  10.472 -0.0805  0.0229  0.0892
25070W        W45350  16.779  10.656  12.138 -0.1183  0.0579 -0.0050
25071W        W45351  11.267  15.558   2.782 -0.1239  0.1630  0.0530
25072W        W45352  18.406   0.348  13.934  0.0520 -0.1258  0.1191
25073W        W45353  19.712  13.639   2.644 -0.1101 -0.2235  0.0719
25074W        W45354  17.600   8.058   0.935 -0.0862  0.2387 -0.2329
25075W        W45355   9.378   7.674   1.826  0.3010 -0.1098 -0.3702
25076W        W45356  11.738  18.031  12.530  0.0813 -0.0486 -0.1943
25077W        W45357   3.167   2.030   0.906 -0.1304 -0.0316 -0.1985
25078W        W45358   6.607  12.012   1.866 -0.1814 -0.2271  0.4789
25079W        W45359  13.213  17.998  12.373  0.1261  0.1963  0.0831
25080W        W45360   2.337  18.464  10.578 -0.2798 -0.2063 -0.2403
25081W        W45361  13.693  16.366   2.169  0.0465  0.0394  0.0088
25082W        W45362  17.064  12.791   0.314 -0.2823  0.0046  0.0578
25083W        W45363  12.682  13.750  12.847  0.1017  0.2565 -0.2449
25084W        W45364  19.747  15.024   3.745  0.1938 -0.2708  0.2713
25085W        W45365   7.373   0.325  11.075 -0.0383 -0.0704  0.2260
25086W        W45366  13.171  14.706   1.442  0.0769 -0.4814  0.0748
25087W        W45367  15.706   8.716   3.850 -0.0537  0.0641 -0.0045
25088W        W45368   6.488   6.762  13.065  0.0242  0.2079 -0.2227
25089W        W45369   7.416   6.184   1.320 -0.1056 -0.0525  0.1786
25090W        W45370   6.857  11.197  10.905 -0.2594 -0.0351 -0.0303
25091W        W45371  19.129  11.371   0.002 -0.0689  0.3416  0.0421
25092W        W45372  14.050  17.451   3.198 -0.2704  0.1263 -0.0517
25093W        W45373  11.883   7.404   4.611  0.2328 -0.1535  0.1677
25094W        W45374   9.192  12.989  12.607  0.1277  0.1208 -0.3405
25095W        W45375   7.675   3.045  11.910 -0.1226  0.1045 -0.1766
25096W        W45376  19.668   0.479   2.057  0.1612 -0.4324  0.3634
25097W        W45377   3.580   9.602  11.225 -0.2142  0.2668  0.0441
25098W        W45378  15.911  10.922   1.750  0.0159  0.1238  0.4022
25099W        W45379  15.561   7.326   1.776  0.0357 -0.0698 -0.0673
25100W        W45380   5.811  11.714  12.579 -0.1688 -0.1498 -0.1394
25101W        W45381   9.538  15.693  11.407 -0.2246 -0.0084 -0.2446
25102W        W45382   5.569  13.216  12.223  0.1633 -0.0320 -0.5362
25103W        W45383   1.470  18.212   2.620  0.0164  0.0415  0.2032
25104W        W45384  18.871   5.913  10.466  0.0985 -0.2081  0.1000
25105W        W45385   0.211   5.040   0.602  0.0595 -0.1625  0.1889
25106W        W45386  11.592   0.295   2.428  0.3284  0.0183  0.0235
25107W        W45387  16.013   3.058   3.250  0.0202  0.2849 -0.2022
25108W        W45388   6.706   9.916  13.585  0.0834 -0.2494  0.4081
25109W        W45389  19.399   6.550  11.887  0.0234 -0.4000  0.0304
25110W        W45390   9.317   7.613  11.343 -0.2099 -0.0130 -0.0174
25111W        W45391  14.653   1.685   1.919 -0.0173 -0.1725 -0.1029
25112W        W45392  16.038   8.425   3.605 -0.0689  0.2664 -0.2629
25113W        W45393   8.228  15.686   2.443 -0.1741  0.0560 -0.0048
25114W        W45394  10.459   9.968  13.571  0.1811 -0.0383 -0.0294
25115W        W45395  13.400   3.874  11.695 -0.1190 -0.1403 -0.2126
25116W        W45396  16.003  18.322  13.830 -0.2414  0.0094 -0.0228
25117W        W45397   3.901   9.426   2.118  0.0742 -0.0474 -0.1308
25118W        W45398  10.704   2.429   2.294  0.3816 -0.1472  0.1080
25119W        W45399   4.058   7.671  13.229 -0.1292 -0.0784  0.1444
25120W        W45400   2.878   3.796  12.193 -0.1510  0.1101  0.0529
25121W        W45401   4.233  18.783   9.730  0.1217  0.0621  0.1725
25122W        W45402   7.661  16.794   2.287 -0.4606 -0.0106 -0.1893
25123W        W45403  19.609   9.628   3.127 -0.0475  0.1305 -0.0332
25124W        W45404  12.364   0.045   1.915  0.0562  0.0818  0.0813
25125W        W45405  18.659   9.195   0.745  0.0072  0.0558 -0.2430
25126W        W45406  13.808   2.157  12.245 -0.3361 -0.3504  0.2552
25127W        W45407  10.384   0.458  12.510  0.5285 -0.0117  0.1422
25128W        W45408  12.070  16.225  10.984 -0.0160  0.1790  0.0168
25129W        W45409   8.721   5.499   0.091  0.2169  0.2205 -0.2273
25130W        W45410   2.033  14.276  11.823 -0.0233 -0.0542 -0.4149
25131W        W45411   9.340  14.117   4.011 -0.1371 -0.1624  0.3246
25132W        W45412  10.924   0.335  11.917 -0.1853  0.1220  0.4764
25133W        W45413  16.062   5.443   1.194  0.3961  0.2476 -0.2156
25134W        W45414   5.233   7.885   1.649  0.0137  0.0370 -0.1718
25135W        W45415   8.999   8.963   1.723  0.3031 -0.3288  0.0457
25136W        W45416  11.776   7.479  11.563 -0.2014 -0.0749 -0.0153
25137W        W45417   8.022  15.351  12.118 -0.0791 -0.1951 -0.3788
25138W        W45418  15.666   5.081   1.391 -0.1664  0.0085  0.1193
25139W        W45419   8.799  16.668   3.261 -0.1620  0.1386 -0.1929
25140W        W45420   5.882   7.221  12.793 -0.3496 -0.2305  0.1807
25141W        W45421   9.881  14.583  11.186 -0.1110 -0.0799 -0.5307
25142W        W45422   5.408  18.473  11.288 -0.0498 -0.2130 -0.0037
25143W        W45423  15.756  16.537   1.055  0.3115 -0.0618  0.1930
25144W        W45424   0.664  16.671  11.474 -0.0793  0.3428 -0.3760
25145W        W45425   1.897  17.369   2.353 -0.1116  0.0746  0.4522
25146W        W45426   3.906  13.045   1.711  0.0559 -0.0582  0.1045
25147W        W45427  18.039   9.607   0.092 -0.1815 -0.0472 -0.0823
25148W        W45428  18.248   2.800   3.119  0.0444 -0.0367 -0.0001
25149W        W45429   9.447   7.550   0.309  0.0858  0.1869 -0.2432
25150W        W45430   6.672  18.027   3.275  0.1893  0.1346 -0.0182
25151W        W45431   7.717  13.222   1.750 -0.0286 -0.1916  0.2353
25152W        W45432   5.628  19.128   2.593 -0.0550 -0.2603 -0.2481
25153W        W45433   4.047  11.126  13.710 -0.1389 -0.0885  0.1153
25154W        W45434  15.197   2.541  11.177 -0.3328 -0.0509 -0.4786
25155W        W45435   7.362  14.836  12.612  0.0835 -0.1409  0.1451
25156W        W45436  12.813  13.367   2.634 -0.1189  0.1965 -0.1232
25157W        W45437  15.503  18.237  13.885 -0.0167  0.3460  0.0847
25158W        W45438   8.288   0.670   1.459 -0.2464  0.0976 -0.4637
25159W        W45439   3.452  14.013   2.593  0.1747  0.3080 -0.0988
25160W        W45440  18.627   6.211  13.547  0.2596  0.2286 -0.0062
25161W        W45441   9.157   8.107  11.985 -0.2988  0.0720  0.4023
25162W        W45442  14.123   4.774  11.466 -0.0312 -0.2490 -0.1350
25163W        W45443  11.975  15.368  12.647  0.0063 -0.0287 -0.3059
25164W        W45444  15.867  11.677   2.134  0.0743  0.1830  0.1329
25165W        W45445  18.305   2.979  10.935  0.0475 -0.1116  0.0231
25166W        W45446  18.691  18.118   3.122  0.2022  0.0941  0.1342
25167W        W45447  13.552  17.478  13.678 -0.2499 -0.1191  0.3156
25168W        W45448   7.586   3.822  10.835  0.1351 -0.0601 -0.1355
25169W        W45449  10.339   3.443   0.083 -0.0024 -0.3463 -0.1318
25170W        W45450  17.710  10.059   4.295  0.2725  0.1902  0.2547
25171W        W45451   5.676  16.837  12.599 -0.0457  0.4512 -0.1421
25172W        W45452  11.468  10.796  12.465  0.1139  0.3395 -0.2287
25173W        W45453  10.197   1.045   3.560  0.0193  0.0550  0.2095
25174W        W45454  11.195  14.824  12.269 -0.3661 -0.1242  0.3508
25175W        W45455   5.575   9.338  13.911  0.2155 -0.1455 -0.2202
25176W        W45456  19.654   9.582   3.650 -0.0381  0.0381  0.2409
25177W        W45457   3.412   2.356  12.335  0.2238 -0.0387  0.1514
25178W        W45458  11.470  12.868   1.449 -0.0104  0.1533 -0.0090
25179W        W45459  11.349  16.074  13.250  0.1796 -0.2114  0.0092
25180W        W45460   1.608  10.699  10.590 -0.0557  0.1168 -0.1633
25181W        W45461  14.115  11.920  12.419 -0.0518  0.0223 -0.3060
25182W        W45462   6.621  19.283  10.537  0.1059 -0.3023  0.1180
25183W        W45463  10.733  11.680  10.588  0.1853 -0.0129 -0.2338
25184W        W45464  12.127   4.880  10.365 -0.2063 -0.2555  0.1154
25185W        W45465   0.480   7.025   2.228 -0.1084  0.2494  0.1421
25186W        W45466  17.316  10.528   2.662 -0.2923 -0.2693  0.3359
25187W        W45467  17.944  13.657   1.844 -0.0260  0.0152 -0.0221
25188W        W45468  10.264   9.540  11.587  0.1635 -0.1956  0.2044
25189W        W45469  17.895  19.575   0.111 -0.0317  0.0379 -0.1903
25190W        W45470  17.549  10.951  12.624  0.3373  0.0755  0.3136
25191W        W45471  13.621  16.128   3.097  0.0143  0.0408  0.0420
25192W        W45472   0.051   0.532  10.958 -0.0570 -0.0142 -0.0856
25193W        W45473  11.077   1.635   3.370  0.1990 -0.0704 -0.1311
25194W        W45474   3.209   7.559   0.833  0.1091  0.2165 -0.1429
25195W        W45475  15.984   1.654   1.801 -0.1262 -0.0436 -0.3253
25196W        W45476  14.896   8.125   0.386 -0.2018  0.0161  0.0362
25197W        W45477   2.409  12.957  12.565 -0.1564  0.2698  0.1061
25198W        W45478   2.158   4.217   1.191  0.2291 -0.0491 -0.1835
25199W        W45479   5.021  18.113   2.810  0.1077  0.1272 -0.1530
25200W        W45480   0.133  18.270  10.812 -0.2487  0.1533  0.1234
25201W        W45481   1.667   3.425   1.134  0.1850  0.1047  0.0675
25202W        W45482  16.238  17.197  10.743 -0.1070 -0.3358  0.0414
25203W        W45483  11.622  16.476   1.105 -0.1887 -0.1502 -0.0630
25204W        W45484   3.558  10.832   2.497 -0.0293  0.0679  0.0616
25205W        W45485  14.630  17.563  12.606  0.3216  0.0138 -0.2217
25206W        W45486  12.288   7.862  12.833  0.0237  0.0589  0.3913
25207W        W45487  10.176  10.442   3.213 -0.0075 -0.1701  0.0767
25208W        W45488   3.630   9.251   3.821 -0.1335  0.2650 -0.0802
25209W        W45489   0.828  15.847   2.197  0.1465  0.2652 -0.1809
25210W        W45490  18.103   2.261   3.099  0.0749 -0.2909  0.0440
25211W        W45491   6.098   2.930   2.641 -0.0205 -0.0395  0.0024
25212W        W45492   4.801  13.332  13.563 -0.0361 -0.1051 -0.1642
25213W        W45493  13.298   2.180   2.391 -0.1151 -0.0442 -0.3196
25214W        W45494   7.487   0.945  12.044  0.0922 -0.0735 -0.0647
25215W        W45495  19.666  18.642   1.207  0.0977  0.1277  0.1651
25216W        W45496   7.177  10.489  10.774 -0.3433 -0.1330 -0.0482
25217W        W45497   0.410   2.695   2.306 -0.1500 -0.0188  0.1042
25218W        W45498   9.082   5.355  12.366 -0.2519 -0.2047  0.0489
25219W        W45499   2.101  12.707  11.905 -0.3466  0.2461 -0.2199
25220W        W45500   0.778  12.864   0.360  0.3896 -0.1069  0.3047
25221W        W45501  16.563   2.775   2.219 -0.0838 -0.2842  0.1064
25222W        W45502  19.060  10.863  12.766 -0.1416 -0.0011  0.1416
25223W        W45503  13.861  15.917   0.042 -0.1277  0.0180  0.2329
25224W        W45504   1.206   6.390  12.806  0.6676 -0.1009  0.0323
25225W        W45505  16.554  10.139   1.996 -0.2916  0.1723  0.2041
25226W        W45506   7.890  10.204   2.098 -0.0114  0.0040  0.2739
25227W        W45507  14.863  17.097  10.877 -0.0957 -0.2135 -0.0380
25228W        W45508   3.689  18.589   0.744  0.1431 -0.1066  0.1547
25229W        W45509   3.705  17.586   0.917 -0.0289 -0.1176 -0.0919
25230W        W45510  14.922  14.058   1.548 -0.2492 -0.0744 -0.3252
25231W        W45511   6.550  15.882  11.513 -0.1573  0.1001 -0.0831
25232W        W45512   1.203   4.557  13.981 -0.0902 -0.0022 -0.0530
25233W        W45513  17.894   4.917   2.632  0.0803 -0.1323 -0.1508
25234W        W45514  13.953  14.711   2.669  0.1063  0.2422 -0.2345
25235W        W45515  10.773   7.567   1.083  0.5344  0.0030  0.1397
25236W        W45516   3.791   8.940   1.840 -0.0852 -0.2768 -0.0691
25237W        W45517  13.840   8.482   2.821  0.0087  0.1764  0.1109
25238W        W45518   1.412  16.741   2.690  0.1670 -0.1607  0.2315
25239W        W45519   7.072  19.485   3.826 -0.0903  0.1632 -0.0423
25240W        W45520  12.458   7.360   1.159  0.1612  0.0437 -0.0127
25241W        W45521   0.519  17.901  10.932  0.0411  0.0007 -0.0619
25242W        W45522   2.324  14.617  13.934 -0.3312 -0.1222 -0.1280
25243W        W45523   8.575  10.867   3.759 -0.1579  0.2122  0.2089
25244W        W45524   0.741  13.264  10.591  0.1386 -0.1492 -0.2675
25245W        W45525  16.756  16.948   1.146 -0.1146 -0.0537 -0.1592
25246W        W45526  12.831   9.058  12.837  0.0131 -0.2239  0.0620
25247W        W45527   0.718  12.862  11.688  0.1748  0.1066  0.1772
25248W        W45528  11.573   9.021  11.440 -0.0439 -0.2545 -0.0487
25249W        W45529  18.786  14.557   2.813 -0.3046  0.0134 -0.4560
25250W        W45530   1.716  17.219  12.300  0.2875  0.1449 -0.0710
25251W        W45531   8.384  11.878  13.550 -0.0498 -0.0200 -0.0729
25252W        W45532  11.631   1.708  11.699  0.2340  0.1348  0.1616
25253W        W45533  13.106   0.398  11.299 -0.2197  0.1612  0.0463
25254W        W45534  10.356   0.058   3.114  0.1837  0.1720  0.0196
25255W        W45535  18.101   2.142   1.818 -0.1258 -0.0241 -0.1707
25256W        W45536   1.831  19.081   2.438 -0.3531  0.1544 -0.1902
25257W        W45537  14.646  13.645   9.860  0.1983 -0.1840 -0.0284
25258W        W45538   2.974  18.924  10.110  0.0626  0.1064  0.2156
25259W        W45539  18.533  19.041   0.521  0.2517  0.0853 -0.2438
25260W        W45540  14.913   9.091  13.225  0.1660  0.1051 -0.4441
25261W        W45541  13.919  18.998  12.590 -0.0745  0.1026  0.1090
25262W        W45542  12.823  16.268  13.622  0.1298 -0.1427  0.1582
25263W        W45543   7.355   0.044  12.187  0.1142 -0.3284  0.3486
25264W        W45544   0.889   8.794   0.985  0.0450  0.4003 -0.1294
25265W        W45545  18.699  16.016   2.355  0.2464 -0.1299  0.1771
25266W        W45546   3.641  18.252  13.238 -0.1556 -0.2517 -0.0133
25267W        W45547  16.749   6.186  12.728 -0.1848 -0.0018 -0.3448
25268W        W45548   7.517   1.166  12.515 -0.1296 -0.0037 -0.1736
25269W        W45549   9.059   1.116   0.022  0.1331  0.0585  0.3513
25270W        W45550  15.064  17.877  11.081 -0.1098  0.1351 -0.0088
25271W        W45551   3.773  12.261  10.861 -0.2763  0.0896  0.2834
25272W        W45552   0.534   5.200  13.481  0.2147 -0.0054  0.0541
25273W        W45553  14.819   4.303   4.507 -0.2983 -0.0581  0.2179
25274W        W45554  10.693  10.448   3.403  0.2367 -0.0377 -0.1203
25275W        W45555  13.776  16.530  10.434 -0.2576 -0.0513 -0.1081
25276W        W45556  18.665   3.073   3.837  0.0027 -0.0178 -0.4003
25277W        W45557  10.606  13.871  13.395 -0.2368  0.2826 -0.1495
25278W        W45558   2.087  16.380   0.044  0.3004  0.1045 -0.2568
25279W        W45559  14.235   6.653   2.273  0.1287 -0.0493  0.1274
25280W        W45560   6.331  13.509  13.723  0.5341  0.0371  0.3184
25281W        W45561   6.931  16.437   1.245 -0.0462 -0.3424 -0.0959
25282W        W45562  16.691  15.287  10.928 -0.3203  0.0206 -0.1489
25283W        W45563  17.264  17.340  10.248 -0.1717 -0.0761  0.0987
25284W        W45564  15.182  16.613  10.860  0.0591  0.0622  0.0989
25285W        W45565  17.952   1.268  10.049  0.2265  0.2291  0.4295
25286W        W45566   6.415  15.683   3.333  0.2533  0.0743 -0.0085
25287W        W45567  18.155  12.124  13.735 -0.0885 -0.0169 -0.0139
25288W        W45568   5.357   5.478  12.524  0.1083  0.6180  0.1281
25289W        W45569  10.328  14.645  13.195 -0.0669  0.0208 -0.1081
25290W        W45570   1.695  17.306  13.270  0.0993  0.1031 -0.1264
25291W        W45571  19.156  14.959   2.639  0.1411 -0.0723  0.2108
25292W        W45572   9.957  16.016   4.070 -0.1487 -0.1608  0.0297
25293W        W45573  17.434   1.856  12.865 -0.2695 -0.2796 -0.0123
25294W        W45574   8.474  10.264   1.414 -0.1996  0.1559  0.3112
25295W        W45575   8.475   4.719  10.613 -0.1256 -0.0261 -0.1614
25296W        W45576  12.031  11.067  10.334 -0.2353 -0.6304  0.2382
25297W        W45577   1.432  11.983   4.042  0.0401 -0.1512  0.4190
25298W        W45578   0.051   8.012   1.249  0.0700  0.2052  0.1111
25299W        W45579   7.055  12.947   1.519 -0.0894 -0.2812  0.2524
25300W        W45580  15.819   2.485  10.222 -0.3181  0.4883  0.0482
25301W        W45581  13.547   9.553   3.805 -0.1614 -0.3084 -0.2808
25302W        W45582  13.376   5.647   1.311  0.1198  0.1612 -0.2521
25303W        W45583  12.503   8.675  10.918  0.0107 -0.0323 -0.1779
25304W        W45584   3.324   0.179   3.493  0.0565  0.1834 -0.0468
25305W        W45585   1.105   6.825  11.315  0.2815  0.2440  0.2816
25306W        W45586   1.993  12.470   3.609  0.2218 -0.0987  0.1088
25307W        W45587   8.641  14.176  13.778 -0.1210  0.2035 -0.2533
25308W        W45588   0.279   4.771  11.456 -0.1482 -0.0779  0.1030
25309W        W45589  10.163   8.881  13.277 -0.0769  0.1002  0.3393
25310W        W45590  17.052   7.794  12.110  0.1934 -0.0854  0.0677
25311W        W45591   2.515   1.761   2.174  0.1291  0.1203 -0.0026
25312W        W45592  18.507  19.483   1.930 -0.0035  0.1501  0.1620
25313W        W45593  10.107   9.720   0.114  0.1289 -0.0503 -0.0139
25314W        W45594  19.234   3.520   3.229 -0.0265  0.1463  0.0695
25315W        W45595  16.238   4.383  10.968  0.1838  0.3003 -0.3864
25316W        W45596   7.996  12.881   1.945  0.4937  0.2725  0.1098
25317W        W45597   5.433  10.087  11.031  0.1564 -0.1891  0.5471
25318W        W45598  16.519  11.075   0.982 -0.2154  0.0788 -0.0993
25319W        W45599   7.452   8.262  11.682  0.0509 -0.1624  0.3983
25320W        W45600  13.218  17.296   2.178  0.1021 -0.2397  0.0684
25321W        W45601  19.718   7.320  13.942  0.1728 -0.2333  0.0726
25322W        W45602   7.300   1.571  13.424 -0.0393 -0.1186 -0.0441
25323W        W45603  18.121  11.422   1.078  0.1689  0.1041 -0.2826
25324W        W45604   1.582  11.302   3.378 -0.0529  0.3672  0.2254
25325W        W45605  13.759  15.283  12.196 -0.4863  0.0091  0.0589
25326W        W45606  10.845   8.912   0.369 -0.1014  0.1153  0.0890
25327W        W45607   2.377   9.190   1.290  0.1413 -0.0512  0.4640
25328W        W45608   6.964  14.599  10.824  0.1078  0.2452 -0.0749
25329W        W45609  11.626  14.677   2.895  0.0432 -0.1937 -0.0041
25330W        W45610  18.556   7.260   3.929 -0.3991 -0.1947 -0.1095
25331W        W45611   7.740  15.318   3.516  0.1879  0.0032  0.1437
25332W        W45612  18.406   1.373   0.706 -0.0809  0.0510 -0.0256
25333W        W45613  11.495   6.172  14.017 -0.1031  0.0863  0.2113
25334W        W45614  19.585   9.218   2.331  0.0141 -0.0781  0.1623
25335W        W45615   7.380  17.738  11.986  0.1629  0.0757  0.0828
25336W        W45616   1.087   2.385   3.754 -0.1002  0.0711  0.0386
25337W        W45617  15.836   7.355   1.351  0.1888  0.2630 -0.0441
25338W        W45618   8.634   5.561  10.471  0.0543  0.0498 -0.1840
25339W        W45619  15.340   8.813   0.923  0.1636  0.2370 -0.4304
25340W        W45620   4.401  16.703  13.670  0.2405  0.2145  0.2002
25341W        W45621   0.256   4.722   0.083 -0.0357 -0.1736 -0.2791
25342W        W45622   9.926  13.071   0.929 -0.0472 -0.1178 -0.1681
25343W        W45623  11.472  13.621  11.526  0.1479 -0.1616  0.0099
25344W        W45624  10.206  16.414   3.925 -0.1400 -0.5316  0.1714
25345W        W45625   1.780   5.639  11.889 -0.3793 -0.0302  0.0049
25346W        W45626  10.382   7.671   4.053  0.0032 -0.6360  0.3019
25347W        W45627  10.850  10.171  10.320 -0.0811 -0.1268  0.2522
25348W        W45628  13.398  16.856   2.290 -0.2223 -0.0251 -0.3366
25349W        W45629   6.037   0.865   3.515  0.2316  0.1425  0.2306
25350W        W45630   5.050   1.773   9.285  0.4470 -0.0528 -0.0736
25351W        W45631  11.054   9.473   3.629  0.1384  0.0492 -0.1706
25352W        W45632  14.781  10.261  13.416 -0.0553 -0.2313 -0.0491
25353W        W45633   9.955  19.611   2.998 -0.0609 -0.1577 -0.0271
25354W        W45634   7.255  11.958   3.168  0.2125 -0.0417  0.1127
25355W        W45635   8.631   3.742   1.633 -0.1771  0.1200  0.1587
25356W        W45636  14.475   8.031   3.131 -0.0859 -0.0741  0.4555
25357W        W45637  16.899  12.932   0.799 -0.2541 -0.2730 -0.1302
25358W        W45638   1.948   0.613  11.565 -0.3025 -0.1370  0.0406
25359W        W45639  19.062  16.520  13.757 -0.1010 -0.2474 -0.2218
25360W        W45640  16.954   2.744  11.332  0.2528  0.0680 -0.0466
25361W        W45641   1.071   7.064  10.255  0.2056 -0.5167 -0.1792
25362W        W45642   2.475  16.655   1.535  0.0314 -0.2882  0.2325
25363W        W45643  17.146   6.425  11.778 -0.1948  0.0469 -0.0343
25364W        W45644   9.569   5.045   2.804  0.1410 -0.0190 -0.0274
25365W        W45645   5.925   3.845   0.646 -0.0171 -0.2792  0.0083
25366W        W45646   2.292  15.213   0.759 -0.3769  0.0434  0.3022
25367W        W45647   0.962   4.714   2.607 -0.1754 -0.1335 -0.2701
25368W        W45648  12.287   3.522   2.146  0.1338  0.0969  0.2740
25369W        W45649   0.927  17.568  11.480 -0.0317 -0.3289 -0.3054
25370W        W45650   2.886   5.998  13.872  0.0611  0.0968  0.2967
25371W        W45651  11.053  15.332  13.721  0.0448 -0.2224  0.2090
25372W        W45652  12.442  18.759   1.856  0.0448  0.0800  0.0537
25373W        W45653   8.716   2.853   0.715  0.0454 -0.2956  0.0919
25374W        W45654  10.775  15.723   2.876 -0.0261 -0.1264 -0.0396
25375W        W45655  10.566  14.470  10.585  0.2658  0.2006 -0.1578
25376W        W45656   2.326  10.902  13.103  0.2399  0.1731 -0.0474
25377W        W45657  13.825  11.971   2.699  0.1942 -0.0050  0.0596
25378W        W45658   5.888  12.665  13.510  0.0748  0.3239 -0.1345
25379W        W45659  18.647   5.029  11.108 -0.2513 -0.0409 -0.0249
25380W        W45660  15.147  11.720  14.068  0.0787  0.0375 -0.0760
25381W        W45661  12.560   9.070  11.965  0.2221  0.0142  0.3233
25382W        W45662  15.271   5.812   9.933 -0.4264  0.0129 -0.1036
25383W        W45663  15.381  14.502   3.095 -0.0855 -0.0176  0.6838
25384W        W45664  16.857   6.942   4.075  0.0473 -0.1551 -0.0198
25385W        W45665   6.228  11.167   2.417 -0.1609  0.0343 -0.0855
25386W        W45666  14.765  13.763  10.394 -0.1024  0.0789  0.1511
25387W        W45667   4.606   1.225   1.327  0.5051 -0.1641 -0.0977
25388W        W45668   6.947  11.536   3.318  0.3383 -0.0299  0.0759
25389W        W45669  11.926   2.166  12.231 -0.1778 -0.1715 -0.1906
25390W        W45670  11.399  14.505   1.252  0.2068  0.1506  0.0016
25391W        W45671   5.162   4.310   4.856  0.0747 -0.0195  0.2662
25392W        W45672  17.722  11.846  13.755  0.2344 -0.1621 -0.2338
25393W        W45673  16.245  12.621   2.926 -0.0491  0.1102 -0.2901
25394W        W45674  11.414   1.860   9.781  0.1562 -0.0927  0.0602
25395W        W45675  12.579   8.100   3.052 -0.0710 -0.0355 -0.1172
25396W        W45676  11.697  17.936  13.578  0.0063 -0.1503 -0.0049
25397W        W45677  17.654   0.197   3.327  0.1655 -0.0297 -0.4361
25398W        W45678  18.134  13.451  13.480 -0.0223 -0.2872 -0.1026
25399W        W45679  15.027   2.685   9.037 -0.0244  0.3596 -0.1477
25400W        W45680  11.530   4.988   3.974  0.0052  0.1956  0.2422
25401W        W45681   5.330   3.620  11.909 -0.1916 -0.1049 -0.1601
25402W        W45682  15.054   6.043  12.361  0.3318 -0.2920  0.0035
25403W        W45683  12.017   5.647   1.063  0.2864  0.0149  0.0928
25404W        W45684  18.997  14.492   2.346  0.0136  0.0472 -0.4514
25405W        W45685  11.424  14.714   3.448  0.0800  0.2426  0.0758
25406W        W45686   1.518   4.940   2.178 -0.0824 -0.0861  0.1870
25407W        W45687  13.600   9.661   1.881  0.1614 -0.1829 -0.2401
25408W        W45688  11.289  14.251   1.853  0.0926  0.1354 -0.0013
25409W        W45689  11.585   9.164  10.962 -0.1680 -0.2151 -0.2488
25410W        W45690  10.638   5.840   3.787 -0.0225 -0.0787  0.0871
25411W        W45691   8.824  17.812  13.718 -0.1556  0.0368 -0.1429
25412W        W45692   0.671  17.577   3.021 -0.5041 -0.3653 -0.0637
25413W        W45693   0.449   7.155   3.976 -0.0392  0.0785 -0.0992
25414W        W45694   7.332   6.381  10.681  0.0004 -0.2310  0.1395
25415W        W45695   9.546   7.256   0.801 -0.0225 -0.1819  0.1844
25416W        W45696  12.710   0.858   1.005  0.1390  0.0675 -0.3466
25417W        W45697   8.546  19.256   1.147 -0.1838  0.0040 -0.1682
25418W        W45698   0.301  17.907   1.575 -0.0020  0.2141  0.3308
25419W        W45699   3.125  12.626   5.038  0.0881 -0.5369 -0.0294
25420W        W45700  18.435  12.307  12.624 -0.0804  0.2133 -0.1277
25421W        W45701  12.285  10.566  11.065 -0.0253  0.1655 -0.1208
25422W        W45702  13.824   9.250   1.630  0.1323  0.0048 -0.0654
25423W        W45703  10.713   4.345   1.634 -0.0298 -0.0741 -0.0095
25424W        W45704   8.617  19.708   3.640 -0.1568  0.1474  0.2835
25425W        W45705   0.090   4.225   0.952  0.0261 -0.1861 -0.1114
25426W        W45706  11.786   5.239   1.307 -0.0866  0.0846  0.0332
25427W        W45707   2.696   0.052  11.731 -0.1787  0.1336 -0.4132
25428W        W45708  18.194   2.011  10.636 -0.0648 -0.1239 -0.2436
25429W        W45709  18.860  12.175  13.767 -0.0451 -0.1470  0.0130
25430W        W45710   9.017  15.168  14.010  0.0632 -0.1553 -0.1872
25431W        W45711   0.963  12.909   2.596 -0.1666 -0.1142 -0.3453
25432W        W45712  10.376   2.868   2.243  0.1959  0.1927  0.0338
25433W        W45713  10.489  14.864   3.139 -0.0086  0.0280 -0.0970
25434W        W45714   1.236   3.902  13.066  0.1099  0.0191 -0.1161
25435W        W45715  15.957  12.173  13.068 -0.2104  0.1450 -0.1111
25436W        W45716  17.137   9.058   2.165 -0.0934  0.1390  0.1137
25437W        W45717   7.209  11.873  11.522  0.0331  0.1910  0.1415
25438W        W45718  17.339   5.756   1.609 -0.2468  0.3675  0.0083
25439W        W45719  10.839   0.867   0.253 -0.0968  0.3082 -0.0936
25440W        W45720  13.410   3.611  12.871  0.1005  0.0197 -0.2631
25441W        W45721  17.510  19.652  11.796 -0.3164  0.1067 -0.0675
25442W        W45722  16.864  13.339   0.151 -0.2443 -0.1046 -0.0196
25443W        W45723   4.553  13.542  12.203 -0.1767 -0.2400 -0.2201
25444W        W45724  11.363   6.944  13.243  0.0987  0.1135 -0.2327
25445W        W45725   8.967  12.606   1.420 -0.2491 -0.2401 -0.1502
25446W        W45726  17.898   1.458   9.609  0.4597 -0.0072 -0.1458
25447W        W45727   7.033   0.996   0.009  0.0261 -0.0875  0.1180
25448W        W45728  18.252  15.255  11.587  0.0555 -0.1683  0.3790
25449W        W45729  17.130   0.390   2.872 -0.1429 -0.0486 -0.1266
25450W        W45730  18.586   5.368  12.849 -0.1341 -0.1250  0.4710
25451W        W45731   6.868   2.427   1.691 -0.1052 -0.0434 -0.2469
25452W        W45732   0.532  17.593  13.061  0.0836 -0.1004  0.0596
25453W        W45733   0.470  19.001   3.229 -0.0129  0.0843 -0.1627
25454W        W45734  19.597  16.136   0.456 -0.1909 -0.1918  0.0675
25455W        W45735   6.122  16.577   0.068 -0.2922 -0.0095  0.0673
25456W        W45736   2.468  19.544   3.070  0.0821 -0.1190  0.0530
25457W        W45737  14.397   3.509  13.706  0.4564  0.0072  0.1243
25458W        W45738  13.450  10.201  10.057  0.1558  0.2326  0.0181
25459W        W45739  12.835  13.330   3.536 -0.2401 -0.1608 -0.2373
25460W        W45740   3.178  13.693   1.335 -0.1906  0.3341  0.1326
25461W        W45741   2.159   0.384   0.852 -0.0010  0.0868 -0.1585
25462W        W45742   5.307   2.586   2.202  0.0633 -0.0297  0.0059
25463W        W45743   0.760  10.647   2.076  0.0187  0.0813 -0.1463
25464W        W45744   7.757   4.454  13.312  0.2919  0.0027 -0.1280
25465W        W45745  10.934   8.993  12.808  0.0760  0.1168 -0.1272
25466W        W45746   9.808   2.709  11.181  0.0810  0.0120  0.0197
25467W        W45747  13.717  14.882   3.112  0.2240  0.2101 -0.0617
25468W        W45748  10.964   3.819  10.077  0.2900 -0.0018 -0.0300
25469W        W45749   8.187  14.786   4.036 -0.1064  0.2309  0.1199
25470W        W45750   0.047   2.424  11.559  0.2790  0.3024 -0.4122
25471W        W45751  11.347   8.920   0.605 -0.0508  0.2455 -0.0079
25472W        W45752  15.392   5.976  13.240 -0.1286 -0.0923  0.0448
25473W        W45753   3.377  19.061   2.738  0.2853  0.0919  0.0912
25474W        W45754  13.007  16.270  10.447 -0.1334 -0.0742  0.0723
25475W        W45755  18.934  18.657   2.599 -0.2973 -0.0770 -0.2050
25476W        W45756  13.646   8.934   1.192  0.1538 -0.6337  0.1454
25477W        W45757   6.830   4.181  12.341  0.2621 -0.1349 -0.3165
25478W        W45758  16.698   2.377  11.077 -0.2108 -0.2141 -0.0817
25479W        W45759  18.989   3.230   3.518  0.2596 -0.1114  0.3359
25480W        W45760   4.504  18.028  13.311  0.0394 -0.4857 -0.2366
25481W        W45761   6.294   5.281  12.837  0.2004 -0.3706  0.0722
25482W        W45762  14.261  11.118  13.450 -0.2040  0.0669  0.0682
25483W        W45763  18.052   2.402   2.234  0.1003 -0.0289  0.0962
25484W        W45764   9.182  12.800  13.209 -0.0727 -0.0758  0.2632
25485W        W45765   2.492  12.206  14.018 -0.0927 -0.0548 -0.0029
25486W        W45766   1.003   6.860   4.325  0.3028 -0.2655 -0.4567
25487W        W45767   9.082   0.021   3.438 -0.0577 -0.2911  0.2418
25488W        W45768   6.008  14.843  10.785 -0.1588  0.1195 -0.0542
25489W        W45769  10.248  16.263   4.900 -0.4590  0.2295 -0.0617
25490W        W45770   0.043   2.378   2.221 -0.2336  0.1349  0.0537
25491W        W45771   3.934   7.665   4.132 -0.1132 -0.2053 -0.2766
25492W        W45772  17.150  13.654   2.582 -0.3159 -0.0005  0.1508
25493W        W45773   4.079   5.861  12.838 -0.1622 -0.0893  0.0737
25494W        W45774  18.874   7.746   3.868  0.0434 -0.2529 -0.2385
25495W        W45775   5.455  13.594  11.261 -0.0930 -0.0694 -0.1476
25496W        W45776  15.879   5.034  10.001 -0.1209 -0.1745  0.1378
25497W        W45777  16.999  16.183   1.301  0.0157  0.0035 -0.1696
25498W        W45778   9.445  18.810  11.685  0.3756  0.2744 -0.2795
25499W        W45779   1.647   7.449   1.090  0.1360  0.4068  0.0924
25500W        W45780  18.307  15.394   3.041  0.1761  0.0894  0.0341
25501W        W45781   7.882  14.868  11.847 -0.0938 -0.4523  0.1586
25502W        W45782  17.831  13.286   9.648 -0.3046 -0.1381  0.0415
25503W        W45783   0.132   5.967   0.087  0.0151  0.3359  0.1742
25504W        W45784   9.464   6.314  10.952  0.0991 -0.2424 -0.0054
25505W        W45785  17.581   2.646   2.401  0.0101 -0.2160 -0.1500
25506W        W45786  19.079   9.429   9.541 -0.0644  0.2360 -0.0336
25507W        W45787   9.608  17.918   4.647  0.2564  0.0167 -0.1610
25508W        W45788   7.174  11.173   2.436  0.0501  0.1127  0.0421
25509W        W45789  10.657  13.493  11.302 -0.1891  0.0807  0.0396
25510W        W45790   5.703  18.285   3.065  0.0120 -0.2785  0.2197
25511W        W45791   0.227  19.549  10.175 -0.0066  0.0319  0.3125
25512W        W45792   9.331  19.730   1.568 -0.0171 -0.0738  0.0392
25513W        W45793  11.704   6.457  13.714 -0.1465 -0.1693 -0.0516
25514W        W45794   4.377   4.775   2.575  0.1753 -0.1775  0.1168
25515W        W45795   7.059   4.607   1.767  0.1316 -0.0040 -0.1062
25516W        W45796   8.448  18.373   3.842 -0.0411 -0.1044  0.2077
25517W        W45797   2.059   0.331  13.745 -0.0371  0.0334  0.0037
25518W        W45798   5.251   8.321   0.571  0.1738 -0.1587  0.3041
25519W        W45799   8.353   9.232   3.833  0.0881 -0.0255 -0.0191
25520W        W45800  14.970   7.133  13.126  0.0922  0.0372  0.1970
25521W        W45801  18.111  12.642   1.593 -0.0328 -0.1561 -0.1885
25522W        W45802  15.295   6.493  13.248 -0.0123  0.1111 -0.0130
25523W        W45803   7.199   5.450   0.914 -0.1098 -0.2991  0.0290
25524W        W45804   4.220  18.660   0.120  0.0232  0.1108  0.3307
25525W        W45805   6.684   5.607  12.703 -0.2507 -0.2107 -0.3810
25526W        W45806   8.035  14.409   0.935  0.1109  0.2404 -0.0288
25527W        W45807  12.022  19.567   0.863  0.0184  0.1746  0.1783
25528W        W45808   8.053   1.841  10.277 -0.2087 -0.1331  0.0022
25529W        W45809   2.750   0.211   0.105  0.2063  0.1535 -0.1899
25530W        W45810  18.219  12.256  11.634  0.1138 -0.5482  0.0957
25531W        W45811  19.366   0.681  11.786 -0.0003 -0.1936 -0.3007
25532W        W45812   3.265   6.441   3.605 -0.1685  0.0436  0.2024
25533W        W45813   1.273   8.169   2.097 -0.1792  0.2598 -0.0017
25534W        W45814  12.080   0.977  13.814 -0.0716 -0.2837 -0.0970
25535W        W45815   8.674  19.749   3.136 -0.1866 -0.1260 -0.1932
25536W        W45816  17.677   4.561  13.501  0.0078  0.1717 -0.0642
25537W        W45817   1.289   0.230   3.462  0.0335 -0.2402 -0.3537
25538W        W45818   8.942  18.978  10.755  0.0058  0.0880  0.0718
25539W        W45819  12.906  13.685   1.207  0.0227 -0.1631  0.1211
25540W        W45820  18.789   8.775  11.242 -0.1443 -0.2869  0.0085
25541W        W45821   1.402   6.533   1.299 -0.2655  0.1549 -0.4058
25542W        W45822   9.994  14.716   1.238  0.2879 -0.0400  0.2782
25543W        W45823  17.985   6.033  12.286 -0.1337 -0.1058 -0.1503
25544W        W45824  15.751  19.464  13.026  0.0471 -0.5950 -0.1049
25545W        W45825  14.855  19.374  10.944 -0.2033  0.2092  0.1799
25546W        W45826   2.379   2.727   1.150 -0.0077  0.3285 -0.1010
25547W        W45827  10.250   8.168   1.949 -0.0228 -0.1021  0.0204
25548W        W45828   0.432   0.156  12.099 -0.0373  0.1808 -0.2961
25549W        W45829  17.690  15.407   3.289 -0.0505  0.2613  0.1518
25550W        W45830   2.501  10.406   3.923  0.1638 -0.0553  0.1624
25551W        W45831  16.550  16.777  11.647 -0.1797  0.2141  0.0411
25552W        W45832   9.435   5.054   1.154  0.1868  0.1588 -0.1181
25553W        W45833   2.464   0.526  11.825 -0.1249 -0.0410 -0.1418
25554W        W45834  13.550  15.661  10.944 -0.0058 -0.2440 -0.2165
25555W        W45835  17.097  17.301  12.328 -0.1265 -0.3374  0.0101
25556W        W45836   3.864  11.081   2.829  0.1516  0.1397 -0.2978
25557W        W45837   3.749   6.062   3.166 -0.0838  0.1023 -0.3231
25558W        W45838   9.782  12.370   3.300 -0.1618  0.1366  0.1301
25559W        W45839   1.842  16.634   3.266  0.0114  0.0466 -0.1448
25560W        W45840   4.619   5.476   0.478  0.2406 -0.0279  0.2446
25561W        W45841   4.751  17.624  13.186  0.2589  0.0115  0.1250
25562W        W45842   4.621   9.406  13.262  0.2941  0.2616  0.0765
25563W        W45843  13.023  15.591  12.058 -0.0781 -0.1211  0.0607
25564W        W45844  18.181   4.420   1.392  0.2659 -0.1194  0.0254
25565W        W45845   7.411  19.094   0.430  0.2775  0.0126  0.0094
25566W        W45846   2.210   1.013  12.066 -0.1932  0.0256 -0.0534
25567W        W45847   6.409  12.303   3.252  0.3206  0.0745 -0.1374
25568W        W45848  11.157   9.922  12.652 -0.4613  0.1668  0.0026
25569W        W45849   7.369   7.601   2.471 -0.1387 -0.1572 -0.2128
25570W        W45850  18.895   3.192   1.450  0.0709 -0.5952 -0.0985
25571W        W45851  17.888   4.902  11.610  0.2382  0.0455  0.0472
25572W        W45852  14.677   6.025  11.035  0.2010  0.2386 -0.0699
25573W        W45853   9.988  18.228   2.082  0.0482  0.0595  0.0113
25574W        W45854   1.989   8.333  13.586  0.0212  0.0783 -0.0268
25575W        W45855   5.277   6.508   1.908 -0.1041 -0.0518 -0.0250
25576W        W45856   4.626  16.709  11.248  0.1078  0.0958  0.0441
25577W        W45857   2.867   4.775   3.103 -0.1077 -0.3717  0.0611
25578W        W45858   7.537   4.483  11.794 -0.1834  0.0084  0.3388
25579W        W45859   3.874   6.776  11.554 -0.2485  0.0848 -0.0458
25580W        W45860   4.976   8.063  13.134  0.2625  0.1771  0.2025
25581W        W45861  19.094   4.555  10.738 -0.1447  0.0111  0.1291
25582W        W45862   7.013   2.113   3.278 -0.3346 -0.0532  0.1626
25583W        W45863  14.119   0.977   1.581  0.0555  0.0328  0.2294
25584W        W45864   3.313   6.527  12.718  0.0149  0.1988 -0.4156
25585W        W45865  14.170  12.133   0.342  0.0875  0.1268  0.2451
25586W        W45866   2.553   0.153   2.306 -0.2168 -0.0393 -0.0664
25587W        W45867   7.788   6.592   3.531 -0.0908 -0.2032  0.0682
25588W        W45868  10.053   6.370  14.044 -0.1994  0.1236 -0.2062
25589W        W45869  15.128  10.813  11.725  0.0040 -0.5135 -0.2422
25590W        W45870   7.037  18.147   2.930 -0.4918 -0.1275 -0.1582
25591W        W45871  19.487  15.577  13.618 -0.3506 -0.0350  0.1945
25592W        W45872   4.194  14.516  10.634 -0.2636 -0.3453 -0.0458
25593W        W45873   2.317   3.177  12.443 -0.1207 -0.3591  0.1488
25594W        W45874  19.501  10.725  11.515 -0.2386 -0.0275 -0.0085
25595W        W45875  18.665  13.688   0.676  0.2854 -0.1544  0.2887
25596W        W45876   5.675  15.519  12.569 -0.0749 -0.0924  0.0919
25597W        W45877  10.880   1.407  11.917 -0.2427  0.0290 -0.3740
25598W        W45878  10.199   2.509  13.344  0.0150 -0.0047  0.2920
25599W        W45879   9.782   4.421  11.752  0.0462  0.0727  0.2580
25600W        W45880  15.848   0.217   1.237  0.2114  0.1097  0.1116
25601W        W45881   4.050  19.222   0.020  0.0106 -0.1022 -0.3193
25602W        W45882   2.357   3.705  12.405 -0.0626 -0.1631  0.0791
25603W        W45883   4.780  19.371   1.430  0.1286 -0.0964  0.4953
25604W        W45884   5.617  10.195  12.056  0.1770 -0.0768  0.3535
25605W        W45885   7.430  12.794   4.547  0.2369  0.4557  0.0577
25606W        W45886  18.647   3.507  12.929  0.1770 -0.3239 -0.0153
25607W        W45887  11.703  17.196   3.139 -0.5176 -0.0161  0.3077
25608W        W45888  14.028   4.762   1.365  0.1874  0.1440  0.0899
25609W        W45889  16.275   8.276  13.453 -0.1188  0.0514  0.1106
25610W        W45890   5.607  10.932  12.633 -0.1106  0.5367 -0.0808
25611W        W45891   4.657  17.205  11.439 -0.2549 -0.1008 -0.0353
25612W        W45892  17.075  15.446   1.979 -0.1143 -0.0497  0.1359
25613W        W45893   3.568   9.105   0.418 -0.3134  0.0281  0.0018
25614W        W45894  18.765  10.628   3.449 -0.1444  0.0072 -0.2021
25615W        W45895   2.219   6.694   0.961 -0.0261  0.0987  0.0989
25616W        W45896   2.299   5.875   3.551 -0.0591 -0.2173  0.1365
25617W        W45897  15.766  18.366   1.049 -0.0769  0.0079 -0.1976
25618W        W45898   3.373   5.312  12.214  0.2945 -0.1405 -0.0425
25619W        W45899   1.403   5.260   0.284 -0.1313  0.1924 -0.0305
25620W        W45900   6.241   9.495  13.177 -0.0432  0.0490 -0.1086
25621W        W45901  13.390  10.062   2.129  0.2488  0.1923 -0.0196
25622W        W45902  16.918  12.086  10.848 -0.2230 -0.4162  0.2260
25623W        W45903   6.161  12.889  12.239  0.1667  0.0367  0.1077
25624W        W45904  13.365  13.218  12.498  0.1755  0.2526 -0.0111
25625W        W45905   6.305  11.377   4.518 -0.0858  0.0797  0.3634
25626W        W45906  10.717  12.161  12.087  0.1908 -0.0818  0.3968
25627W        W45907   3.264  12.579   2.238  0.0138  0.1867  0.0367
25628W        W45908  12.710  10.480  13.985 -0.0355 -0.0486 -0.3057
25629W        W45909   1.035  12.705   9.484  0.0216  0.1207 -0.1141
25630W        W45910   6.508   9.339   3.936  0.2597 -0.0197  0.2646
25631W        W45911  14.099   2.244   0.729 -0.1850 -0.3661  0.0835
25632W        W45912  11.563   8.329   0.589  0.2482  0.2079  0.2620
25633W        W45913   5.734  17.121  13.406 -0.1587  0.2579  0.3496
25634W        W45914  11.479  16.734   3.381  0.2530  0.0021 -0.0435
25635W        W45915  18.519   2.658  10.173 -0.1953 -0.0844  0.0202
25636W        W45916  12.392  16.587  10.431 -0.2412 -0.3765 -0.1718
25637W        W45917  11.990   4.951  13.254  0.0565 -0.0775  0.0813
25638W        W45918  12.610   2.862  13.589  0.3949  0.0777 -0.2217
25639W        W45919   5.463   7.943   3.094 -0.0412  0.4504  0.0172
25640W        W45920  16.260   6.858  12.000 -0.0247  0.1879  0.1665
25641W        W45921   5.714  10.858   1.093  0.0604  0.2551 -0.0377
25642W        W45922  14.504  16.714   0.005 -0.3958  0.1784  0.0430
25643W        W45923  19.014   2.752   9.592 -0.3382  0.0349  0.1104
25644W        W45924  16.122   4.700  13.992  0.0718 -0.1308  0.0584
25645W        W45925  13.002  19.317   4.562 -0.0331 -0.0159  0.0855
25646W        W45926   5.068  19.514   9.662  0.1269 -0.1770 -0.0338
25647W        W45927   5.049  12.300   0.835  0.0864  0.0530 -0.4115
25648W        W45928   6.593  10.748   3.970  0.3854  0.2824 -0.4116
25649W        W45929  18.825  16.218  11.911  0.4197  0.0752 -0.3142
25650W        W45930   8.780   4.631   2.289 -0.1615  0.1549 -0.0053
25651W        W45931   5.690   0.943  12.097 -0.0418 -0.0388  0.4561
25652W        W45932  15.725   3.695   2.622  0.2631  0.0778 -0.1830
25653W        W45933   6.470   0.358  13.936  0.2958 -0.0689 -0.3994
25654W        W45934   6.237  19.726  11.331 -0.0654  0.0720  0.2326
25655W        W45935  14.474  19.384   3.301  0.2978 -0.0541  0.0628
25656W        W45936   1.053   2.219  10.397  0.1145  0.0670  0.3019
25657W        W45937  18.508  18.310  13.074 -0.0242  0.0324  0.1774
25658W        W45938  18.884  15.554   2.270 -0.1539 -0.1881  0.1346
25659W        W45939   1.571  12.882  13.338  0.1496  0.1106  0.0083
25660W        W45940  16.968  12.725  11.849  0.5086  0.1297 -0.1026
25661W        W45941  10.352   3.320   2.763  0.0515 -0.4141  0.1387
25662W        W45942   4.135   6.494   9.279 -0.1964 -0.0547  0.2992
25663W        W45943  11.465   0.944  12.192  0.1732  0.0431  0.0740
25664W        W45944  16.186   8.606  12.730 -0.0782  0.1198 -0.1853
25665W        W45945   8.458   5.865  11.783 -0.0042  0.2002  0.0870
25666W        W45946   8.140  14.936  12.882  0.3064 -0.1173 -0.0459
25667W        W45947  11.316   4.708  11.162 -0.3573 -0.2990  0.0829
25668W        W45948  17.322  15.796   3.621  0.1211 -0.1606 -0.1735
25669W        W45949  10.190  16.717  12.048 -0.0627  0.0696  0.0138
25670W        W45950   2.908  17.609   0.429 -0.6473  0.0212 -0.0615
25671W        W45951   8.461   0.070  13.347 -0.1483 -0.4162  0.2240
25672W        W45952  15.658  16.372  10.963  0.0057  0.1248  0.3123
25673W        W45953   1.601  18.590   4.169  0.0860 -0.3828  0.0368
25674W        W45954   3.904   3.718   0.591  0.1509 -0.2262  0.0316
25675W        W45955  15.463   4.751  10.919 -0.1268  0.0162 -0.0826
25676W        W45956   7.925   8.801  11.051 -0.1269  0.1562 -0.0906
25677W        W45957   1.136   7.450   3.653  0.1292 -0.0227  0.1193
25678W        W45958   9.343  19.115  10.498 -0.1428 -0.1019 -0.0018
25679W        W45959  12.831   0.534   1.354  0.2606 -0.3716  0.0725
25680W        W45960   2.957  12.496   0.906 -0.2257 -0.2034 -0.1427
25681W        W45961   2.862  12.969  11.634  0.1702 -0.1009 -0.1151
25682W        W45962  15.542  15.101  11.925 -0.0036 -0.1432  0.0686
25683W        W45963   5.443   2.155   2.452 -0.1226 -0.3179  0.3749
25684W        W45964  13.910  12.088  13.725  0.0012  0.0840 -0.2677
25685W        W45965  18.058  14.963  12.578  0.0066 -0.1110  0.1435
25686W        W45966   0.542  19.715   1.662  0.3394  0.0281  0.3304
25687W        W45967   2.271  18.219   2.511 -0.0452 -0.2344 -0.0381
25688W        W45968  12.452  17.021  11.739 -0.0285 -0.2104 -0.0060
25689W        W45969   1.885   2.785  13.477 -0.1517  0.0409  0.1660
25690W        W45970  18.308  18.905   3.233  0.1425  0.1398 -0.2207
25691W        W45971  15.787  11.355   0.252 -0.0730  0.0088 -0.0869
25692W        W45972   6.327   5.830  10.763  0.3039  0.5550  0.0816
25693W        W45973   6.948   1.113  11.853 -0.0680  0.2428  0.2299
25694W        W45974  18.831  19.231  13.294 -0.2409 -0.1000  0.2852
25695W        W45975  12.063  14.803   0.583  0.1845  0.1413 -0.0381
25696W        W45976   9.461   6.487   2.616  0.2640 -0.1303  0.2561
25697W        W45977   9.814   8.384   2.103 -0.0758 -0.1446 -0.0361
25698W        W45978   5.811   9.403  10.453 -0.2195 -0.1067 -0.1058
25699W        W45979  11.487  15.485   0.740  0.1133  0.0638  0.0152
25700W        W45980  13.057   2.949   1.326  0.1257  0.4204 -0.0029
25701W        W45981  12.290  15.459  13.813 -0.0105  0.0557  0.1330
25702W        W45982  12.409   9.619   1.918 -0.0257  0.1711  0.0461
25703W        W45983   4.634  17.598   0.867  0.4918  0.0545  0.2934
25704W        W45984   9.496  10.144   1.415  0.1726 -0.2104  0.3310
25705W        W45985   0.087   3.767   1.285 -0.0749 -0.0370  0.3505
25706W        W45986   7.293  13.474   1.630 -0.1663  0.0395  0.3182
25707W        W45987   3.939  19.569   2.741 -0.1350  0.0294  0.0212
25708W        W45988  17.111   2.699   9.713 -0.0664  0.3286  0.1506
25709W        W45989   4.736  17.417   4.860 -0.0183  0.1448 -0.2488
25710W        W45990  17.224   7.726  12.731 -0.0518 -0.1201  0.3101
25711W        W45991  10.954  10.606   4.255 -0.2217  0.0927 -0.1818
25712W        W45992   6.798   3.690   1.639  0.0846 -0.0288 -0.3145
25713W        W45993   8.357  14.350  12.903  0.4201 -0.0802 -0.0658
25714W        W45994   9.316   4.467  12.782 -0.1147  0.1730 -0.0402
25715W        W45995  17.069  10.580   9.080 -0.0386 -0.2093 -0.0760
25716W        W45996   7.374  14.495   3.826  0.0578 -0.0982 -0.1206
25717W        W45997  16.852   0.354  13.880 -0.0973 -0.1727  0.0691
25718W        W45998   6.608   3.901  13.627 -0.1791  0.0284 -0.0038
25719W        W45999  11.617  17.852   1.664  0.2647  0.1910 -0.0874
25720W        W46000  11.161  12.662  12.966  0.1110 -0.0686 -0.2425
25721W        W46001  15.469   2.605   1.531  0.0369  0.1948 -0.0785
25722W        W46002  10.286  13.203   0.241 -0.2419 -0.3086  0.1200
25723W        W46003   2.839  15.453   4.151  0.2058  0.0551 -0.0521
25724W        W46004   3.200  11.729  12.514  0.2740 -0.1578  0.0147
25725W        W46005   8.980  12.316   3.147 -0.1206 -0.2834  0.0248
25726W        W46006   6.847   6.514   0.981 -0.2024  0.0820 -0.0914
25727W        W46007  16.916   3.191   2.075 -0.1768 -0.1527  0.1048
25728W        W46008  19.562  12.807   0.600 -0.3654 -0.2595 -0.1704
25729W        W46009  11.147   9.707  11.665  0.1764 -0.0786 -0.1139
25730W        W46010   0.033  13.530   1.745 -0.4369 -0.0251  0.0273
25731W        W46011  16.908  11.595   0.103  0.0660  0.0793  0.1170
25732W        W46012   8.426   2.919  13.412  0.0541 -0.0321  0.2502
25733W        W46013   1.081  17.158  11.086  0.0106 -0.0146  0.1333
25734W        W46014  12.850  13.154   1.351  0.1333 -0.2121 -0.2144
25735W        W46015   5.166  12.912  10.217 -0.1584 -0.0608 -0.1949
25736W        W46016  19.483   5.656  13.468 -0.1574 -0.2380 -0.3446
25737W        W46017  12.362  10.458  12.029 -0.4130 -0.2473 -0.0750
25738W        W46018   6.761  16.954   1.203  0.1582  0.1933 -0.0968
25739W        W46019  13.472  10.134  11.442  0.0614  0.0016 -0.0335
25740W        W46020  11.144   3.060   0.592  0.2547 -0.0689 -0.1650
25741W        W46021   6.816   3.968   3.327  0.1696  0.0371 -0.1921
25742W        W46022   2.740  11.220   3.975  0.1847  0.1788 -0.3037
25743W        W46023  11.424   7.913   0.162  0.0001  0.0012 -0.2996
25744W        W46024  15.566   6.000  12.503  0.0982  0.0199  0.3874
25745W        W46025  12.684   9.287   3.754  0.3107 -0.0525 -0.0771
25746W        W46026  19.395   1.113   4.235 -0.1853 -0.0286 -0.1237
25747W        W46027  18.154  17.100   5.078 -0.0076  0.2621 -0.1961
25748W        W46028   9.883   0.339   3.003 -0.0548 -0.1220 -0.0131
25749W        W46029  16.871  14.706   0.791  0.1393  0.0904  0.0473
25750W        W46030   6.890  14.124  10.596 -0.5101 -0.0063  0.1904
25751W        W46031   1.840  13.364   3.562  0.1336 -0.1306 -0.1553
25752W        W46032   7.394   1.167  11.594 -0.2934 -0.1878  0.0935
25753W        W46033   1.132  18.782   0.914 -0.5010  0.1653  0.0249
25754W        W46034  12.218   6.042   4.653 -0.1807 -0.0211  0.0146
25755W        W46035  18.329  13.650   3.589 -0.1378  0.1473  0.1051
25756W        W46036   6.268  14.990   3.849  0.0001 -0.0621 -0.1100
25757W        W46037   1.821  14.062  10.338  0.1420 -0.0756 -0.0412
25758W        W46038  13.980   3.174  12.219  0.1984 -0.1294 -0.3663
25759W        W46039   8.922   4.973  13.223 -0.1389 -0.0243 -0.0025
25760W        W46040  16.776  16.335   2.277 -0.0563  0.0001  0.0484
25761W        W46041   5.102  19.538   0.368  0.0730 -0.0871 -0.4029
25762W        W46042  10.700   9.670   0.940  0.0027 -0.1669 -0.0502
25763W        W46043   7.755   3.064  13.614 -0.1651 -0.0573  0.1869
25764W        W46044  17.648  11.579   0.917 -0.0412 -0.0896 -0.0494
25765W        W46045   0.215  18.916  13.885  0.3063 -0.2588 -0.4553
25766W        W46046   8.995   5.836  13.107 -0.0734 -0.0306  0.1405
25767W        W46047  10.993   7.299   3.346  0.2860 -0.0613  0.0582
25768W        W46048   9.247  18.711   4.037  0.2917 -0.2043  0.0942
25769W        W46049   9.806  19.164   0.408  0.1415  0.0826 -0.2628
25770W        W46050  18.336   9.754   2.403  0.0335 -0.1493  0.3836
25771W        W46051   9.756   2.733   3.173 -0.2073 -0.0771  0.1759
25772W        W46052   8.288   9.250   3.351 -0.2168 -0.1190  0.1357
25773W        W46053   0.608   8.321  13.483 -0.1608  0.0318  0.3268
25774W        W46054  18.424  16.228   0.627 -0.0493  0.1089 -0.0837
25775W        W46055  14.033   9.875  13.261 -0.1667  0.3834 -0.2918
25776W        W46056   7.950  16.704  11.485 -0.1257  0.0644 -0.0130
25777W        W46057  11.564   1.510   1.696 -0.0024 -0.0156 -0.0941
25778W        W46058  17.384   4.923  12.838 -0.1852 -0.0155  0.3190
25779W        W46059   4.221  17.184  11.243 -0.0882 -0.5448  0.1422
25780W        W46060  18.292  10.869   2.217 -0.0695  0.1326 -0.0027
25781W        W46061   8.401  19.253   0.179 -0.0621 -0.0743  0.4035
25782W        W46062  14.527   4.934  11.900  0.2497 -0.1800  0.0829
25783W        W46063  13.680  13.184  10.090 -0.0862  0.0646 -0.0904
25784W        W46064   6.351  15.371  13.420 -0.1542 -0.0454 -0.2774
25785W        W46065  10.379  15.382   2.829 -0.4361  0.0662  0.2650
25786W        W46066  18.421  10.984  13.135 -0.3207  0.0792  0.1978
25787W        W46067  11.480   7.389  13.117 -0.2863  0.1381 -0.0154
25788W        W46068   8.778   7.042   0.305  0.2357 -0.0324  0.1546
25789W        W46069  15.373   4.000   3.474  0.0733 -0.1085  0.1818
25790W        W46070   1.164   9.137   1.813  0.1390 -0.1624 -0.0688
25791W        W46071  11.911   4.510   9.117  0.0727 -0.2901  0.3548
25792W        W46072   0.096   5.708  10.639  0.0281  0.0718 -0.0450
25793W        W46073   6.772   6.512   2.015 -0.2274 -0.1692  0.1803
25794W        W46074  14.986  15.208   1.800 -0.3198  0.2841  0.1344
25795W        W46075   6.421   3.129  12.452 -0.0186 -0.1506 -0.0817
25796W        W46076  11.013   1.684  13.539  0.1399 -0.0636  0.2114
25797W        W46077  16.188   7.263   2.528  0.1423  0.1456  0.0589
25798W        W46078   4.741  18.462  13.189  0.1444 -0.2215  0.0640
25799W        W46079   4.832  16.450  10.005  0.1182  0.1816  0.1353
25800W        W46080   2.160   1.116   3.817  0.1535 -0.1091  0.0706
25801W        W46081   8.183  10.338  11.846  0.0389  0.1370 -0.2489
25802W        W46082   6.364  11.340  11.759 -0.4434  0.1960  0.0098
25803W        W46083   8.393   1.221  11.889  0.1538 -0.2294 -0.2136
25804W        W46084  16.093  16.099  13.563 -0.3339  0.0590 -0.1205
25805W        W46085  15.909   9.305  13.394 -0.3194  0.1220 -0.1408
25806W        W46086   8.590  15.116   4.041 -0.3574 -0.1760  0.1392
25807W        W46087   7.247   1.906  12.458 -0.3844  0.3050  0.2013
25808W        W46088   4.461   9.826   0.383 -0.0139  0.2055  0.1105
25809W        W46089  17.294   2.257   1.068  0.0800 -0.2001 -0.1297
25810W        W46090   1.463   5.409   4.081  0.2943  0.0239  0.0051
25811W        W46091  12.224   8.233  10.420 -0.2271  0.0461  0.2795
25812W        W46092   2.446   4.781   3.441  0.1786  0.1804  0.0832
25813W        W46093  18.192  19.526   1.420  0.0346  0.1891  0.1287
25814W        W46094   9.423  12.060   0.965  0.1387 -0.0343  0.1538
25815W        W46095  17.824  12.138  13.322 -0.3675 -0.2838 -0.0703
25816W        W46096  12.128  15.772   1.392 -0.0354 -0.1225  0.1908
25817W        W46097  10.583  13.031  12.287 -0.0393 -0.0499  0.1972
25818W        W46098   8.255  11.512   0.846  0.0030  0.2787 -0.1508
25819W        W46099  12.188   6.365   2.111 -0.2697  0.0062 -0.2067
25820W        W46100  16.785  14.890   3.251 -0.0284  0.2091 -0.1536
25821W        W46101  14.931  17.346  13.711  0.0157  0.0005  0.2052
25822W        W46102   6.895  18.215   3.805 -0.2316 -0.0855 -0.0986
25823W        W46103  11.476   1.974  11.321  0.0942  0.0037  0.0262
25824W        W46104  12.127   2.960   0.236 -0.0522  0.1029  0.3643
25825W        W46105   0.856  17.347  14.024 -0.1129  0.1335  0.1717
25826W        W46106   1.488   9.365   0.896  0.0414 -0.0512  0.2273
25827W        W46107  19.112   2.643  10.883  0.1986  0.3271 -0.2828
25828W        W46108   1.488   0.474  13.076  0.0101  0.2306  0.0714
25829W        W46109  17.376  18.060  10.663  0.0191 -0.2018 -0.1796
25830W        W46110  10.354   7.991  11.278 -0.1863 -0.0380 -0.0003
25831W        W46111   3.154  15.211   3.842 -0.0117 -0.0301  0.1299
25832W        W46112  18.890  14.067   2.615 -0.0459  0.1865  0.0141
25833W        W46113   2.426   5.522   9.491  0.0082  0.0790  0.0778
25834W        W46114   3.757   3.666  10.433  0.3220 -0.1017 -0.0006
25835W        W46115  18.580  11.336   0.837  0.0345  0.3598 -0.1750
25836W        W46116  17.281  10.267  13.009 -0.0029 -0.1570  0.1594
25837W        W46117   7.977   1.588   0.470  0.0216  0.0577  0.3789
25838W        W46118  11.973  15.908   3.535  0.1025  0.2890  0.0887
25839W        W46119  14.454   5.180  13.206 -0.0664  0.0902  0.1783
25840W        W46120   1.553  13.383  12.238 -0.0022 -0.0725  0.0811
25841W        W46121  18.741   3.121  12.564  0.1609 -0.2743 -0.4798
25842W        W46122   2.005  12.322  13.740  0.0986 -0.1237  0.0438
25843W        W46123  12.233   4.105  13.117  0.0617  0.1470 -0.0609
25844W        W46124   1.512  18.846   0.131  0.4899 -0.0820 -0.1348
25845W        W46125  14.032   8.720   3.784 -0.3222 -0.1100  0.0892
25846W        W46126   9.482   6.038   3.526  0.1633 -0.0672 -0.2478
25847W        W46127  12.974  12.861   0.057  0.1264 -0.0139  0.2495
25848W        W46128   5.879   9.245   0.324  0.2420  0.0780  0.0297
25849W        W46129  16.619  17.491  10.704  0.2132  0.0784 -0.2103
25850W        W46130  12.744  14.780  11.180  0.1554 -0.2342  0.1788
25851W        W46131  12.293   1.873  12.452  0.1497 -0.0307 -0.1885
25852W        W46132  18.555   0.258  10.301 -0.0591  0.0671 -0.3856
25853W        W46133  16.769   9.450   3.489 -0.0244  0.0289  0.3437
25854W        W46134  10.406   3.451  10.813  0.0895 -0.2543 -0.0935
25855W        W46135   7.106  15.061  13.102  0.4328 -0.0983 -0.1414
25856W        W46136  18.447  18.811  13.060 -0.1503 -0.0547 -0.0304
25857W        W46137  11.348   5.134   0.868  0.0739  0.0693 -0.1666
25858W        W46138  16.795   9.094  13.438  0.0952  0.2194 -0.3036
25859W        W46139   1.371  15.051  12.806 -0.0583 -0.0191  0.0280
25860W        W46140  11.194  10.552  11.192  0.2265  0.3685  0.0546
25861W        W46141   1.560  19.772  12.911 -0.0888  0.2460 -0.1380
25862W        W46142   3.474  14.184  12.798  0.0667  0.3736 -0.2518
25863W        W46143   2.059  17.563  10.297  0.0641  0.0905 -0.0798
25864W        W46144   8.093   1.454   9.632  0.0337  0.2920  0.0555
25865W        W46145   2.895   7.133  11.612  0.0016 -0.0085  0.1937
25866W        W46146   1.776   7.897   1.570  0.2203 -0.0326  0.0985
25867W        W46147  13.836   6.704  12.196  0.2895  0.0756 -0.0492
25868W        W46148   4.966   6.539   1.349 -0.0520 -0.0570  0.1091
25869W        W46149   0.844   9.239  10.931  0.1603  0.0836  0.2005
25870W        W46150  15.197   5.568  13.503 -0.2016  0.1438 -0.0601
25871W        W46151  15.245  13.672  10.528 -0.3511  0.0571 -0.2847
25872W        W46152  12.505  12.218   3.328 -0.2202 -0.0563  0.2452
25873W        W46153  13.845  17.657   0.384  0.3059  0.2334 -0.2021
25874W        W46154  16.273  17.328  12.155  0.1136 -0.1531 -0.0406
25875W        W46155  10.787   1.879  10.548  0.1361  0.1782 -0.3469
25876W        W46156   9.060   8.216   2.454  0.0356  0.1171  0.3284
25877W        W46157  19.764   0.395   0.187  0.1294 -0.0802  0.1238
25878W        W46158   7.342  12.563   1.573  0.0568  0.2211 -0.2715
25879W        W46159   0.071   5.967   2.995 -0.2612 -0.0242 -0.0409
25880W        W46160   8.088   5.439   2.249 -0.2791  0.0347 -0.0282
25881W        W46161  15.610  15.036   0.237 -0.4381 -0.0106  0.3500
25882W        W46162   3.522   4.032   0.541 -0.0605 -0.1002 -0.3190
25883W        W46163   7.879  17.724  11.757 -0.0843  0.0929  0.2687
25884W        W46164   4.876   7.403  12.664 -0.1165  0.3629  0.4693
25885W        W46165  11.950   1.757   1.459  0.3574  0.3596 -0.0877
25886W        W46166   6.197   6.660   2.249 -0.0225  0.0750  0.2498
25887W        W46167   9.342  13.570  11.903 -0.1677 -0.1820  0.0584
25888W        W46168   0.880   1.355  12.903  0.3323 -0.1061 -0.1276
25889W        W46169   6.126  17.228  10.084 -0.0606 -0.1255  0.2466
25890W        W46170   5.558  16.998  10.296 -0.0816 -0.1580 -0.1408
25891W        W46171   4.230  10.191  13.680  0.1829  0.3756 -0.3198
25892W        W46172   0.057   6.872  12.449 -0.0401 -0.1023 -0.0754
25893W        W46173  16.577   6.140   1.701 -0.1640  0.0351 -0.3057
25894W        W46174   4.732  18.700   0.159  0.2200 -0.1936 -0.1601
25895W        W46175  11.354   3.301  12.975 -0.2015  0.3123  0.2394
25896W        W46176  18.290   5.172   2.643  0.1142 -0.1459 -0.0075
25897W        W46177  18.178   5.176  11.094 -0.1240 -0.0237 -0.0866
25898W        W46178  18.619  18.210   0.670  0.1108 -0.3241 -0.1578
25899W        W46179  10.456  12.672   0.176  0.0310  0.0390 -0.0371
25900W        W46180  13.113   6.085  10.678  0.0504  0.0702  0.0911
25901W        W46181   2.157   6.915  12.030  0.0701  0.1134  0.1714
25902W        W46182  18.724  15.839   3.302  0.1544 -0.0241  0.0704
25903W        W46183   0.148   7.949  12.280 -0.1117 -0.0795 -0.2921
25904W        W46184   5.769   9.604   2.016  0.1113  0.1291 -0.3038
25905W        W46185   6.887  15.894   2.030 -0.1988  0.0647 -0.1176
25906W        W46186   1.835  16.720  10.901 -0.1344 -0.0664 -0.0758
25907W        W46187   0.611   0.694   3.262  0.1660 -0.1216  0.0220
25908W        W46188  11.548   5.737  12.991 -0.0095 -0.0754 -0.2912
25909W        W46189   9.050  11.448   0.446 -0.1274 -0.1890  0.3563
25910W        W46190   1.418   0.793   3.436  0.0608 -0.0045  0.0981
25911W        W46191   8.501   8.234   3.242  0.1918 -0.1777  0.2528
25912W        W46192   5.730  13.708  12.010  0.1413  0.0997  0.0919
25913W        W46193   4.999   2.164   1.412 -0.3506  0.1557 -0.1515
25914W        W46194   6.304   4.373  10.464 -0.1691 -0.1056 -0.3073
25915W        W46195  18.122  10.679   3.081  0.3577 -0.1957  0.0087
25916W        W46196   9.115  10.549   0.629 -0.0549 -0.0452 -0.1398
25917W        W46197  19.286  15.393  11.640  0.0754  0.1112  0.0141
25918W        W46198   4.326   5.413  11.097 -0.2149  0.1769  0.1173
25919W        W46199  14.153  12.451   0.887 -0.2251  0.1520  0.3226
25920W        W46200   1.220  18.614  12.989 -0.0634  0.1460 -0.0802
25921W        W46201   8.515  17.961  12.894  0.1484 -0.0021 -0.1333
25922W        W46202   0.683  19.576  10.581  0.0677  0.1580 -0.0997
25923W        W46203   1.715   8.759  11.481  0.1215 -0.2609 -0.2515
25924W        W46204  11.904   0.446   2.938  0.0869 -0.1003  0.1388
25925W        W46205  10.581   2.044  12.710 -0.5291 -0.0249 -0.1771
25926W        W46206  11.448  11.714  13.405  0.0754 -0.1321  0.1106
25927W        W46207  16.543   9.813   3.265 -0.4023  0.1171  0.0371
25928W        W46208   9.363   1.609  12.053 -0.2338  0.0339 -0.0225
25929W        W46209   1.481  11.284  12.342 -0.0508  0.0053  0.0093
25930W        W46210   8.748   9.809  13.677  0.0342  0.1048 -0.3395
25931W        W46211   2.732   7.894   3.942 -0.4159 -0.2572 -0.1631
25932W        W46212   1.047  19.044   4.945  0.3523  0.0698  0.2607
25933W        W46213  13.525   4.931  12.758 -0.0433 -0.2704  0.1600
25934W        W46214  10.610  14.714   3.618 -0.2970 -0.1215 -0.4187
25935W        W46215   4.714   2.256   0.967 -0.2576 -0.1171 -0.0384
25936W        W46216  12.835  19.780   2.196  0.1412  0.2696  0.4664
25937W        W46217  14.033  12.647  13.235  0.1978 -0.1190 -0.2457
25938W        W46218   0.330  18.578   9.242 -0.0511 -0.0566  0.1138
25939W        W46219  19.694   5.923   2.423  0.0372  0.1905  0.0878
25940W        W46220  13.300   1.677   9.941  0.1165  0.0017  0.1313
25941W        W46221   4.811   2.754  12.169 -0.2540  0.1691 -0.0473
25942W        W46222   0.870   8.446  12.123 -0.1308  0.0462  0.0808
25943W        W46223  12.661   6.624   2.097 -0.0392 -0.0907 -0.0313
25944W        W46224  14.702  13.652  12.985 -0.1375 -0.0020 -0.0137
25945W        W46225   4.449  14.208   2.321  0.1558 -0.1560  0.0521
25946W        W46226  16.033   5.391   1.717 -0.0790  0.1641  0.0062
25947W        W46227   5.959  13.149  11.453  0.2617  0.2115 -0.1680
25948W        W46228   3.414  19.215  12.262 -0.0727  0.3142  0.0558
25949W        W46229  16.145   3.152   1.342 -0.3315  0.0024 -0.0800
25950W        W46230  11.653  14.622  13.703 -0.1405 -0.0090 -0.2084
25951W        W46231   9.948  16.827   3.719  0.0789 -0.0537  0.1531
25952W        W46232   0.378  18.928  13.375  0.0699  0.1168  0.2295
25953W        W46233  10.079   8.739   1.767 -0.0476 -0.0454  0.1344
25954W        W46234   0.750   0.781  10.287 -0.1489 -0.0501 -0.0090
25955W        W46235  10.617   2.554   9.989  0.1398 -0.2334 -0.2685
25956W        W46236  10.212  11.460   3.051  0.0974 -0.2653 -0.0067
25957W        W46237  13.381  11.111  11.464 -0.0235 -0.3341 -0.2345
25958W        W46238  10.487   8.385  10.923 -0.0270  0.1376  0.0189
25959W        W46239   8.260  17.195  10.642 -0.1971 -0.3585  0.1399
25960W        W46240   9.221  19.350  11.423 -0.1039 -0.0812 -0.0613
25961W        W46241   3.048   8.442   1.837 -0.1682 -0.0074  0.2337
25962W        W46242   9.385   3.786   8.977 -0.0544  0.2445 -0.1595
25963W        W46243   2.511  10.624   2.065  0.2035 -0.0667  0.2072
25964W        W46244   5.624   0.746  11.277 -0.2870 -0.0101 -0.3156
25965W        W46245  16.956   1.129  13.515  0.1564 -0.1563  0.4031
25966W        W46246   8.539   4.388  10.204  0.2682  0.0001 -0.3292
25967W        W46247   3.569  15.893  11.429  0.0351  0.0625  0.2752
25968W        W46248  18.649   8.508   1.873  0.1715 -0.2648 -0.5411
25969W        W46249   3.087   0.950  13.809  0.2170 -0.1639  0.0267
25970W        W46250  19.250   3.179   1.802  0.1435 -0.2469  0.1105
25971W        W46251   8.413  12.344  13.832 -0.0148  0.1643  0.2141
25972W        W46252   3.648   1.474  10.766 -0.1306 -0.5251  0.0109
25973W        W46253   9.256   3.591   0.947 -0.0571  0.2099 -0.2555
25974W        W46254   3.452  14.004   1.551  0.4639 -0.1715 -0.1003
25975W        W46255  14.175   4.608   2.461  0.1757 -0.0689 -0.0615
25976W        W46256  16.519  17.443   0.304 -0.0513 -0.2147 -0.3045
25977W        W46257   9.249   5.344  11.547 -0.2273  0.0619  0.0004
25978W        W46258  19.660   3.293   1.233 -0.0493  0.0247 -0.1861
25979W        W46259   7.861   7.592  14.093 -0.0346  0.3124  0.0194
25980W        W46260  16.567   8.988  11.336 -0.0239  0.1084 -0.2783
25981W        W46261   4.663  10.075   0.750  0.0029 -0.0004 -0.1529
25982W        W46262  12.055  10.709   1.682  0.0446  0.1372  0.1510
25983W        W46263   2.080   4.236  13.628  0.3601 -0.1655 -0.1580
25984W        W46264  18.416   7.033  12.437  0.1285  0.1755 -0.3642
25985W        W46265   1.042   8.348   0.046  0.0754  0.0698 -0.0491
25986W        W46266   8.161  15.365  10.562  0.2892 -0.2672 -0.1539
25987W        W46267  14.803   1.044   3.653  0.1297  0.1720  0.1168
25988W        W46268   0.106   8.749   1.755  0.2963  0.1713 -0.2146
25989W        W46269   4.165   9.133  13.116  0.4922 -0.1329  0.1239
25990W        W46270  11.147  19.434   2.064 -0.0456  0.2137  0.4157
25991W        W46271   2.938  13.571   4.324  0.0167  0.1085  0.1932
25992W        W46272  11.333   3.077   2.580 -0.0623  0.2502 -0.1621
25993W        W46273   5.056  18.359   2.398  0.0688 -0.0291  0.0906
25994W        W46274   4.539  19.081   1.810  0.1642  0.1291 -0.2511
25995W        W46275  15.553  19.523   1.166  0.1671  0.2731 -0.0226
25996W        W46276  16.333  14.419   2.465 -0.0761  0.0092  0.0448
25997W        W46277   5.066  13.132  13.207  0.0687  0.0127 -0.1501
25998W        W46278  12.104   1.719  11.397  0.4364 -0.2199 -0.0024
25999W        W46279  17.998  16.864   2.415  0.0342 -0.1218 -0.1203
26000W        W46280  16.791  18.652  13.244  0.0241  0.5072 -0.0641
26001W        W46281  10.237  12.665   0.843  0.0852  0.1568  0.1265
26002W        W46282  18.677   3.417  13.896 -0.1932 -0.1415 -0.0831
26003W        W46283  10.876  13.429  12.299 -0.0836 -0.3185  0.2816
26004W        W46284  17.463  12.267  13.677  0.1156  0.3159  0.0712
26005W        W46285  15.742  16.270  11.615  0.0002  0.2077  0.2797
26006W        W46286   6.191  15.493  12.166 -0.0408  0.2266 -0.1892
26007W        W46287   6.441  16.727  13.832  0.0515  0.2091  0.1122
26008W        W46288   1.750  15.580  13.062  0.2634 -0.1655 -0.0746
26009W        W46289   9.102  10.225  10.794  0.0404 -0.0594  0.0607
26010W        W46290   1.698  17.765   2.805  0.1976  0.1664 -0.1345
26011W        W46291   9.948  13.117   2.334  0.1084  0.0337  0.1248
26012W        W46292  19.056   2.310  11.301  0.1964 -0.0793  0.2177
26013W        W46293  14.357  15.693  11.515 -0.2276 -0.1539  0.2866
26014W        W46294   4.964  15.671   9.633  0.4971  0.1312  0.1459
26015W        W46295  12.129   2.974   1.474 -0.0640  0.4119  0.0011
26016W        W46296   6.161   9.345   2.107 -0.2104 -0.1437 -0.0751
26017W        W46297  10.772   7.386  12.046  0.0142 -0.1772 -0.0873
26018W        W46298   6.975   6.672   3.932 -0.0619 -0.1064 -0.1985
26019W        W46299   9.466   8.080   1.508  0.3855 -0.1499  0.2779
26020W        W46300  18.192   9.115   3.054  0.1721 -0.1277 -0.1677
26021W        W46301  15.318   6.522  12.439 -0.0235  0.0093  0.2173
26022W        W46302  14.901  10.215  13.899 -0.0478 -0.0400 -0.1788
26023W        W46303  16.280   2.273   2.411  0.0791  0.2149  0.1365
26024W        W46304  15.547  15.099  12.443  0.2891  0.3679  0.0301
26025W        W46305  14.232   7.496  13.397  0.0257 -0.0801  0.3302
26026W        W46306   8.913   4.500  11.928 -0.1128  0.1129  0.0596
26027W        W46307   6.012  13.956  13.692 -0.0675  0.0934  0.1270
26028W        W46308   9.065  15.212  10.260  0.2620 -0.1033 -0.1589
26029W        W46309   3.474  19.452   3.491  0.0058 -0.1417 -0.1980
26030W        W46310   1.970  12.457  13.242 -0.0522 -0.1286 -0.2035
26031W        W46311   4.946  11.986   1.884  0.2573  0.2072 -0.1997
26032W        W46312  12.244   6.675  11.747 -0.0134  0.1086  0.1232
26033W        W46313  11.097  15.968  11.267 -0.0792  0.0117 -0.0956
26034W        W46314  16.054   9.320  12.284  0.0039  0.0554 -0.1655
26035W        W46315  10.982  16.395  12.991  0.1505  0.3604  0.4411
26036W        W46316  12.612  14.420   1.899  0.0995 -0.2681 -0.0253
26037W        W46317   7.691  16.640  13.959 -0.1280 -0.2094  0.0837
26038W        W46318  12.160   1.397   0.675 -0.0809 -0.1593  0.2265
26039W        W46319  16.175  13.217   0.654  0.0395 -0.3180 -0.3196
26040W        W46320   9.209  14.631   3.059  0.0172 -0.3540  0.1085
26041W        W46321  11.675   0.994   4.786  0.1681  0.0484 -0.1961
26042W        W46322   4.465  19.167   0.300 -0.0205  0.0919 -0.0418
26043W        W46323   5.306   7.869   0.323 -0.3558 -0.0768 -0.2061
26044W        W46324   7.650   0.386  13.044  0.0763 -0.1575  0.1146
26045W        W46325  19.218  11.282   1.487 -0.2564  0.0289 -0.0681
26046W        W46326  14.661  17.350  10.474  0.1552 -0.0917  0.1733
26047W        W46327  10.685   5.244  13.958 -0.0112 -0.1809 -0.1086
26048W        W46328   9.125   8.946  11.846  0.0502  0.0383  0.0250
26049W        W46329   0.674  12.086  11.083 -0.0367  0.2247  0.0406
26050W        W46330   9.315  12.272   3.476  0.1033  0.2852 -0.0232
26051W        W46331   4.739   7.541  11.975  0.1061 -0.0442  0.2067
26052W        W46332   8.214   3.971   0.768  0.1872  0.2478 -0.0298
26053W        W46333  17.012  12.138   0.943  0.3833  0.1719 -0.0402
26054W        W46334  15.737   7.061  11.862  0.0816  0.0980  0.1436
26055W        W46335  16.520  12.858  13.484  0.0749 -0.0285 -0.2881
26056W        W46336   0.970  12.798  10.566 -0.0643  0.0280  0.0678
26057W        W46337   2.761  15.916  13.727 -0.4954 -0.3112  0.1998
26058W        W46338  17.500  16.593  13.002  0.1343 -0.1004  0.1347
26059W        W46339   0.303  10.991   2.921  0.1038 -0.0190  0.0393
26060W        W46340  17.923   8.112  14.070  0.1576  0.0775  0.0907
26061W        W46341  19.581  15.239  12.252  0.2013 -0.2249 -0.2997
26062W        W46342   1.222  17.008  11.993  0.2103 -0.1928  0.0865
26063W        W46343   9.940  17.199  12.907  0.0664  0.2922 -0.0097
26064W        W46344   6.541  19.674   0.541 -0.2075  0.0541 -0.0500
26065W        W46345  17.063  13.608   9.853 -0.0279 -0.1276  0.2906
26066W        W46346  12.315   2.525   2.653  0.0457 -0.1561 -0.2549
26067W        W46347  11.376   2.567   1.240  0.1873  0.2178  0.0623
26068W        W46348   3.771  17.080  13.934 -0.0970 -0.0750 -0.2749
26069W        W46349  18.569   4.225   2.498  0.0590  0.0291  0.0832
26070W        W46350   0.067  19.632  11.709 -0.3965 -0.0451 -0.1029
26071W        W46351  17.889   3.108   0.951  0.2320  0.1349  0.4302
26072W        W46352   6.582  17.050   0.631 -0.0909  0.2158  0.1047
26073W        W46353   6.779   5.556   2.084 -0.2067  0.0093  0.1562
26074W        W46354   3.274   5.886   0.091 -0.1795 -0.1274  0.1530
26075W        W46355   5.762  18.644  13.542  0.0839  0.4138 -0.0523
26076W        W46356  12.874  18.949   1.728  0.1319 -0.0656  0.1133
26077W        W46357  13.934  11.443  12.253  0.0667 -0.2519  0.0428
26078W        W46358  19.378   2.659  11.907 -0.0077 -0.2295 -0.4026
26079W        W46359   0.852  11.666   1.883 -0.1654 -0.0336  0.2483
26080W        W46360  18.406   1.861   1.004 -0.0434  0.0313  0.2246
26081W        W46361   8.115   1.025   0.380  0.1206  0.0242 -0.1582
26082W        W46362   0.281   0.538  12.807 -0.0669  0.0049 -0.2729
26083W        W46363   2.259  18.992  12.709  0.1559  0.2959  0.0306
26084W        W46364   9.823  10.996  12.486  0.1408  0.2219  0.1083
26085W        W46365   8.458   1.831  10.613 -0.0098  0.0221  0.0691
26086W        W46366  10.197  12.367  11.159 -0.1895  0.0249 -0.2612
26087W        W46367  17.744   6.648   2.933 -0.2176  0.3259  0.1824
26088W        W46368   6.445  18.168  12.410  0.3073  0.2711  0.2863
26089W        W46369  16.851   3.475   0.371  0.0037  0.0763  0.0000
26090W        W46370   4.481   0.486   3.571 -0.1879 -0.3832  0.3262
26091W        W46371   8.096  11.706   1.313  0.1061  0.0938 -0.0425
26092W        W46372  18.832   7.508   2.352  0.0757  0.4147 -0.2684
26093W        W46373   5.050  15.766  11.806 -0.2335 -0.6290 -0.0102
26094W        W46374  15.132  13.032  13.686  0.0402 -0.1406  0.0540
26095W        W46375  19.455  16.358   1.734  0.0013  0.0613 -0.1410
26096W        W46376   9.777  19.015  14.004 -0.0288  0.1891 -0.0674
26097W        W46377   3.049   4.847   1.896 -0.0927 -0.1917 -0.0969
26098W        W46378  14.108  13.795   2.639  0.1328 -0.0341 -0.1825
26099W        W46379   0.174   2.181  10.347 -0.1969  0.0642 -0.0447
26100W        W46380  15.493   5.817  11.231 -0.1357 -0.0811  0.2158
26101W        W46381   3.651   6.969   2.564  0.0223  0.0337  0.0799
26102W        W46382  11.922  16.330  11.457 -0.5092 -0.2339  0.3182
26103W        W46383   2.654  13.077  10.372  0.1460  0.2756 -0.0388
26104W        W46384   8.861   0.503  10.432  0.4106  0.0243  0.1080
26105W        W46385  18.881   2.837   1.871  0.2020 -0.1251 -0.0227
26106W        W46386   9.844   1.252  10.785  0.0335 -0.0821  0.0322
26107W        W46387   7.158  14.771   4.318  0.1400 -0.2005  0.4902
26108W        W46388  10.220  19.645   3.751  0.2177  0.1214  0.2167
26109W        W46389  11.962  15.891  11.812 -0.0534  0.1688  0.2414
26110W        W46390  14.843  17.085   0.040  0.2069 -0.0280  0.0013
26111W        W46391   9.027  10.534   9.687  0.0569 -0.0100 -0.2342
26112W        W46392  19.473   0.002   3.827 -0.0236  0.0552  0.0362
26113W        W46393   3.972  14.362   2.123  0.2684 -0.1985  0.0043
26114W        W46394  15.620  19.211   0.775  0.0381 -0.2888 -0.0685
26115W        W46395   5.604  17.138   2.600 -0.1575  0.3090 -0.1619
26116W        W46396  15.079   7.911   2.785  0.0500  0.1737 -0.1248
26117W        W46397   4.829   3.577  13.435 -0.0437 -0.2245 -0.0987
26118W        W46398  18.240  14.500   2.751  0.3164  0.2547 -0.1169
26119W        W46399   8.056  16.233  13.786  0.2534 -0.1533 -0.3534
26120W        W46400  12.918   3.793  12.535 -0.6140  0.1321  0.0141
26121W        W46401   3.188  16.849  11.143 -0.2028  0.2728  0.0909
26122W        W46402   6.088   3.793  12.720  0.2229 -0.2448  0.0370
26123W        W46403  13.147   9.914  11.922  0.0137  0.2896 -0.1626
26124W        W46404   7.030   5.369  12.337 -0.1131  0.1527  0.1289
26125W        W46405   3.118  19.309   2.351  0.3181  0.0510  0.0201
26126W        W46406   2.072  15.280  13.449 -0.1561  0.0629 -0.1952
26127W        W46407   2.492   5.671  12.378  0.2122  0.3334  0.0421
26128W        W46408   8.474  17.398  11.742 -0.2511  0.0817  0.0960
26129W        W46409  13.808   8.867   0.338  0.2913  0.1053  0.2138
26130W        W46410   6.497   2.894   3.069  0.2446  0.1543  0.0337
26131W        W46411  15.287   5.939   1.339 -0.3841 -0.1590 -0.1825
26132W        W46412  12.175   1.840   0.853  0.0980  0.0348 -0.0727
26133W        W46413  13.653  19.329  10.770 -0.2560 -0.1432  0.0778
26134W        W46414   8.083   6.333   2.451  0.2210 -0.2129 -0.2310
26135W        W46415  16.023   2.424  11.585  0.2324  0.0651  0.1317
26136W        W46416   5.872   2.732  11.938 -0.0395  0.3236  0.4646
26137W        W46417   8.101   1.685   1.534 -0.1823 -0.2740  0.2413
26138W        W46418   5.480   6.301  13.250 -0.1096 -0.1556  0.1985
26139W        W46419  18.154   2.636   0.943 -0.2665 -0.1644  0.0143
26140W        W46420  14.357  12.904   0.777  0.1038 -0.1033 -0.0458
26141W        W46421  11.905  10.054  11.003 -0.1000  0.0419  0.0073
26142W        W46422   3.172  17.016  12.906 -0.0421  0.3445 -0.5374
26143W        W46423   4.790   8.454   2.681 -0.0122 -0.0382  0.4120
26144W        W46424  13.205  14.985  11.580  0.0633  0.0584  0.4525
26145W        W46425  14.551   1.982  10.446 -0.1287  0.1199  0.1142
26146W        W46426  10.772   9.207  13.874 -0.0146 -0.0146 -0.0167
26147W        W46427   2.139  10.692  13.817 -0.0285 -0.1775  0.1227
26148W        W46428  10.185   3.085   3.169 -0.0659  0.2663  0.1122
26149W        W46429  18.531   9.139   3.900  0.2426 -0.1530 -0.0061
26150W        W46430   9.846  14.590  13.318  0.3070 -0.0621 -0.0380
26151W        W46431   8.271  15.758  12.331  0.0015 -0.1476 -0.0145
26152W        W46432   9.401   7.028   0.371 -0.1289  0.0775 -0.0988
26153W        W46433  17.845   8.760   3.900 -0.0981 -0.2268 -0.0547
26154W        W46434   2.404   2.019  12.201  0.0812  0.1931  0.1819
26155W        W46435   8.885  13.200  12.962  0.0147  0.3350  0.1359
26156W        W46436   8.775  15.132  13.601  0.1563 -0.2252 -0.1065
26157W        W46437  15.737  10.942  13.458 -0.4906 -0.0755 -0.1609
26158W        W46438  12.231  14.482   4.202 -0.0606  0.1986  0.3126
26159W        W46439  11.363  11.799   3.056 -0.0081 -0.0536  0.0946
26160W        W46440   7.370  16.321  13.734  0.4407  0.2664 -0.2439
26161W        W46441  10.743   9.874  10.747  0.0068 -0.2516 -0.0290
26162W        W46442  19.334  14.737   1.983  0.1858 -0.2182  0.3872
26163W        W46443   1.569  18.344   0.131 -0.0002 -0.2542  0.1277
26164W        W46444  17.407   2.548  10.944 -0.2656 -0.2886 -0.0901
26165W        W46445   5.139   9.894   0.838  0.3225  0.3171 -0.0946
26166W        W46446  18.246   8.105   1.521 -0.2127 -0.1598  0.2234
26167W        W46447   1.153  11.142  11.391  0.3544 -0.1961 -0.0478
26168W        W46448  15.799   1.137   2.665 -0.2709  0.1614 -0.1217
26169W        W46449  12.822  15.881   3.838  0.2415 -0.2929 -0.3648
26170W        W46450  14.334  12.635  11.077  0.0222  0.0041  0.1123
26171W        W46451  11.915  19.662   0.185  0.0070  0.0055 -0.1146
26172W        W46452  11.926   8.127   3.215  0.1524 -0.0519 -0.0583
26173W        W46453   8.227   3.415   2.950 -0.0904 -0.3178 -0.0413
26174W        W46454  14.306  13.558  10.434 -0.1575  0.0123  0.0491
26175W        W46455  15.190  12.817   2.301  0.0995 -0.1723 -0.1347
26176W        W46456   1.795  10.371  11.755  0.0923  0.0231 -0.1501
26177W        W46457  13.148   4.678  13.427  0.1854 -0.0447  0.1108
26178W        W46458  18.424  10.471   0.628 -0.3591  0.0471  0.1548
26179W        W46459   3.356  12.596   3.627 -0.2308  0.0792 -0.1780
26180W        W46460  14.517  16.809   9.172 -0.1888 -0.2997  0.0604
26181W        W46461  17.465   4.023   0.795  0.0670 -0.1830 -0.1921
26182W        W46462   8.576  10.483  13.766  0.0540  0.0386 -0.2909
26183W        W46463   7.589  11.086   0.314 -0.0052 -0.1966 -0.3360
26184W        W46464  15.721   6.794  13.919 -0.2633 -0.3666 -0.2060
26185W        W46465  12.591   9.397   0.290  0.0486 -0.3136  0.0139
26186W        W46466   2.617   3.841   1.999 -0.2994 -0.3695 -0.3275
26187W        W46467  11.839   7.332  12.111  0.2518  0.1620 -0.2224
26188W        W46468  10.872   1.477   2.592  0.1675  0.2545  0.5720
26189W        W46469  14.151  15.706   2.737  0.2343 -0.0428 -0.5090
26190W        W46470  12.610  11.006  13.988  0.0602  0.4237  0.0813
26191W        W46471  12.884  12.814   4.351  0.1894 -0.1755  0.0776
26192W        W46472   0.505   0.432   0.186 -0.1577  0.3187  0.1552
26193W        W46473   1.666  18.962   3.386  0.2654 -0.4034  0.0427
26194W        W46474  16.077   3.939  13.510  0.1157 -0.1197  0.3208
26195W        W46475   0.439   1.343  10.737  0.0717 -0.3614  0.3889
26196W        W46476   6.036  15.578   2.987 -0.1690  0.0812  0.3187
26197W        W46477   1.817  18.457   2.356 -0.0348 -0.0545 -0.0624
26198W        W46478  14.882  18.860   1.974 -0.2858  0.2868 -0.0555
26199W        W46479  16.916  14.803  13.974 -0.0743 -0.1087 -0.1266
26200W        W46480   2.796  12.137  11.052  0.0561 -0.1981 -0.1566
26201W        W46481  19.223   8.249   4.239 -0.0103 -0.0442  0.1580
26202W        W46482  15.720  17.254  11.491  0.0394 -0.2412 -0.3415
26203W        W46483  16.644   3.171   1.338  0.1446 -0.1396  0.0137
26204W        W46484  14.742   8.257  12.473 -0.1062  0.2126 -0.2392
26205W        W46485   5.262   2.842  10.257 -0.0083  0.0089 -0.0539
26206W        W46486  19.035   2.532   2.284  0.0485 -0.0538  0.1072
26207W        W46487  18.487  10.360   3.122 -0.0860  0.1729 -0.0150
26208W        W46488   7.773   3.505   1.678 -0.0880  0.0975 -0.2333
26209W        W46489  11.153  18.061  12.783 -0.1567 -0.3597  0.3675
26210W        W46490   9.443   8.907  11.061 -0.2005  0.2099 -0.1104
26211W        W46491   8.114   7.583  12.612 -0.0306  0.2125  0.0660
26212W        W46492   7.307   3.192   0.586 -0.0011  0.0421  0.1476
26213W        W46493   8.483  14.076  13.340 -0.1735  0.1019 -0.1226
26214W        W46494  14.894   0.163  11.493 -0.1388 -0.1426  0.1884
26215W        W46495  14.229   8.314   3.576  0.0461  0.0414 -0.1216
26216W        W46496   1.064   0.313  12.380 -0.1680  0.0554 -0.0758
26217W        W46497   3.782   0.196  11.550 -0.0452 -0.0311 -0.3290
26218W        W46498   5.434   7.143  11.905 -0.0326  0.0980  0.1052
26219W        W46499   2.972  13.525   2.553 -0.0134 -0.2212 -0.0578
26220W        W46500  16.453   4.946   2.443  0.0703  0.0994 -0.2856
26221W        W46501   3.743   8.221   0.328 -0.1774  0.0018  0.1880
26222W        W46502   7.949   5.223  12.792  0.2251  0.1999 -0.2585
26223W        W46503   1.896  14.594  10.617  0.1674 -0.2909  0.0359
26224W        W46504   6.572   3.298   1.821  0.4390  0.1471  0.1581
26225W        W46505   6.039   0.115  13.378 -0.5608  0.0519 -0.2107
26226W        W46506  19.633   5.914   3.621 -0.1761 -0.2034  0.1855
26227W        W46507  11.825  12.885   2.347 -0.0456  0.2712 -0.0121
26228W        W46508   3.790  10.098  12.230 -0.4371  0.0799  0.2861
26229W        W46509  18.234  11.045   1.743 -0.0817 -0.0726 -0.1167
26230W        W46510   6.614   4.706   1.540 -0.0253  0.5012  0.0520
26231W        W46511  14.218  16.587   2.682  0.1773 -0.0189  0.0019
26232W        W46512  15.348   4.746  12.653  0.2379  0.0671 -0.1459
26233W        W46513  18.252  18.925   2.180 -0.0121  0.3134  0.1010
26234W        W46514   5.124  16.071  13.165  0.0574 -0.0643 -0.3747
26235W        W46515   4.243  16.787   1.345 -0.2786 -0.1995  0.1803
26236W        W46516  12.345  18.885  12.251 -0.0771  0.2746 -0.3920
26237W        W46517  16.311   1.039   0.849  0.1539  0.0231 -0.0323
26238W        W46518  15.854  11.444   1.162 -0.0551  0.1486 -0.0781
26239W        W46519  15.691   9.112   0.656 -0.3262  0.1500 -0.0218
26240W        W46520   3.534   8.027  12.060 -0.0143 -0.1915 -0.2280
26241W        W46521   1.523  10.866  13.627 -0.1414  0.4352 -0.0587
26242W        W46522   3.923   0.510  10.549  0.1068 -0.1294 -0.1227
26243W        W46523  17.330   4.050   2.176 -0.1313 -0.1569  0.1068
26244W        W46524   7.224   6.126   2.664 -0.0515  0.1092  0.0631
26245W        W46525  16.958   2.282  12.094  0.2683 -0.3435  0.0298
26246W        W46526  18.645  11.501   2.798 -0.0040  0.0624  0.0574
26247W        W46527  15.600  15.505   3.010 -0.1673  0.0994  0.0272
26248W        W46528  17.334  10.321   3.384 -0.0586 -0.5049  0.0862
26249W        W46529  17.747  17.109   3.774 -0.4857 -0.0746  0.0831
26250W        W46530   3.227   4.239   1.319 -0.2494  0.0002 -0.2104
26251W        W46531   0.915   6.105   5.334 -0.1069  0.0740  0.3301
26252W        W46532  14.401   9.098   4.640  0.3075 -0.0138  0.0256
26253W        W46533  17.142  12.788   4.227  0.0397 -0.1158 -0.1264
26254W        W46534   8.403  12.757  11.290 -0.1346 -0.1095  0.1260
26255W        W46535  13.965  13.962   1.450 -0.1984 -0.0831 -0.1046
26256W        W46536  13.314  15.178  12.068 -0.2529  0.0375  0.0226
26257W        W46537  15.600  11.624  13.933  0.2965 -0.0751  0.1847
26258W        W46538  10.839   0.346   8.821 -0.1389  0.0431  0.1037
26259W        W46539   4.922   1.657   1.465 -0.2068  0.2176 -0.1305
26260W        W46540  10.675  17.084  12.113  0.0572  0.0169  0.4064
26261W        W46541  17.171  13.562   1.078  0.0342 -0.0306 -0.0769
26262W        W46542  11.296   2.698   3.102  0.1206 -0.0841  0.0494
26263W        W46543   9.505  14.242   0.303  0.0017 -0.1092  0.0119
26264W        W46544   5.298   0.769   0.067 -0.1687  0.4156  0.1146
26265W        W46545  17.200   5.477   0.288  0.2659 -0.1458  0.0735
26266W        W46546   2.623   0.726   1.990  0.0275  0.1638  0.2818
26267W        W46547  19.111   1.428   0.224  0.1325 -0.2397  0.2271
26268W        W46548   8.758  15.402   1.867  0.0326 -0.2810  0.1771
26269W        W46549   4.386   6.549   0.023 -0.0716 -0.2576  0.0690
26270W        W46550   8.224  19.626   2.931  0.0252  0.1083 -0.1711
26271W        W46551   5.968  14.320   3.595  0.1099 -0.1994 -0.2157
26272W        W46552  17.031   5.009   2.752  0.4788 -0.1927  0.0501
26273W        W46553   9.369   8.054  10.685 -0.0057  0.0853  0.0807
26274W        W46554  15.451  14.301   0.804 -0.0783  0.0403  0.0531
26275W        W46555  10.181  19.281   1.890 -0.2409  0.2732 -0.0479
26276W        W46556  14.396  14.546  10.129 -0.2210  0.1760  0.0648
26277W        W46557  10.661  19.274   1.888 -0.1385  0.1956 -0.1588
26278W        W46558   4.371   6.687   2.118  0.0241 -0.0271  0.1371
26279W        W46559   7.659   8.174  10.975  0.0705  0.2985 -0.2567
26280W        W46560  17.046  16.033   3.199  0.0123 -0.5451 -0.0422
26281W        W46561  10.193   2.115  11.747 -0.1045  0.1598  0.2105
26282W        W46562  16.903  12.803  10.872 -0.3054  0.1453 -0.1257
26283W        W46563  14.217   1.529  10.118 -0.1912  0.0872 -0.0956
26284W        W46564   0.534  14.469   2.720 -0.1433  0.0237  0.0992
26285W        W46565   2.643   6.684   1.346 -0.1388  0.3671 -0.1838
26286W        W46566  10.394  13.962  12.540 -0.3184 -0.1089  0.0745
26287W        W46567  16.804  11.971  13.926 -0.2997  0.0011 -0.2633
26288W        W46568  19.589  10.821   1.430 -0.0635 -0.3384 -0.5309
26289W        W46569   1.985  17.224   3.400  0.1080  0.2464 -0.0386
26290W        W46570  14.948  14.147  12.954  0.1288  0.1370  0.0586
26291W        W46571   4.731   3.400   4.809 -0.2045  0.0272  0.0841
26292W        W46572   1.245   7.644  13.055  0.1084  0.0491 -0.0923
26293W        W46573   7.785   5.008   2.266 -0.0340 -0.2200  0.0921
26294W        W46574  15.913  15.540  12.088  0.0326 -0.2311 -0.0355
26295W        W46575   5.721  17.819  11.225  0.2314  0.0424  0.0568
26296W        W46576  12.276   2.417  10.712  0.1345 -0.0765  0.2788
26297W        W46577   8.550  17.838  11.010 -0.2205 -0.0631 -0.2245
26298W        W46578   8.929  14.180  10.544 -0.0160  0.0331  0.0644
26299W        W46579   3.156  11.448   0.035  0.0208 -0.0899 -0.1805
26300W        W46580   6.918   2.916   0.514 -0.0286  0.1382 -0.0323
26301W        W46581   8.008  11.205   1.287 -0.1385  0.0670 -0.1009
26302W        W46582   7.053  14.530   2.596  0.1424  0.0089 -0.1986
26303W        W46583  11.262   9.962  10.534  0.0206  0.0963 -0.0306
26304W        W46584  13.119  14.303  13.455  0.0592  0.0364  0.0159
26305W        W46585  19.469  18.979  13.870 -0.0066  0.2412 -0.1126
26306W        W46586  18.937  17.756  12.798  0.1546 -0.3798 -0.0606
26307W        W46587   8.909   5.556   1.671 -0.1161  0.0713  0.0192
26308W        W46588   9.400   9.084   3.668  0.0176  0.0261  0.1054
26309W        W46589   5.132  13.362  12.394 -0.3295  0.2659 -0.0636
26310W        W46590   3.957   1.573   1.068 -0.1608  0.2141 -0.0673
26311W        W46591  16.954  17.900  10.029 -0.3890  0.0161 -0.1022
26312W        W46592   6.500  18.359   1.780  0.2202  0.0352 -0.3074
26313W        W46593  14.458   6.847   0.510  0.2661 -0.0516 -0.1041
26314W        W46594  16.292  17.498  11.137  0.1064 -0.0086 -0.2096
26315W        W46595   2.283   5.139  13.956 -0.0457  0.1228  0.2767
26316W        W46596   8.448   0.995   3.054  0.2148 -0.0175 -0.0143
26317W        W46597  10.133   0.090  10.565 -0.0734  0.1304 -0.2503
26318W        W46598   2.376  14.603   3.159 -0.1256 -0.1323  0.0136
26319W        W46599   6.132   5.323  11.965 -0.1525  0.1821 -0.1621
26320W        W46600   3.078   6.301   0.724  0.2355 -0.1023 -0.1099
26321W        W46601  15.242   5.642  10.494 -0.0435 -0.0504 -0.0021
26322W        W46602  17.402   4.851  11.434 -0.0219  0.0644 -0.0821
26323W        W46603  15.467  16.827   9.858 -0.0362 -0.1038  0.2004
26324W        W46604  17.984   1.385   0.366  0.5044 -0.0966  0.3502
26325W        W46605  13.047   5.829  10.270 -0.2194 -0.1653  0.2524
26326W        W46606  10.290  16.038  13.207 -0.2128 -0.0085  0.0290
26327W        W46607   2.970   4.219  12.537  0.3243  0.1961  0.0343
26328W        W46608  11.130  16.316  13.672  0.2465  0.1336  0.1020
26329W        W46609   2.457   0.543   0.478 -0.0485 -0.1240  0.0903
26330W        W46610   1.801   5.487  12.820 -0.2226  0.0587  0.6606
26331W        W46611  17.771   3.988  13.394 -0.0742 -0.0870 -0.0702
26332W        W46612   5.798   1.113  10.609  0.1427 -0.1043 -0.0217
26333W        W46613   9.896   0.509   0.406  0.0565  0.1342 -0.0907
26334W        W46614  19.482   5.159   0.092  0.1678  0.1896  0.0444
26335W        W46615   0.851  14.710   3.031  0.0263 -0.0498 -0.5894
26336W        W46616  15.361   0.323  11.509  0.2267 -0.1340  0.2667
26337W        W46617   4.457  11.516   0.612  0.1970 -0.4326 -0.1837
26338W        W46618  13.701  13.604   3.802  0.0866  0.0564 -0.1263
26339W        W46619   6.238   2.146   2.371  0.0314  0.1616  0.2609
26340W        W46620  18.457   2.865   2.221  0.0770  0.0272  0.1897
26341W        W46621  12.821   8.341  11.173 -0.1686  0.0018  0.0717
26342W        W46622  10.853  16.709   3.322 -0.0161 -0.0092  0.0492
26343W        W46623   2.202  15.393  11.280 -0.0402  0.0037  0.1879
26344W        W46624  17.853   8.777   3.360 -0.0551 -0.1349  0.0497
26345W        W46625   8.153   2.320  12.640 -0.2926  0.2206  0.2322
26346W        W46626   9.267   2.035   1.598  0.3732  0.3566  0.2887
26347W        W46627  11.251   8.843   1.197 -0.5229 -0.2793  0.2387
26348W        W46628  11.498   2.974  11.731  0.0379 -0.0341 -0.1705
26349W        W46629  15.386  12.374   3.052  0.0594  0.1197 -0.3818
26350W        W46630   7.108  15.996  12.271  0.3515  0.2820 -0.0120
26351W        W46631  19.678  16.979   1.630 -0.3765  0.2630 -0.0230
26352W        W46632   5.035   1.493   2.519  0.2440 -0.0036  0.0748
26353W        W46633  12.978   0.683   0.119  0.3842  0.0583 -0.1210
26354W        W46634   6.769   5.095   0.114  0.0008  0.1676 -0.1760
26355W        W46635   4.338  12.017  13.615  0.1091  0.4790 -0.3608
26356W        W46636   7.015   5.887  12.239  0.0806  0.1268  0.3332
26357W        W46637   1.253   9.873   5.105  0.1908  0.0406 -0.0590
26358W        W46638  14.626  17.829  13.072 -0.0122 -0.1428  0.0034
26359W        W46639   5.603  18.931  11.310  0.2658  0.0070  0.0958
26360W        W46640  10.905   5.795  10.070  0.0367  0.2987 -0.0577
26361W        W46641   9.684   8.351   4.866 -0.3597 -0.3418 -0.3758
26362W        W46642  13.671  11.998  11.425 -0.2037  0.2620  0.2811
26363W        W46643   6.149  11.890   1.564 -0.3625  0.1727  0.1390
26364W        W46644   4.215   4.887   1.074 -0.0320 -0.0112  0.1247
26365W        W46645   9.237   5.573  13.466  0.1633  0.2486 -0.1411
26366W        W46646   4.718  18.671  11.896 -0.2301 -0.0805  0.0179
26367W        W46647  12.836  11.833  11.290  0.0757 -0.0004  0.1659
26368W        W46648  10.686  14.100  11.431 -0.0840  0.1916  0.1645
26369W        W46649   2.940   1.505  12.998  0.0707  0.1717  0.0979
26370W        W46650   9.271  12.888   3.956 -0.0387  0.1452  0.1037
26371W        W46651   3.968  19.753  10.481 -0.2263  0.1481  0.1851
26372W        W46652   8.220   0.297   1.071 -0.1368 -0.0933  0.0781
26373W        W46653  18.854  11.128  11.939  0.2705 -0.2431 -0.0760
26374W        W46654   0.838  18.614  12.205 -0.0274 -0.2433  0.1408
26375W        W46655   9.900  18.218  12.764 -0.1776 -0.3890 -0.3635
26376W        W46656   2.586   2.582   3.475  0.0206  0.1237  0.3475
26377W        W46657  14.842   2.353  10.123  0.3434  0.1791  0.2131
26378W        W46658   8.983  15.640   0.139 -0.1399 -0.3118 -0.1890
26379W        W46659   4.226   1.035  13.285  0.1202 -0.2486 -0.2896
26380W        W46660   4.303  17.279  12.473 -0.2416  0.0575  0.1283
26381W        W46661  18.714  16.255  12.531  0.2087 -0.1092 -0.2148
26382W        W46662  15.055   2.407  13.279 -0.0641  0.2031  0.0909
26383W        W46663  15.104  18.776  12.116  0.1400 -0.2237  0.0469
26384W        W46664  18.232   8.948  12.144  0.2356 -0.1158 -0.0710
26385W        W46665   7.914  16.133  10.655  0.1054  0.0025 -0.1410
26386W        W46666  19.698  18.024   1.207 -0.0815  0.1751  0.3556
26387W        W46667   2.360  16.150   1.251 -0.0281  0.0462 -0.2088
26388W        W46668   1.326   6.977  12.036  0.3918 -0.0440  0.1268
26389W        W46669   2.531  16.531  13.954 -0.0201 -0.0681  0.0109
26390W        W46670   8.373   4.314   4.930  0.1171 -0.0239 -0.2068
26391W        W46671   3.787   5.773   4.452  0.3238 -0.3492 -0.1095
26392W        W46672   5.172  19.011   1.620  0.0395 -0.1726  0.1241
26393W        W46673   4.223   1.722  11.949  0.2046 -0.2001  0.2316
26394W        W46674   1.305   3.214   2.384  0.2056 -0.1352 -0.2943
26395W        W46675  17.125  17.108   1.422  0.0752  0.0153  0.1474
26396W        W46676   3.577  10.514   2.906 -0.0835 -0.1105  0.0929
26397W        W46677   4.782   4.174  12.029  0.0271 -0.2958  0.0322
26398W        W46678   6.595  15.631   0.771 -0.0975  0.0086 -0.1693
26399W        W46679  10.589   1.003  11.809 -0.2947 -0.5183 -0.1835
26400W        W46680   9.379  13.033  10.651 -0.2079 -0.0970 -0.1643
26401W        W46681   4.855  16.843  11.724 -0.4442 -0.1409  0.2259
26402W        W46682   1.240  11.255   3.847 -0.0713 -0.0430  0.0839
26403W        W46683   6.233  18.494   2.924 -0.2624 -0.0866 -0.0565
26404W        W46684  10.127   4.566   3.166 -0.5224 -0.2135  0.0020
26405W        W46685  12.969  13.813  13.492  0.0220  0.0352 -0.2780
26406W        W46686  19.069   7.265  11.479 -0.2274  0.0847  0.0230
26407W        W46687   1.476  17.006   0.033  0.0826  0.1103 -0.0699
26408W        W46688   9.855   7.691   1.721  0.5325  0.1368 -0.0009
26409W        W46689   2.942   5.991  10.938 -0.1294  0.0033  0.1268
26410W        W46690  15.840   8.326   1.695  0.2769  0.2007 -0.0570
26411W        W46691   8.433  13.466  11.308  0.0857 -0.1353  0.3041
26412W        W46692   8.778   5.270   0.622  0.2563 -0.1211  0.0191
26413W        W46693   3.875  17.539  12.480  0.3508  0.1194  0.0256
26414W        W46694  10.480  16.552   2.487  0.3489  0.0568  0.1527
26415W        W46695  10.143   4.338   0.330  0.0627  0.0451  0.1251
26416W        W46696  12.852  12.086   2.106 -0.2959 -0.0688 -0.0072
26417W        W46697  10.556   0.856  10.282  0.0510 -0.5155  0.3674
26418W        W46698  10.147  10.165   5.380 -0.0219  0.2382 -0.3437
26419W        W46699  10.472   6.731  14.018  0.1388 -0.0273  0.1734
26420W        W46700   1.870  16.242   1.471  0.1003  0.0359 -0.1459
26421W        W46701  18.349   4.965  13.079  0.0500 -0.1952 -0.1044
26422W        W46702   4.843  11.208  11.263 -0.0389  0.1542 -0.0692
26423W        W46703   7.831   5.160   0.472  0.0383 -0.1129 -0.0357
26424W        W46704   3.880   3.751  10.905  0.0097 -0.1161 -0.0196
26425W        W46705  19.214   6.844   1.666 -0.2716 -0.3182  0.1087
26426W        W46706   3.965   5.206  11.598 -0.1660 -0.1186 -0.5242
26427W        W46707  13.616  16.458  12.936  0.0690  0.0401 -0.1399
26428W        W46708  10.557   7.548   2.293 -0.0807  0.2862 -0.1086
26429W        W46709   5.712  10.067  13.485 -0.2097 -0.0054 -0.1100
26430W        W46710  17.318   2.987   2.808 -0.1783 -0.1108  0.3441
26431W        W46711  15.954  12.540  10.758 -0.0411  0.0414 -0.1455
26432W        W46712   7.909   5.936  13.904  0.0341 -0.0463  0.0961
26433W        W46713  16.373   3.071   0.900  0.1725  0.2782  0.1689
26434W        W46714  10.797  17.528  11.658  0.3753  0.1255  0.0200
26435W        W46715  12.573  17.816  11.221 -0.2289  0.0234 -0.1203
26436W        W46716   0.703  18.836  13.887 -0.0942 -0.2527  0.0541
26437W        W46717   4.522   8.837  13.144 -0.1655 -0.1172 -0.0214
26438W        W46718  15.477   3.915  10.520 -0.0749  0.1807 -0.0024
26439W        W46719  15.439  18.073   2.615 -0.3344  0.3398 -0.1399
26440W        W46720  19.474  16.622  12.382  0.0634  0.2008  0.1080
26441W        W46721   0.512   9.280  12.277 -0.4254  0.0736 -0.0925
26442W        W46722   8.803  17.170   3.301  0.0588 -0.3770  0.1356
26443W        W46723   4.198   6.391  12.036 -0.0509  0.3651 -0.1953
26444W        W46724  14.100  17.554  11.191 -0.4364  0.0177  0.0983
26445W        W46725   3.310  12.886   0.121  0.1538 -0.0992  0.4104
26446W        W46726  15.374   0.794   2.913  0.0961 -0.0067  0.0884
26447W        W46727  11.053  10.652   2.102  0.0850 -0.0015  0.4217
26448W        W46728  18.068   9.235  11.728 -0.0189  0.0946 -0.0506
26449W        W46729  14.394   2.745  14.103 -0.0920 -0.2570 -0.0317
26450W        W46730   9.284  11.828  13.724  0.0615  0.1741 -0.0739
26451W        W46731  17.798  15.646   3.718 -0.4031 -0.0224  0.0298
26452W        W46732  19.439   7.990   3.549  0.0382 -0.1968  0.0934
26453W        W46733   7.543   7.703  13.132  0.0122  0.3101  0.1053
26454W        W46734   4.225   3.694  13.659 -0.2140 -0.0854  0.0540
26455W        W46735   6.334   5.656  11.632  0.0053 -0.0201 -0.0279
26456W        W46736  13.843   3.068  10.721 -0.0973 -0.1957 -0.0346
26457W        W46737  11.104   4.276  11.021 -0.2206  0.1127  0.0797
26458W        W46738  14.670   7.338  12.195  0.0092  0.1864  0.0686
26459W        W46739   9.384   1.958   0.142  0.1367 -0.0603 -0.4231
26460W        W46740   4.009  15.492  10.194 -0.0025  0.2073 -0.0898
26461W        W46741   2.448   4.242  10.727  0.4195 -0.0859  0.1625
26462W        W46742  16.145  18.817  13.888  0.0783 -0.0180 -0.3069
26463W        W46743   7.047   8.678  12.059 -0.0107 -0.2018  0.2582
26464W        W46744  18.875   0.087   1.091  0.1402  0.0488 -0.1699
26465W        W46745  14.299   5.637  13.845 -0.1466 -0.0093 -0.0916
26466W        W46746   6.661  14.418   0.690  0.3293  0.0638  0.0835
26467W        W46747  13.200  15.462   3.508  0.2913 -0.1123  0.0385
26468W        W46748  12.127  13.593  11.863  0.1026  0.0281  0.0522
26469W        W46749  17.468  14.087  13.661 -0.0687 -0.0370 -0.0355
26470W        W46750  13.943   4.790   0.494 -0.0099 -0.1375 -0.3693
26471W        W46751   0.047  15.865  10.430 -0.1351  0.1236  0.1150
26472W        W46752   9.716   8.738   1.385 -0.2615  0.1091 -0.4258
26473W        W46753  10.383  10.615  12.458 -0.1731 -0.1316  0.2539
26474W        W46754  17.644  14.251   0.324  0.1630  0.0365  0.1231
26475W        W46755   5.684   2.224  11.371 -0.3223 -0.1353 -0.2146
26476W        W46756   1.607  18.607  11.091 -0.1182 -0.2581  0.2264
26477W        W46757  11.622  10.654   3.731 -0.2861 -0.3916 -0.1508
26478W        W46758  13.892   2.483   1.138 -0.1704 -0.3081 -0.0349
26479W        W46759  10.564  12.896   1.739  0.1197 -0.1255 -0.2796
26480W        W46760  18.760  19.086  12.853 -0.2109  0.0484  0.2942
26481W        W46761   4.758  10.716   0.637  0.0890  0.2646  0.1408
26482W        W46762  19.564  16.472  13.906 -0.0458 -0.1303  0.1022
26483W        W46763   0.201   4.835  13.752  0.0236 -0.0789  0.1349
26484W        W46764   0.334   4.416  13.185 -0.1322 -0.0939 -0.0664
26485W        W46765   1.503  11.224  12.830  0.0259  0.3145  0.2238
26486W        W46766   7.516  18.668   1.314  0.2604  0.2173  0.0014
26487W        W46767   4.018  10.298  13.253  0.0888  0.1356 -0.0941
26488W        W46768   1.575  10.488   3.814  0.2243  0.3942  0.0934
26489W        W46769  16.090  17.702  10.572 -0.0490 -0.0562  0.4967
26490W        W46770   8.297   7.057  13.377  0.1870 -0.1034 -0.2544
26491W        W46771  11.071   3.957   3.182 -0.0027  0.0720 -0.1904
26492W        W46772  15.551   4.892  11.815 -0.1299  0.2268 -0.1351
26493W        W46773   4.921   6.148   1.896  0.4039  0.0376  0.1237
26494W        W46774  13.770  19.086   3.659 -0.0604 -0.1621 -0.0198
26495W        W46775   9.696  15.061   1.061 -0.1100 -0.3607 -0.0334
26496W        W46776  16.613  15.941   1.099  0.0341  0.0561 -0.1761
26497W        W46777   3.933   9.407   1.122 -0.0441 -0.1710  0.0565
26498W        W46778  19.490   7.329  11.288 -0.1758 -0.0979 -0.0040
26499W        W46779  16.121  15.272  13.975  0.1716 -0.2382  0.1317
26500W        W46780   0.290  10.551   0.650  0.1801  0.2456  0.2013
26501W        W46781  16.973  17.061   2.029 -0.2531 -0.0199 -0.0343
26502W        W46782   5.649  11.615  13.845 -0.0280 -0.1120 -0.0772
26503W        W46783  14.939   6.772   2.165  0.1801 -0.2913  0.0371
26504W        W46784  12.135  10.477   3.601 -0.0956  0.2466 -0.1263
26505W        W46785  17.993  12.682   2.502  0.1592  0.2172  0.4280
26506W        W46786   1.708  18.405   1.596  0.1322  0.5373 -0.1144
26507W        W46787   2.760  12.959  13.522  0.1056 -0.0249 -0.0854
26508W        W46788  15.916  15.876   0.986  0.2353 -0.1254 -0.1930
26509W        W46789  13.614  10.233  11.021  0.3231  0.0200  0.0083
26510W        W46790   0.539  11.243  11.991  0.2271 -0.0299 -0.1762
26511W        W46791  12.087  10.742   1.198  0.3362  0.1397 -0.2527
26512W        W46792   4.060   0.939   9.757 -0.0572 -0.1389 -0.0849
26513W        W46793  12.670  16.259  12.158 -0.0052  0.1797 -0.0522
26514W        W46794   6.292   0.270   4.748 -0.2164  0.0915  0.1159
26515W        W46795  15.864  14.664  10.491 -0.2238  0.2017 -0.0640
26516W        W46796  14.427   9.233  10.810  0.0113  0.0866 -0.2214
26517W        W46797  17.544  16.730  10.486 -0.0309  0.2927  0.1028
26518W        W46798   5.694   6.113   0.378 -0.0559 -0.2179  0.1457
26519W        W46799  11.028   2.141  11.348 -0.0126 -0.2369 -0.0042
26520W        W46800  15.313   5.636  12.208  0.1550  0.2103 -0.2056
26521W        W46801  14.458   6.638  11.747 -0.0481  0.1663  0.1531
26522W        W46802  19.274  13.445  10.644  0.0770  0.0454  0.0391
26523W        W46803   5.322  17.186   3.043 -0.0029 -0.2272  0.1789
26524W        W46804  13.123   5.387  14.004 -0.2192  0.2391 -0.1218
26525W        W46805  12.560  13.114  13.908 -0.1643 -0.1033 -0.0378
26526W        W46806   2.566   5.091   2.149  0.0989 -0.1752  0.0667
26527W        W46807  19.393   8.773   1.968 -0.2119 -0.2263  0.0952
26528W        W46808  18.768  11.472  10.912 -0.0410  0.3184  0.1136
26529W        W46809  15.320  16.926  12.087 -0.0552  0.5015 -0.0116
26530W        W46810  15.214  14.589   1.589  0.1095 -0.1645 -0.1538
26531W        W46811  14.220   9.181   3.957  0.0835 -0.0925  0.0410
26532W        W46812  17.147   5.159  11.961 -0.0262  0.1150  0.4070
26533W        W46813   7.836   9.065   3.077  0.0993 -0.0536 -0.1853
26534W        W46814  16.959   8.578  10.993 -0.1278  0.0927  0.1243
26535W        W46815  14.334  11.473  11.047 -0.0285 -0.6383 -0.1557
26536W        W46816  16.920   4.887   1.478 -0.1581  0.3492  0.2866
26537W        W46817   2.635  19.647  12.316  0.1527  0.0021  0.2083
26538W        W46818  19.528  14.668  10.515 -0.1832 -0.1127 -0.3463
26539W        W46819   3.265  12.321  13.019 -0.1801 -0.2171  0.0506
26540W        W46820   4.335   8.554   4.351  0.0269 -0.1243 -0.0701
26541W        W46821   2.368  13.249   3.722 -0.3215  0.2997 -0.1237
26542W        W46822   6.662   4.283  11.366  0.3819  0.0433  0.1771
26543W        W46823   4.080  15.031   0.776  0.3058 -0.0828  0.1087
26544W        W46824   1.283   1.158   2.000  0.4110 -0.3275  0.0716
26545W        W46825  12.624  12.745  12.029 -0.2379  0.1012  0.1438
26546W        W46826   7.625   8.955  13.782 -0.0490  0.0680 -0.2749
26547W        W46827  16.948   9.320  11.464 -0.0353 -0.3869  0.1158
26548W        W46828   0.979   9.127  13.395 -0.0210  0.0459  0.0957
26549W        W46829  10.495  11.592  11.781  0.1390  0.3380 -0.0471
26550W        W46830   6.795   2.405  11.162 -0.0444  0.0059 -0.4922
26551W        W46831  19.489  13.606  11.671 -0.0712  0.4170  0.0654
26552W        W46832  18.482  16.847  11.391 -0.0651 -0.2633  0.1095
26553W        W46833   1.827  14.216  12.311  0.0397 -0.1970 -0.0400
26554W        W46834  10.110   5.154  13.259 -0.1232 -0.1227 -0.0600
26555W        W46835  14.922   4.553  12.577  0.2893  0.2346  0.2741
26556W        W46836   8.229   2.507  11.497 -0.2573 -0.1724 -0.3232
26557W        W46837   1.226   2.721   3.383 -0.0180  0.0776  0.1141
26558W        W46838  19.036   0.399  13.735  0.2948  0.0271  0.0002
26559W        W46839  17.266  18.308  11.455  0.1478 -0.2529  0.4842
26560W        W46840   2.106  14.803  13.413 -0.1357  0.1649  0.1866
26561W        W46841  13.799   9.360  11.887 -0.0575 -0.2147 -0.2432
26562W        W46842  10.446   2.230  13.669 -0.1080  0.1389 -0.2223
26563W        W46843   1.029   1.081   3.258  0.2056  0.1196  0.0724
26564W        W46844   9.968   0.784  10.894 -0.0731  0.1634 -0.1718
26565W        W46845   4.269   3.057  11.422 -0.3247  0.3581  0.0910
26566W        W46846   9.972  14.457   3.279  0.3057 -0.0702  0.2522
26567W        W46847  15.104  16.023  12.213 -0.2494  0.1727  0.2949
26568W        W46848   0.054   6.282   9.446 -0.0898 -0.1357  0.1584
26569W        W46849  12.326   4.344   2.732  0.2490 -0.0209 -0.0540
26570W        W46850   1.498   3.711   2.164 -0.2069 -0.1022 -0.2450
26571W        W46851  15.134   0.803  10.342 -0.2758 -0.2450 -0.1805
26572W        W46852   8.541  19.414  10.785  0.0463  0.0222  0.1278
26573W        W46853   5.119  16.951  11.222  0.2165 -0.1323  0.4954
26574W        W46854  18.194   2.659  11.349 -0.0619 -0.1717 -0.1136
26575W        W46855  15.207   9.049   1.394  0.0974 -0.1331 -0.0418
26576W        W46856  16.465  18.485   1.836 -0.0980 -0.1480  0.0776
26577W        W46857   3.692   9.115  12.137 -0.0022 -0.1746  0.1725
26578W        W46858   0.501  12.644   2.748  0.1680 -0.0100  0.1097
26579W        W46859   9.018  14.954  11.707  0.2582  0.2560  0.1985
26580W        W46860   8.219   3.652   0.253  0.0989 -0.0174 -0.2138
26581W        W46861  11.073  13.386  11.621 -0.0412 -0.2028 -0.0776
26582W        W46862   4.408  13.913   2.661  0.0521 -0.0701 -0.3091
26583W        W46863   9.003  16.018  13.639  0.2031 -0.2591  0.1714
26584W        W46864  19.712   3.131   3.124 -0.1320 -0.0505 -0.3097
26585W        W46865  12.453  15.834   3.480  0.0094 -0.1397  0.3179
26586W        W46866  12.068   1.002   0.266  0.2220 -0.1871  0.1672
26587W        W46867  17.282  14.501  11.345  0.4019  0.1440  0.3274
26588W        W46868  15.535   1.396  13.553  0.1244  0.1024 -0.0861
26589W        W46869   5.770   8.954   2.529  0.1647  0.2754  0.1897
26590W        W46870   8.342   4.472   0.695  0.0527  0.2008 -0.2484
26591W        W46871  14.852  19.198  12.947  0.2941 -0.1889  0.0743
26592W        W46872   4.689   6.211  13.886  0.0603  0.0679  0.4728
26593W        W46873  10.187   8.388   4.795 -0.3246 -0.0167 -0.1313
26594W        W46874   6.410   3.634  12.377  0.0602 -0.2909 -0.2456
26595W        W46875   7.658   2.079   1.565  0.2334  0.3031  0.1097
26596W        W46876   2.344  11.380  13.063 -0.0253  0.1617  0.3332
26597W        W46877   5.730   0.227  12.235 -0.0076 -0.0807  0.2875
26598W        W46878  16.114   0.859  10.626  0.3389 -0.1407 -0.2850
26599W        W46879  14.340   4.175   2.012 -0.1360 -0.0112  0.1312
26600W        W46880  14.619   5.488  11.067 -0.2457  0.0330 -0.0436
26601W        W46881  11.742   4.375  10.971 -0.0586  0.0977 -0.0258
26602W        W46882  14.794  14.827   3.311  0.2491 -0.1556 -0.3109
26603W        W46883  12.298  15.771   0.083 -0.1455 -0.0027  0.0201
26604W        W46884   2.831  10.204   1.407 -0.1981  0.2404  0.1866
26605W        W46885  13.643   2.626   1.558 -0.0809  0.5493  0.2188
26606W        W46886  17.885  15.886  12.327 -0.1047  0.0808  0.0657
26607W        W46887   8.423  17.478   3.129  0.0392  0.0864  0.1339
26608W        W46888  18.618   1.194   2.857  0.0142  0.0013 -0.0034
26609W        W46889  16.613  16.090  11.552 -0.1595 -0.1144 -0.1225
26610W        W46890  17.894   7.321   2.088  0.2877  0.1851  0.3612
26611W        W46891   9.414   1.358  12.717  0.0194 -0.2326 -0.0563
26612W        W46892   4.317   0.750   0.671  0.0143  0.1842 -0.1606
26613W        W46893  14.258   8.500   1.889  0.1191  0.0445  0.0058
26614W        W46894  14.090   9.438  11.135 -0.1849  0.1246  0.0668
26615W        W46895   8.577   5.322  12.246 -0.0688  0.0513 -0.1861
26616W        W46896  11.676  12.877   0.155  0.0905  0.3745 -0.2117
26617W        W46897   2.586  17.939  12.993 -0.0672  0.0206  0.0190
26618W        W46898  18.215   8.403   2.440  0.0877  0.0825  0.0101
26619W        W46899   3.518   8.056   1.651 -0.1790 -0.2708  0.0799
26620W        W46900   8.306   7.646   1.049 -0.0882 -0.0412  0.2756
26621W        W46901   5.479   6.740   3.373  0.0679  0.1531 -0.2466
26622W        W46902  15.457  11.959   2.419 -0.0769  0.1320  0.0507
26623W        W46903   1.684  13.603  11.228 -0.1487 -0.1468 -0.1006
26624W        W46904  13.323  11.783   9.793  0.0367 -0.0810  0.2509
26625W        W46905   2.457  18.631   0.096 -0.1238 -0.0706  0.0010
26626W        W46906   9.794   4.867  11.152  0.1509 -0.0012  0.0325
26627W        W46907   4.927  15.689   0.984 -0.1042 -0.0270  0.1879
26628W        W46908   3.540   4.019  12.706 -0.0769 -0.0483  0.4199
26629W        W46909   2.261   1.520   1.818  0.2229 -0.1786 -0.0967
26630W        W46910  17.877  10.792  10.905  0.2573  0.0745  0.2630
26631W        W46911   2.499   6.320   2.720 -0.0650 -0.1489 -0.1436
26632W        W46912   1.635  10.192  10.453 -0.1459 -0.0548  0.3491
26633W        W46913   3.211   1.506   9.896 -0.2298 -0.2135 -0.3190
26634W        W46914  17.165   0.193  11.860 -0.2308  0.0246 -0.1543
26635W        W46915   5.460  12.466   1.824 -0.1608 -0.0327 -0.2917
26636W        W46916  13.927  17.514  10.720  0.0142  0.0235  0.1412
26637W        W46917   6.207  16.729  11.719  0.3164 -0.0277  0.2978
26638W        W46918  15.744   8.734  12.656  0.0926  0.1009  0.1934
26639W        W46919  17.318   8.088   3.278  0.0149 -0.0500 -0.2086
26640W        W46920   2.535   7.623   4.860 -0.1228 -0.3069 -0.0858
26641W        W46921   6.733  13.130   5.178  0.0409 -0.0155  0.0895
26642W        W46922   6.569   4.101   4.251  0.0294  0.2258  0.2594
26643W        W46923   8.383  12.153   3.900 -0.0857 -0.1843 -0.0926
26644W        W46924  10.876  13.100  10.865 -0.0010  0.4619  0.0832
26645W        W46925  19.528   8.728  11.620 -0.1736  0.0296 -0.3073
26646W        W46926  13.403   4.184   2.845  0.2697 -0.1834 -0.3400
26647W        W46927  16.166  13.290   3.574  0.1644 -0.0220  0.1665
26648W        W46928   3.420   4.638  13.989 -0.5623  0.0693 -0.1602
26649W        W46929   9.674   3.395   1.109 -0.2897 -0.1154  0.0205
26650W        W46930  17.602   4.580  10.615  0.0044  0.0914 -0.2566
26651W        W46931   6.778   1.711  12.564 -0.0791  0.1380 -0.3642
26652W        W46932   8.647  10.013   3.477  0.0381  0.2773  0.0573
26653W        W46933   6.915  15.304  13.913  0.1472  0.3789 -0.0664
26654W        W46934  11.720   4.742  10.131  0.2788 -0.1154  0.0779
26655W        W46935  13.011  17.931  13.425 -0.0249  0.2483 -0.1807
26656W        W46936  10.467   1.961  10.162  0.1115 -0.3747 -0.3031
26657W        W46937  14.319   9.762   0.443  0.6441 -0.3917 -0.0625
26658W        W46938  18.417  18.031  14.067  0.0551 -0.1400  0.1635
26659W        W46939  10.319   7.532  13.359  0.3738  0.1488 -0.0850
26660W        W46940   3.471  11.840   2.414  0.2999  0.2099 -0.0924
26661W        W46941   7.494  12.660   3.840  0.2838 -0.4025  0.0479
26662W        W46942   6.096  16.872   1.860 -0.1584 -0.2527 -0.0628
26663W        W46943   9.771   9.591  11.637 -0.0554  0.0352 -0.2200
26664W        W46944   6.112  19.230   0.594 -0.1902  0.4269  0.0948
26665W        W46945  18.474   5.605   0.064  0.1040 -0.1182  0.1116
26666W        W46946  14.119   5.772   2.963  0.0216 -0.1700  0.1060
26667W        W46947  13.295   3.821  13.342 -0.1352 -0.0442 -0.2046
26668W        W46948   6.214  14.194  12.618  0.0622  0.1614 -0.1986
26669W        W46949   8.250  12.052   4.354 -0.1576 -0.3380 -0.1599
26670W        W46950  11.961   3.729  10.967  0.0172 -0.1370 -0.0152
26671W        W46951  19.010  14.546  13.542  0.1855  0.1673 -0.0654
26672W        W46952   2.394   3.480   2.238 -0.0289  0.0040  0.3417
26673W        W46953  16.239  17.009  11.288 -0.0591  0.1246  0.1616
26674W        W46954   8.546  15.710   5.230  0.1853 -0.1933 -0.0837
26675W        W46955   0.693   8.341  10.681 -0.1123 -0.2948  0.1272
26676W        W46956   3.289  10.456   0.756  0.1413 -0.5178 -0.0804
26677W        W46957   9.924   3.187   4.329 -0.1255 -0.0329  0.0774
26678W        W46958  13.635  17.400   2.425  0.3779  0.0926 -0.1358
26679W        W46959  16.888  10.844   2.434 -0.0636 -0.2420 -0.0449
26680W        W46960   1.848   9.160   1.307  0.3050 -0.0382 -0.0671
26681W        W46961  19.566   9.180  11.813 -0.0288  0.1205 -0.1936
26682W        W46962   5.563  10.489  13.888 -0.2059 -0.1294  0.1241
26683W        W46963   1.584  13.879   2.856  0.1406  0.3330 -0.1157
26684W        W46964   9.530   8.944  10.543  0.1024  0.0617 -0.0544
26685W        W46965   7.889  12.617  11.279 -0.0084  0.1199  0.1287
26686W        W46966  15.821   1.914  13.583  0.1874  0.0541  0.0919
26687W        W46967   8.805   3.378   1.328  0.0988 -0.2218 -0.1449
26688W        W46968   6.797   9.621   3.579  0.2156 -0.1206  0.3763
26689W        W46969   6.910  13.972   0.477  0.0517  0.2780  0.0580
26690W        W46970  15.490  10.663  13.114 -0.0291 -0.0955  0.0188
26691W        W46971  17.939  19.773  10.759 -0.1279  0.0805  0.1899
26692W        W46972   1.108   4.820   3.413 -0.0220 -0.0264 -0.2055
26693W        W46973  10.597   3.632   0.597  0.3451  0.0872  0.0677
26694W        W46974  18.745   8.223  11.850 -0.2084 -0.2245  0.0950
26695W        W46975  12.878  10.727  10.371 -0.0307 -0.1266 -0.0259
26696W        W46976   6.339   9.324   1.142 -0.3538  0.0577  0.2302
26697W        W46977  12.102  11.906   0.063  0.1740  0.1028  0.1728
26698W        W46978  19.211   9.138  13.155 -0.3399 -0.1119 -0.1310
26699W        W46979   2.642  12.951   2.892 -0.2585 -0.3339 -0.0211
26700W        W46980   2.853  19.326  13.222 -0.1882 -0.1551  0.2692
26701W        W46981  12.183  14.870   1.090  0.1891  0.0408 -0.2121
26702W        W46982  15.301  17.317   0.047 -0.1654  0.1987 -0.1172
26703W        W46983   7.499  11.531  13.381  0.1765  0.0167  0.0756
26704W        W46984   8.773   3.438   0.839 -0.1112 -0.2862 -0.1782
26705W        W46985  10.273   5.641  12.368 -0.0436  0.5624  0.1605
26706W        W46986  19.032  14.166   3.227  0.2950 -0.1230  0.0380
26707W        W46987   7.242  14.047   2.520  0.1621 -0.0061  0.1966
26708W        W46988  13.280   3.971  10.241 -0.0580  0.2934  0.1531
26709W        W46989   4.744   2.995   8.892  0.1188  0.2581 -0.1715
26710W        W46990  12.173  16.231   1.751 -0.1235  0.1523 -0.0286
26711W        W46991  12.630  18.286   2.921  0.1143  0.2145 -0.2140
26712W        W46992  16.516  11.514  13.718 -0.0731 -0.0684  0.1364
26713W        W46993  15.342   8.100   1.722  0.0262  0.2437  0.0956
26714W        W46994  11.493   9.086   1.978 -0.0296  0.0981 -0.1674
26715W        W46995   7.095  12.417  12.205 -0.0310  0.3956 -0.1865
26716W        W46996   6.839   6.025  10.787  0.0892  0.1305 -0.0242
26717W        W46997   5.251   9.165  13.549  0.0490 -0.3201 -0.1437
26718W        W46998  14.202   8.743   0.090  0.0734  0.0187  0.0171
26719W        W46999   9.526   9.906  13.736 -0.1679  0.1193  0.0760
26720W        W47000  15.154   9.826   0.990 -0.4024  0.2233 -0.1519
26721W        W47001  17.401   6.373   1.005  0.1871  0.2105 -0.2398
26722W        W47002   9.517  15.160   1.552 -0.0978 -0.1731  0.1271
26723W        W47003   1.241  13.301  10.511 -0.0120  0.0366  0.2812
26724W        W47004   6.974  10.747  11.262  0.1202  0.0584  0.0509
26725W        W47005   3.275  18.405   1.523 -0.1683 -0.0345 -0.0527
26726W        W47006   5.215  18.563   3.045  0.2644  0.3092 -0.2543
26727W        W47007   1.414  15.897  13.868  0.1607  0.0789 -0.0493
26728W        W47008   9.537  15.585   0.624 -0.0654 -0.2211  0.0811
26729W        W47009   0.871  19.133  10.777 -0.2156  0.1535 -0.0949
26730W        W47010  14.679   2.902   3.481 -0.1043  0.2134 -0.0926
26731W        W47011   6.260  17.815   2.487 -0.1421 -0.1545  0.2598
26732W        W47012  15.503   3.849  13.743 -0.1212 -0.0864  0.0210
26733W        W47013   1.752   0.163   2.743  0.3807  0.0858 -0.0380
26734W        W47014  17.469  10.933   2.293 -0.1953 -0.1836  0.1462
26735W        W47015   1.595   8.105  10.812 -0.1844  0.0722 -0.2422
26736W        W47016   9.390  16.379   0.819  0.1667  0.0749 -0.2161
26737W        W47017   2.019   7.115   0.860 -0.1599 -0.0440  0.0541
26738W        W47018   8.917  19.094   3.989  0.1706 -0.2487  0.2625
26739W        W47019  12.045   6.762   2.971 -0.0068 -0.1725  0.2987
26740W        W47020   5.816   2.121   2.755 -0.2640 -0.1143 -0.0230
26741W        W47021   6.104  15.078  12.607 -0.1800 -0.0268 -0.1675
26742W        W47022  13.222  10.013  13.742 -0.0525 -0.0132 -0.0558
26743W        W47023  19.049   5.248  12.692 -0.0689 -0.0097  0.0552
26744W        W47024   5.963   3.473   0.210 -0.0818 -0.0181 -0.0987
26745W        W47025   8.855   2.388  12.548  0.0849 -0.1156 -0.0138
26746W        W47026  12.771   4.456  10.059 -0.1763 -0.0257 -0.0500
26747W        W47027  17.668  14.752   4.037  0.1183 -0.1978  0.1017
26748W        W47028   4.951  18.020   0.932 -0.1072 -0.1249  0.0558
26749W        W47029  13.775  11.050  11.814  0.0824  0.3586 -0.0008
26750W        W47030  18.518   7.083   0.657 -0.0089  0.0066 -0.0910
26751W        W47031  15.064  18.861   9.865  0.1650  0.0580  0.0925
26752W        W47032   9.882  11.671  13.447 -0.0523 -0.0482  0.0214
26753W        W47033   1.841   8.087   3.788 -0.3556  0.1453  0.1429
26754W        W47034  14.518   7.592  10.593 -0.4030 -0.3841  0.2073
26755W        W47035   0.402  12.655   1.600  0.1292 -0.3631  0.3150
26756W        W47036   4.385   5.872   1.049  0.0153 -0.0509  0.0678
26757W        W47037  12.493   6.634   0.070  0.1419 -0.1781 -0.0111
26758W        W47038   9.324   1.846  10.235  0.0761  0.2472 -0.2394
26759W        W47039  12.593  13.027  10.344  0.2193  0.3232  0.2113
26760W        W47040  15.136   4.338   1.508  0.2118  0.1664 -0.1529
26761W        W47041  18.557   3.596   3.725  0.1762  0.0107  0.0860
26762W        W47042   9.622   5.493  10.406 -0.0721  0.4622  0.1255
26763W        W47043   0.474   3.179  11.923 -0.1082 -0.0035  0.2327
26764W        W47044   9.817   7.286  11.961  0.0354  0.0560  0.0385
26765W        W47045   6.612  10.547  13.504 -0.0961 -0.3929 -0.0559
26766W        W47046  14.556   3.719  10.400  0.0887  0.0809 -0.1626
26767W        W47047  15.382   3.689  12.797  0.1217 -0.1912  0.0205
26768W        W47048   3.146  11.251  10.794  0.0416 -0.1757 -0.2093
26769W        W47049  16.366  18.398   0.044  0.2145  0.1128 -0.1653
26770W        W47050  19.605  10.805   0.630 -0.0254 -0.0717 -0.0046
26771W        W47051  16.240   4.353   2.224 -0.0446 -0.2238  0.4354
26772W        W47052  12.171   8.644   2.326 -0.0345  0.0038  0.2121
26773W        W47053  19.308   5.011   9.456 -0.1001 -0.0385 -0.2117
26774W        W47054  12.670  12.519  13.617  0.3452  0.1360  0.0159
26775W        W47055   4.463  18.098   0.712 -0.0803 -0.1392  0.0288
26776W        W47056   4.379   5.780  13.787 -0.0704  0.0809  0.1159
26777W        W47057   4.408  19.670  11.176 -0.0999  0.2917 -0.1737
26778W        W47058   5.368  10.257   2.549 -0.1083 -0.0335 -0.1066
26779W        W47059  17.990  19.654  11.552 -0.0529 -0.0446  0.0933
26780W        W47060   5.496   5.174   0.358  0.0540 -0.3719 -0.3351
26781W        W47061   7.466   8.851  12.291 -0.0921 -0.2281  0.0981
26782W        W47062  15.265   8.820   0.022  0.0948 -0.3365  0.4242
26783W        W47063   1.687   6.884   2.724 -0.3037  0.1572 -0.0244
26784W        W47064   2.106   2.303  11.928  0.2613 -0.1094 -0.0276
26785W        W47065  17.370  14.876   2.420  0.2645  0.0854 -0.0203
26786W        W47066   0.732  18.326  13.112  0.2076 -0.2611  0.0369
26787W        W47067  16.808   3.351  13.903  0.0845 -0.1354 -0.0124
26788W        W47068   0.951  13.747  10.627  0.0758 -0.1405 -0.0956
26789W        W47069   7.784   0.444   0.486 -0.0570 -0.0630  0.2766
26790W        W47070  10.521   5.465  13.237 -0.1184  0.0379  0.2227
26791W        W47071  11.915  10.633  10.573  0.3679 -0.4160 -0.0926
26792W        W47072  16.324  10.301  10.424 -0.0861  0.0209  0.1915
26793W        W47073   9.029  17.965   9.650 -0.2545 -0.0201  0.1543
26794W        W47074   3.244   1.140  11.626 -0.1420  0.0010  0.1097
26795W        W47075  14.256  19.154   0.685 -0.0242 -0.1847 -0.2610
26796W        W47076  19.500  13.276  11.235  0.0992  0.0245  0.1816
26797W        W47077  13.654  17.838  11.063  0.1834 -0.0360  0.1038
26798W        W47078  14.461  15.062  10.981 -0.1882  0.1868  0.1188
26799W        W47079  10.276  15.966   2.665 -0.0725 -0.1861  0.2340
26800W        W47080  18.177   5.325  11.967 -0.0106 -0.0822 -0.1534
26801W        W47081   0.597   7.008   0.790  0.1824  0.1009 -0.4277
26802W        W47082   3.631   2.854  10.737  0.4375  0.0904 -0.4476
26803W        W47083  16.272  12.723   0.792 -0.1628  0.2016  0.2656
26804W        W47084   7.432  17.938   2.014  0.1131 -0.0430 -0.1918
26805W        W47085  12.997  17.954   3.080  0.3917 -0.2077  0.0529
26806W        W47086   2.780   2.515  10.621  0.2359 -0.3391 -0.1829
26807W        W47087   6.823   9.747   4.062 -0.2326  0.1441  0.0064
26808W        W47088   6.098  13.687  13.277 -0.1916 -0.2700 -0.2423
26809W        W47089   3.148  14.845   2.961  0.1051  0.0484  0.0455
26810W        W47090   4.896   2.691   3.111  0.2092 -0.1647  0.1959
26811W        W47091  16.292   3.454   0.029 -0.0692  0.0278 -0.1057
26812W        W47092   7.456   2.486   1.823  0.1566 -0.0029 -0.2568
26813W        W47093   8.159   6.942  11.747 -0.2408  0.1554  0.2855
26814W        W47094   7.461   0.421  13.879 -0.1673  0.2696 -0.1039
26815W        W47095   4.419  13.794   3.261 -0.2096 -0.2159  0.0684
26816W        W47096   9.350   2.965   1.766 -0.0940  0.3112  0.2004
26817W        W47097   9.056   1.682  12.443 -0.1952  0.1340 -0.0472
26818W        W47098  15.287  11.548  11.140 -0.4802  0.0770 -0.1813
26819W        W47099  13.067  18.536   0.167  0.0347  0.0909 -0.1258
26820W        W47100   0.515  13.895  12.112  0.1331 -0.0699 -0.0351
26821W        W47101   5.435  10.954  11.255  0.0533 -0.1548  0.0181
26822W        W47102   5.990   1.841   1.918  0.0569  0.1417  0.1943
26823W        W47103  15.550  16.148  12.421 -0.1943 -0.0981 -0.1907
26824W        W47104  18.763  19.123   2.438  0.1021  0.2365 -0.0621
26825W        W47105  16.695  15.155   0.621  0.3426 -0.2240 -0.2237
26826W        W47106  11.922  14.497  10.653  0.4015  0.1046  0.1403
26827W        W47107  17.598   1.979  11.818 -0.0184 -0.2137  0.2102
26828W        W47108   6.519  17.335   9.691  0.3062 -0.0628  0.1013
26829W        W47109  13.803   6.081  10.853  0.0908 -0.3110 -0.0744
26830W        W47110  11.959   5.857  11.679 -0.2459 -0.1321  0.0648
26831W        W47111   1.006   0.415  14.039 -0.3347 -0.3268 -0.1108
26832W        W47112  18.294  13.269   5.202  0.1733 -0.0948  0.3264
26833W        W47113  17.598   7.346   2.515  0.3155  0.0328 -0.5973
26834W        W47114   3.666   1.756   3.241 -0.3152 -0.1237 -0.1504
26835W        W47115   9.065   3.302  12.907 -0.1040 -0.3668 -0.1340
26836W        W47116   3.003  11.973   2.816 -0.0313  0.0783 -0.0649
26837W        W47117  13.964  12.631   1.523  0.1172  0.0232  0.0116
26838W        W47118  18.453   6.050  12.518  0.0004 -0.3062  0.0673
26839W        W47119   6.868  14.963   1.860  0.0718  0.0480 -0.0653
26840W        W47120   4.527   4.885  10.856 -0.2793 -0.0292 -0.1146
26841W        W47121  16.984   1.898   1.410  0.0738  0.0656  0.1483
26842W        W47122   5.379  17.616  10.863 -0.1203  0.0767 -0.0449
26843W        W47123  14.555  15.858   1.127  0.3045  0.1120  0.0619
26844W        W47124  13.874  17.114  11.043 -0.1751  0.0834  0.0040
26845W        W47125  14.294  19.662   0.983 -0.0306 -0.1990  0.3903
26846W        W47126   4.602   7.601  11.011  0.1404 -0.3027  0.2886
26847W        W47127  17.148  16.710  10.817  0.4894 -0.1962  0.0676
26848W        W47128   4.014   5.089  10.835  0.0801  0.0700 -0.2796
26849W        W47129   2.829   6.192   1.140  0.1208 -0.3311 -0.1490
26850W        W47130  15.454  13.867   2.257  0.2228 -0.1472 -0.0043
26851W        W47131   6.987  19.527  13.353 -0.2795 -0.0666  0.1384
26852W        W47132   4.970  13.424  11.913 -0.1404 -0.0200  0.0057
26853W        W47133  12.047  19.071   0.885  0.2221  0.0753 -0.2350
26854W        W47134   1.937   1.274   1.435  0.1484  0.2083  0.0024
26855W        W47135   2.853  10.291  11.771 -0.2019 -0.0866 -0.1133
26856W        W47136  18.748   0.094  12.478 -0.2106  0.0704  0.1227
26857W        W47137   3.093  16.454  10.385 -0.0085 -0.2583 -0.0596
26858W        W47138  11.364  14.810  10.438  0.3009 -0.2477 -0.2895
26859W        W47139  18.922   4.846   1.014 -0.1064  0.0373 -0.1465
26860W        W47140   7.159  16.866  12.084 -0.1526  0.0838 -0.3342
26861W        W47141  13.212   4.872  13.885  0.0479  0.1044 -0.1675
26862W        W47142   1.212  15.315  10.799  0.0735 -0.0443  0.0320
26863W        W47143   1.142   9.922   9.621 -0.0094 -0.2946 -0.1879
26864W        W47144  10.517  19.530  11.749  0.1960 -0.0715  0.0137
26865W        W47145  10.521   0.667   1.438  0.0890 -0.0471  0.1010
26866W        W47146  15.245  19.225  10.566  0.3742 -0.1224  0.0030
26867W        W47147  14.459   3.651  12.423 -0.1494  0.0071 -0.1593
26868W        W47148  19.020  13.774  10.321 -0.4235 -0.0423  0.0564
26869W        W47149   9.860  16.943   1.894  0.2170 -0.1445 -0.2190
26870W        W47150  17.774   8.145   0.452  0.2402  0.1931  0.3160
26871W        W47151  12.766   5.010   0.020  0.0026 -0.1342  0.1249
26872W        W47152  19.183  16.980   1.524  0.1597  0.3848 -0.2449
26873W        W47153   2.223  19.234   1.516  0.1604 -0.1153  0.2618
26874W        W47154   9.470  16.258  12.044 -0.0133 -0.3154  0.2786
26875W        W47155   8.271   4.883  12.239 -0.0859  0.1746 -0.3799
26876W        W47156  13.628  18.857  10.520 -0.3698  0.0622 -0.1406
26877W        W47157  11.912   4.080   0.631  0.0531 -0.1792 -0.3441
26878W        W47158  13.154  16.437   3.183 -0.0493 -0.1884 -0.0159
26879W        W47159  17.607   4.702   0.872 -0.1539 -0.1212 -0.1907
26880W        W47160   9.876  15.291   0.179  0.2905 -0.1056 -0.2108
26881W        W47161   3.294  16.349   2.116 -0.2299 -0.0974  0.2384
26882W        W47162   3.955   1.172   3.741  0.0979 -0.2071  0.2877
26883W        W47163   7.679   5.474  10.503  0.2720 -0.1087  0.1307
26884W        W47164  13.122  15.743   1.525  0.3531 -0.0589 -0.0913
26885W        W47165   9.343  11.060   1.382  0.0257 -0.1802 -0.2179
26886W        W47166   0.934  10.920   0.006  0.2814  0.0618 -0.0751
26887W        W47167   4.208  15.980   3.004 -0.1838 -0.2735  0.0562
26888W        W47168  16.301   5.115  12.077  0.1496  0.0954 -0.1405
26889W        W47169   1.939   3.110  10.433  0.3725  0.0978  0.0559
26890W        W47170  17.924  13.118   1.684 -0.1505 -0.0730 -0.2224
26891W        W47171   3.667   6.958  13.316 -0.1087  0.2076 -0.1384
26892W        W47172  12.534  19.488   1.130  0.1437  0.0536  0.1912
26893W        W47173  19.245  18.434  11.237 -0.0901 -0.2122  0.0587
26894W        W47174   3.860   7.319  10.488  0.0890 -0.3214 -0.0219
26895W        W47175   3.164  13.018   2.558 -0.1913  0.3916  0.0630
26896W        W47176   1.245  13.091   3.701 -0.0179 -0.0047 -0.1213
26897W        W47177  14.907   3.286   9.035  0.3110  0.0509 -0.1761
26898W        W47178  12.028   0.547  13.538  0.0972  0.1529  0.5277
26899W        W47179   5.384  10.280   1.428 -0.2867  0.1985  0.0957
26900W        W47180  17.730   3.221  13.994  0.1295 -0.0978 -0.2485
26901W        W47181   3.843   6.495  12.947  0.3071 -0.0291  0.0652
26902W        W47182  16.396  13.067   3.211 -0.1419  0.0878  0.1028
26903W        W47183  12.858  16.857  13.686  0.0599 -0.1762 -0.0309
26904W        W47184   5.797  17.385   3.871  0.0963  0.3324  0.1791
26905W        W47185   3.933   2.995   2.536  0.3862  0.3166  0.1345
26906W        W47186  15.504  16.447  14.051  0.0376  0.0423  0.1413
26907W        W47187   4.246  18.259   9.947 -0.1636  0.0072 -0.2509
26908W        W47188  15.902   5.275   0.020 -0.1842  0.0958  0.0071
26909W        W47189   7.405   4.968   1.839  0.0794  0.1065  0.1174
26910W        W47190   8.098  14.124  11.593 -0.0304  0.1128 -0.0836
26911W        W47191   8.687  12.106   1.591  0.4924  0.0709 -0.0320
26912W        W47192  18.435  14.773  11.844  0.1767 -0.1078  0.1013
26913W        W47193   2.430  15.024   3.416  0.1450  0.0167 -0.4690
26914W        W47194  17.812   2.700   3.469 -0.1414 -0.1688 -0.1728
26915W        W47195   0.518   1.856  10.773  0.1526  0.1954 -0.1799
26916W        W47196  12.808   3.454   2.068  0.1343  0.1227  0.0266
26917W        W47197   5.944  19.730  10.265 -0.0171  0.2182  0.2396
26918W        W47198  18.187   9.996   3.695  0.2167 -0.1215 -0.0730
26919W        W47199  10.210  18.726   2.079  0.1310 -0.0870 -0.3252
26920W        W47200  16.824   4.735  13.258  0.0466 -0.0789 -0.2456
26921W        W47201   6.966   8.740  11.160 -0.1042  0.1632  0.1926
26922W        W47202  16.702  17.356   2.920  0.0515 -0.4794 -0.0864
26923W        W47203   3.168  19.776  11.738 -0.0943 -0.0963 -0.2317
26924W        W47204  13.509   3.236   3.025  0.2234 -0.3704 -0.2641
26925W        W47205   0.758  11.480   3.529 -0.6092  0.1701  0.4513
26926W        W47206  16.934  12.306   9.595 -0.2956 -0.2298  0.2894
26927W        W47207   9.028  13.718  10.526 -0.1515 -0.1890  0.1080
26928W        W47208   1.926   2.236   3.377 -0.1947 -0.1585 -0.1656
26929W        W47209  11.074  17.900  12.267  0.2892  0.2179 -0.2237
26930W        W47210   9.656   2.682   9.890  0.1145 -0.0231  0.2001
26931W        W47211  15.147   5.435  11.419 -0.0008 -0.0670  0.0767
26932W        W47212  12.924  12.231  12.779 -0.2164 -0.0236  0.3047
26933W        W47213   4.003  10.377  11.696 -0.0869 -0.0067 -0.1026
26934W        W47214   3.923  18.955  11.664 -0.2683  0.2514 -0.3479
26935W        W47215   3.539  14.934  12.648  0.1304 -0.0326  0.0411
26936W        W47216   3.085   9.619   1.606 -0.1161 -0.0567 -0.1721
26937W        W47217   6.482  15.531  12.619  0.0357 -0.1401 -0.3518
26938W        W47218  19.684   1.102   3.097  0.1880  0.2790 -0.0978
26939W        W47219   5.367   1.539  12.430  0.2916  0.1971 -0.1185
26940W        W47220  15.281   0.507   1.960  0.1935  0.0324 -0.3018
26941W        W47221   5.407  18.682   4.036  0.1449 -0.2796  0.0384
26942W        W47222   9.513  15.013  13.045 -0.1040  0.2985 -0.2985
26943W        W47223  15.436   1.252  12.941  0.1702 -0.3173 -0.2629
26944W        W47224  14.061   5.026   0.929  0.0565  0.0174  0.0910
26945W        W47225  13.039   0.976   2.944 -0.0147  0.0181 -0.1817
26946W        W47226   2.903   2.170  12.260 -0.4563  0.3902 -0.0076
26947W        W47227  16.643  13.508   2.359 -0.1458  0.0615  0.1100
26948W        W47228  14.301   3.947   2.462  0.2751 -0.2865 -0.1482
26949W        W47229   0.953  13.567   1.177 -0.0111  0.0713 -0.1469
26950W        W47230  18.561  14.253  10.968  0.3216  0.2045 -0.2677
26951W        W47231  17.322  19.781  10.227  0.2313 -0.1478 -0.2171
26952W        W47232  17.820  15.565   0.737 -0.1780 -0.0501  0.0806
26953W        W47233   1.774   8.650  12.514 -0.2257  0.0966  0.1836
26954W        W47234   8.292  16.301   1.824 -0.4011  0.0838 -0.0790
26955W        W47235   1.366  16.793  10.952  0.1161  0.1574 -0.2570
26956W        W47236   7.096  17.127  13.164 -0.0071  0.1335 -0.1493
26957W        W47237   4.386  14.900   2.991 -0.0016  0.0599 -0.0518
26958W        W47238   9.985  13.304   3.360 -0.2769 -0.1252  0.3152
26959W        W47239   3.041   6.333   2.565  0.0706  0.1096  0.1283
26960W        W47240   8.495   9.022   1.237  0.0779  0.0981 -0.1694
26961W        W47241   0.827   0.902   2.803  0.2540 -0.2911  0.2641
26962W        W47242   0.422   1.712  13.276  0.0251 -0.3715  0.5290
26963W        W47243  11.221  11.246  13.190  0.2445  0.0842 -0.1551
26964W        W47244   7.646  19.658   2.628 -0.0383  0.0455 -0.1387
26965W        W47245  18.387   9.802  13.810  0.4024  0.2601  0.2764
26966W        W47246   9.390   1.142  12.266  0.3147  0.2972  0.2826
26967W        W47247  14.411   1.335  13.067 -0.1537  0.2790 -0.0671
26968W        W47248  12.169  13.017   0.084  0.0920  0.0706 -0.0023
26969W        W47249   5.589   0.247  10.076  0.1067  0.2027 -0.1812
26970W        W47250   6.101   9.616  10.815  0.1771 -0.0955 -0.0397
26971W        W47251   1.046  16.047   0.374  0.0804  0.2057 -0.0247
26972W        W47252   3.621   0.280  13.610  0.1448 -0.0482  0.0412
26973W        W47253  11.911   9.870   3.484  0.0601  0.1517  0.3077
26974W        W47254   6.078   4.415  12.004  0.0169  0.1926  0.0600
26975W        W47255  19.496  10.217   0.114  0.1713 -0.2094 -0.1729
26976W        W47256   1.087  14.972  11.127 -0.4577 -0.0555 -0.3209
26977W        W47257  18.589   5.786  12.119 -0.0686  0.0421  0.1375
26978W        W47258  12.734  10.232  13.545  0.0983 -0.2239  0.0423
26979W        W47259  17.017   6.732  11.359  0.0855  0.1786  0.1264
26980W        W47260   4.747  14.763  13.657  0.0483  0.0319 -0.0248
26981W        W47261  15.513   9.567   1.301  0.1148  0.1972 -0.1556
26982W        W47262   1.014  10.700  11.608 -0.0786  0.1125 -0.1257
26983W        W47263   9.081  19.224   2.527  0.1680  0.1210  0.1148
26984W        W47264  18.304  16.999  12.924 -0.0021  0.0761  0.0837
26985W        W47265   4.276   6.366  13.652 -0.0453  0.1450 -0.0928
26986W        W47266  10.349   1.105   3.077 -0.1849  0.2463  0.1450
26987W        W47267   5.286   8.665  13.702  0.0892 -0.2473 -0.1141
26988W        W47268  14.483  18.675   0.692 -0.2289 -0.1396  0.0112
26989W        W47269   5.368  18.962  13.590  0.1404 -0.0824  0.0003
26990W        W47270   9.765   1.777   3.315  0.3130 -0.0215 -0.0632
26991W        W47271  12.911   9.710  13.508  0.0431  0.2411 -0.1649
26992W        W47272  15.128   4.871  11.558 -0.0775 -0.1191  0.0653
26993W        W47273  12.772  11.594   1.798 -0.1510  0.0611  0.3757
26994W        W47274  12.620   8.460   2.019  0.0209 -0.3289 -0.1029
26995W        W47275  18.931  18.570  11.660  0.1386  0.0032  0.0842
26996W        W47276   8.939  13.809  11.075 -0.2365  0.0326  0.1206
26997W        W47277  19.002   0.001   3.152 -0.1103  0.1041 -0.0073
26998W        W47278   8.107   0.074   0.637 -0.2674 -0.0322 -0.0290
26999W        W47279   0.522   3.949  11.566  0.3856  0.0979  0.1633
27000W        W47280  13.603  11.333   3.996  0.1592 -0.2088  0.3483
27001W        W47281   4.354   0.701  10.458 -0.0018 -0.0279 -0.0910
27002W        W47282   3.340  19.673   3.924 -0.2411 -0.1006 -0.0170
27003W        W47283   2.679  12.542  12.347  0.1829  0.0359 -0.0884
27004W        W47284  16.653   5.959   1.263 -0.0917  0.0563 -0.3331
27005W        W47285  11.475   6.404   4.404  0.1092 -0.1688 -0.1569
27006W        W47286   0.875   0.991   1.338 -0.1704 -0.1948 -0.0053
27007W        W47287  15.237  12.313  14.106 -0.0908 -0.0940 -0.0475
27008W        W47288   9.948  11.309   4.185 -0.2266 -0.1776  0.0683
27009W        W47289   4.761  19.164   2.705 -0.1328 -0.1705 -0.2809
27010W        W47290   4.956  17.983   0.439  0.0780 -0.0985  0.2208
27011W        W47291   3.940   3.612   1.581 -0.0092 -0.2780 -0.1072
27012W        W47292  14.686   1.326  13.919 -0.0815 -0.3163  0.2755
27013W        W47293   2.380  11.669  10.341 -0.0206 -0.2706 -0.2089
27014W        W47294  16.492  15.255  13.664  0.0266 -0.1001 -0.0299
27015W        W47295   3.880   1.081   0.726 -0.0202  0.0130 -0.1968
27016W        W47296  14.639   5.466   0.681 -0.2894 -0.1152  0.2668
27017W        W47297   2.279  16.794   3.626 -0.0882 -0.0791 -0.1777
27018W        W47298  19.250  16.354   0.892  0.1385  0.0763 -0.2556
27019W        W47299  16.235   8.398  12.206 -0.0397  0.0583  0.1280
27020W        W47300  14.557  15.809   3.099  0.1843 -0.1415 -0.2733
27021W        W47301  11.160  10.451  12.321  0.0947  0.1891  0.2015
27022W        W47302   1.639  18.801   1.902 -0.4564  0.2465 -0.0427
27023W        W47303   4.428  18.665  10.347 -0.0035  0.1930 -0.1866
27024W        W47304   7.081   0.838  10.869 -0.0206 -0.0309 -0.0582
27025W        W47305   7.295  11.677   2.419  0.1389  0.1591  0.2349
27026W        W47306   8.578   6.754  14.069  0.0725 -0.3242 -0.0081
27027W        W47307  13.925  15.028   2.264 -0.1487 -0.0296  0.1054
27028W        W47308  10.926  12.569  11.360 -0.1433 -0.0362  0.1226
27029W        W47309   3.223  15.594  13.336 -0.1642  0.0954  0.2619
27030W        W47310   2.045  13.717   4.338  0.2214 -0.2169  0.2121
27031W        W47311  12.436   8.709  11.564  0.2664 -0.1301  0.0163
27032W        W47312   2.445   6.205  12.427  0.0448  0.2649 -0.1981
27033W        W47313  15.131   9.867   1.481 -0.2515  0.4369  0.0579
27034W        W47314  15.199  15.952  11.585 -0.0938  0.0909  0.0874
27035W        W47315  17.326   2.400  11.750 -0.0439  0.1034 -0.2016
27036W        W47316  15.401   6.689   2.434 -0.1290  0.1438 -0.0320
27037W        W47317  11.668   4.787  10.653  0.0495  0.1051  0.3578
27038W        W47318   3.321  14.923  10.693  0.1931  0.3540  0.0893
27039W        W47319   4.342   9.017   1.942 -0.0183 -0.2988  0.0290
27040W        W47320   0.538   7.079  10.591  0.0848 -0.1829 -0.0530
27041W        W47321   7.479   5.355   1.353 -0.1377  0.0183 -0.1248
27042W        W47322   2.170  18.708   2.702 -0.0895  0.0247  0.0459
27043W        W47323  14.045   2.315   2.989 -0.1931  0.0363  0.5071
27044W        W47324   9.352   0.440   3.342 -0.1865 -0.0072  0.2514
27045W        W47325  12.035   0.438   0.274  0.0300  0.2554  0.0004
27046W        W47326   7.781  19.295   5.006  0.0151  0.0536  0.0138
27047W        W47327  11.587   7.318   0.809  0.0116  0.0296 -0.0600
27048W        W47328  15.782  15.960   2.934  0.0579 -0.1436  0.0198
27049W        W47329   4.309  15.493   0.941 -0.1035  0.2340 -0.0224
27050W        W47330  10.872  11.355   0.767 -0.1810 -0.1135  0.0322
27051W        W47331   9.650  19.415   5.072  0.1558  0.0381 -0.1704
27052W        W47332   2.482   0.542   4.553  0.1065 -0.2697 -0.2731
27053W        W47333  10.525  11.410   1.732  0.0746 -0.2355 -0.0869
27054W        W47334  16.814  16.826   3.424 -0.1436  0.0611 -0.1785
27055W        W47335  19.008   3.496  11.995  0.1028  0.1345 -0.2277
27056W        W47336  14.158   3.208  13.240 -0.1131 -0.1900  0.0515
27057W        W47337  15.802  17.733  11.356  0.1136  0.4242  0.0423
27058W        W47338   4.466   0.333  14.011 -0.1665 -0.0380  0.0519
27059W        W47339   2.147   2.137   3.857  0.2228  0.0637 -0.1718
27060W        W47340   5.017   3.140   3.216  0.2637  0.1080  0.1393
27061W        W47341  10.477   6.433   2.245  0.2390  0.0189 -0.1929
27062W        W47342   4.651  10.494   3.993 -0.1127 -0.0314 -0.0753
27063W        W47343  17.995   0.235   9.563 -0.1531  0.0025 -0.3639
27064W        W47344  16.135  18.427   2.891  0.1683 -0.1438  0.3059
27065W        W47345  17.147   8.248  11.369  0.0149  0.1388 -0.0402
27066W        W47346  10.634   3.247   3.306 -0.0684 -0.0610  0.0041
27067W        W47347  19.380   9.357   0.373  0.0110 -0.0419 -0.1791
27068W        W47348   0.733  15.639   4.098  0.2278  0.2475  0.0997
27069W        W47349   9.349  13.389  11.000 -0.0506 -0.1853 -0.2124
27070W        W47350   3.619  19.464   2.320  0.4008  0.2312  0.1733
27071W        W47351   0.798  15.330   0.406 -0.0353 -0.0948  0.5168
27072W        W47352  16.283  18.830  13.415 -0.1579 -0.1898 -0.0915
27073W        W47353  15.907   7.796  12.964 -0.0622  0.0716  0.4947
27074W        W47354   6.341  16.700  11.166 -0.1343 -0.0778 -0.1137
27075W        W47355   9.454   7.387  12.744  0.0679  0.3815  0.1057
27076W        W47356   3.365   5.443   2.656 -0.4261  0.1272  0.4649
27077W        W47357  11.186   3.139  10.564 -0.0992  0.0345 -0.1477
27078W        W47358  10.480  10.902   3.241 -0.1753 -0.0158  0.0011
27079W        W47359   7.532   6.248   2.107 -0.0574 -0.0376 -0.1770
27080W        W47360  13.569  10.474  13.463 -0.2362  0.0316 -0.2685
27081W        W47361   4.357   4.399  10.226 -0.0910 -0.5231 -0.0895
27082W        W47362   3.913  15.744  10.611 -0.2027 -0.1308  0.2697
27083W        W47363   3.600  16.926  13.333  0.1137 -0.1713 -0.2239
27084W        W47364  14.720   1.159  10.695 -0.0655 -0.0791 -0.0589
27085W        W47365   8.986   4.979   3.259  0.0179  0.1965 -0.1391
27086W        W47366  16.152   5.674   3.128  0.2568  0.0464  0.1295
27087W        W47367   7.366  16.476  11.764  0.0458 -0.2862  0.0169
27088W        W47368  14.383   0.133  14.037 -0.1424  0.0787  0.1201
27089W        W47369   6.704  15.442  11.280  0.1085  0.0088 -0.0448
27090W        W47370   8.833  14.929   3.184  0.0053 -0.1681  0.0866
27091W        W47371   6.818  12.927  14.037  0.2398 -0.0719 -0.2823
27092W        W47372  17.506  15.021   2.922  0.1447 -0.2213 -0.0312
27093W        W47373  14.141  13.436   3.495 -0.0619  0.0487  0.0964
27094W        W47374   5.491   5.733  10.754  0.1842  0.0095  0.0548
27095W        W47375   3.042   2.760   9.513  0.0324 -0.1666 -0.0830
27096W        W47376   4.302   8.287  12.615 -0.1928  0.0199  0.0252
27097W        W47377  18.772   4.094   3.976 -0.0588  0.2429 -0.0421
27098W        W47378   9.431   6.713  12.708 -0.1253  0.3975  0.0258
27099W        W47379   1.712  10.324  13.769 -0.2202 -0.0788  0.1692
27100W        W47380  11.757  13.486   2.805 -0.1951 -0.0634 -0.0039
27101W        W47381  12.538   8.971  13.837 -0.1932 -0.0651 -0.0392
27102W        W47382  18.372   8.950   1.201 -0.0754 -0.0102  0.0423
27103W        W47383   7.594  11.102  12.051  0.1108  0.3161  0.2361
27104W        W47384  12.502   2.589   2.142  0.1316  0.0761 -0.1335
27105W        W47385   9.719  12.728  10.462  0.1211  0.1857 -0.1153
27106W        W47386   7.074  19.140  12.636 -0.0468  0.1053 -0.0745
27107W        W47387   2.008  17.970   1.631 -0.0155 -0.0765 -0.1014
27108W        W47388  15.708  14.343   2.333 -0.0907  0.1154 -0.0478
27109W        W47389   1.954   4.689   0.002 -0.1909  0.0599 -0.1882
27110W        W47390   7.638  10.299   2.565 -0.1490  0.0448  0.4646
27111W        W47391  14.891  19.011   3.097  0.1971 -0.1198 -0.2613
27112W        W47392   2.643   4.352   3.278 -0.1626 -0.3808 -0.2051
27113W        W47393  18.602  14.439   0.110 -0.2822  0.2196 -0.0848
27114W        W47394   9.233  13.211   2.490 -0.2493 -0.1345 -0.0854
27115W        W47395   6.658   7.687   1.709  0.2347  0.0251  0.2824
27116W        W47396  11.877   7.726  13.936 -0.0552 -0.3605 -0.4906
27117W        W47397   0.542  16.596  12.353 -0.2769 -0.0034  0.1531
27118W        W47398   1.561   8.750   3.307  0.0323  0.1910 -0.1047
27119W        W47399   4.178   4.695   3.483 -0.0281 -0.4860  0.1726
27120W        W47400   1.869  14.157   0.087 -0.1887  0.1697  0.2876
27121W        W47401   5.950   6.074  13.513  0.5548  0.2179 -0.1500
27122W        W47402  15.159  10.718   0.870  0.1162 -0.1704  0.3521
27123W        W47403   2.215   2.157   2.071  0.0338  0.1844 -0.1378
27124W        W47404  17.489   4.905   1.859  0.4879  0.0615  0.2515
27125W        W47405   3.715  16.251  13.374  0.2374 -0.1654 -0.2302
27126W        W47406  17.724  10.223  10.970 -0.1370 -0.2000  0.1768
27127W        W47407   7.455   0.611   4.917  0.1028  0.0533  0.2580
27128W        W47408   5.413   4.731   1.349 -0.1305  0.0732  0.0366
27129W        W47409   6.910   7.183  11.436 -0.1532 -0.3361 -0.2236
27130W        W47410   1.970  15.023   3.863 -0.2699  0.1143  0.1207
27131W        W47411   2.757   4.975  13.461  0.2085  0.0662 -0.1750
27132W        W47412   9.766   2.683  12.033  0.3674 -0.0549 -0.1550
27133W        W47413  11.245  18.498  12.072 -0.0099 -0.0588 -0.1609
27134W        W47414  11.513   9.528  11.363  0.0899  0.1740 -0.0348
27135W        W47415  12.248   7.368  12.691 -0.2796  0.2197  0.0483
27136W        W47416  13.563   5.347  11.731 -0.5010  0.0488 -0.2056
27137W        W47417  15.054  11.279   0.756 -0.0790 -0.1680  0.1578
27138W        W47418  19.160  15.139   9.973 -0.1480  0.1698 -0.1050
27139W        W47419   4.645  13.145   3.432  0.1187  0.0297  0.0457
27140W        W47420   7.670   2.179   9.600 -0.1028  0.1433 -0.1138
27141W        W47421  16.217   4.451  13.543  0.0868  0.4219 -0.0767
27142W        W47422   9.521  19.770   3.113 -0.2407 -0.1335  0.1524
27143W        W47423  15.188   7.912   0.831  0.1707  0.1393  0.3915
27144W        W47424   9.205  10.272  12.187  0.0512  0.2249  0.0070
27145W        W47425   9.245   5.772  10.613 -0.0268  0.2178  0.0781
27146W        W47426  10.114   4.115  13.226  0.0988  0.2548  0.0965
27147W        W47427   1.314  19.683  10.222  0.3644  0.0626  0.1036
27148W        W47428   6.092   9.477   9.269  0.0691 -0.0259 -0.0784
27149W        W47429   7.386  16.466  11.220 -0.1313 -0.2718  0.5344
27150W        W47430  14.507  14.854   2.784 -0.2872  0.0573 -0.0380
27151W        W47431   2.995   5.996  12.318 -0.0989 -0.2536  0.2897
27152W        W47432  15.738  11.875  12.090 -0.0145 -0.2309  0.3683
27153W        W47433   6.665  16.664  11.790 -0.0401 -0.2845 -0.1012
27154W        W47434   5.633   7.797   0.763  0.0264  0.0509 -0.0699
27155W        W47435  14.126  15.382   0.072 -0.1921 -0.0322 -0.1063
27156W        W47436   4.191  18.844  10.718  0.0068  0.4970 -0.2838
27157W        W47437   3.294   4.541  12.753 -0.0218  0.0834  0.2352
27158W        W47438  10.397  12.462   2.721 -0.1149  0.3193  0.2640
27159W        W47439   5.545  14.990  12.696 -0.3923  0.0053  0.0653
27160W        W47440   3.320   2.319   2.071 -0.0217  0.0168  0.1678
27161W        W47441   1.271  12.728   0.409 -0.0678 -0.2853  0.2006
27162W        W47442  11.923  15.191   3.029  0.1347 -0.1509  0.0751
27163W        W47443  16.483   2.816   3.326 -0.0993 -0.1639 -0.1297
27164W        W47444  16.191  15.611   1.867  0.1157  0.2436 -0.0785
27165W        W47445  14.129  15.411   1.990 -0.0031 -0.1471 -0.0697
27166W        W47446  12.915   7.696  12.119 -0.0386  0.1052  0.0926
27167W        W47447   5.400   2.182  12.451  0.3650  0.5012  0.2197
27168W        W47448   1.619   8.481   2.366  0.1132  0.0605  0.0045
27169W        W47449   5.239  11.559  11.307 -0.3586 -0.1208  0.2288
27170W        W47450   7.722   1.508   1.987  0.0239 -0.0275  0.2714
27171W        W47451  10.461  15.934   3.167  0.3915 -0.1601 -0.4614
27172W        W47452   0.216   6.749   1.825 -0.0208  0.0896 -0.4192
27173W        W47453   5.198   9.782  11.334 -0.0927 -0.1052  0.0971
27174W        W47454   8.619  14.044   3.535  0.3771  0.2350 -0.1467
27175W        W47455   7.857  13.191  11.787  0.0427  0.0135  0.1562
27176W        W47456  14.723   3.668  10.973 -0.1420 -0.0619 -0.3261
27177W        W47457   7.939  15.525  14.023 -0.0910 -0.0666 -0.0696
27178W        W47458  10.488   5.961  12.846 -0.1025  0.1416  0.4031
27179W        W47459  15.245   0.249   3.039 -0.1485  0.0715 -0.0369
27180W        W47460  19.082   7.417  12.766 -0.3423  0.2523 -0.2756
27181W        W47461   9.720  13.792  12.967 -0.1781  0.1919 -0.1975
27182W        W47462  16.158  10.069   3.332  0.3274 -0.1800  0.2026
27183W        W47463  13.635  19.672   1.129 -0.0002 -0.2081 -0.0295
27184W        W47464   3.197  16.037   9.046  0.0105 -0.1800  0.2210
27185W        W47465  17.494  17.809   9.102 -0.0122  0.1924  0.0860
27186W        W47466  11.935  10.277   1.973  0.1297 -0.1819  0.0608
27187W        W47467   4.503   0.199   2.467  0.0584  0.0270 -0.2519
27188W        W47468  15.022   4.610  11.123  0.0869 -0.2942  0.0485
27189W        W47469   5.077  12.032   1.241  0.2324 -0.1871  0.1199
27190W        W47470   3.573   0.910   3.777  0.0627  0.3911 -0.2740
27191W        W47471   2.592  13.412  10.785  0.0918  0.0910 -0.2497
27192W        W47472  16.761   5.898  10.567 -0.1160 -0.0050  0.0204
27193W        W47473  14.483  12.556  11.638  0.1669 -0.0834 -0.0812
27194W        W47474   5.132   3.412   2.798 -0.0820  0.1678 -0.3404
27195W        W47475   6.028   0.245   1.694 -0.2849 -0.0362 -0.0357
27196W        W47476   4.273  10.735  11.996 -0.0258  0.4203 -0.1756
27197W        W47477   2.807   2.867  11.481  0.1537  0.1941  0.1224
27198W        W47478   8.498  10.385  12.825 -0.0236 -0.0697  0.0713
27199W        W47479   0.118   0.857  11.942  0.0846 -0.0776  0.4330
27200W        W47480  19.031   8.286  13.443 -0.1840  0.3946 -0.1517
27201W        W47481   3.651   2.130  12.011 -0.0123  0.2468  0.1757
27202W        W47482   2.520  11.611  13.434 -0.2644 -0.3006 -0.3205
27203W        W47483   3.505  18.268  12.040 -0.1253 -0.2721 -0.2524
27204W        W47484   3.719  13.453   3.513 -0.1916 -0.3615  0.1410
27205W        W47485  19.230   9.779  12.406 -0.2580  0.1835  0.2276
27206W        W47486  16.606   3.602  11.249  0.2212 -0.1677  0.2019
27207W        W47487  10.192   7.962  13.661  0.2642 -0.0116 -0.0907
27208W        W47488   2.591   8.711  10.835 -0.1392 -0.0601 -0.0335
27209W        W47489   8.045   6.968  10.887  0.3204  0.4776 -0.1678
27210W        W47490   1.365  14.107  12.707 -0.2052  0.1315 -0.0084
27211W        W47491   1.677  12.427   0.018 -0.0297  0.1423 -0.2179
27212W        W47492   5.701  18.743   2.872  0.0383  0.6075  0.0373
27213W        W47493   5.122  16.717   0.798 -0.2359  0.0393 -0.2894
27214W        W47494  10.166   1.687  10.538 -0.2709  0.1032 -0.0450
27215W        W47495  12.310  12.580  10.987 -0.0937 -0.0374 -0.0215
27216W        W47496  10.358  17.191  10.670 -0.2172 -0.0405  0.0701
27217W        W47497  19.345   7.385   1.376 -0.0498 -0.0610  0.2384
27218W        W47498  16.519   8.482   3.270  0.1891 -0.0372 -0.0020
27219W        W47499  15.992   7.721   1.598 -0.1276 -0.2588 -0.1916
27220W        W47500   7.062   6.496  12.266 -0.3675  0.2888 -0.1359
27221W        W47501   0.345   4.117  12.767  0.2212  0.0169 -0.1402
27222W        W47502   4.890  10.677   2.214 -0.2003 -0.1275 -0.1303
27223W        W47503   9.376   5.852  11.184  0.0049 -0.0133 -0.1880
27224W        W47504   8.958  10.906   0.293  0.2486 -0.2738  0.2249
27225W        W47505  14.469   4.657  12.316  0.2333  0.4373 -0.0722
27226W        W47506  16.467  11.483  11.915  0.3233 -0.0042  0.0493
27227W        W47507   2.434  16.190  11.887 -0.3812 -0.4400 -0.1341
27228W        W47508   2.052   6.611  11.328  0.3749 -0.2392  0.3402
27229W        W47509   1.607   2.945  10.936  0.1579 -0.0683  0.2122
27230W        W47510   9.504   7.128   4.789 -0.0216  0.0764 -0.0662
27231W        W47511   8.230  14.541  10.914 -0.3899  0.0091  0.2376
27232W        W47512  17.291   4.038   1.318 -0.2744  0.4685 -0.1648
27233W        W47513   2.091  13.795  13.150 -0.0102  0.0480 -0.2152
27234W        W47514   5.356   6.509   1.080  0.1120 -0.1288 -0.1659
27235W        W47515   9.155  11.982  10.556  0.1910 -0.4378 -0.1752
27236W        W47516  14.480   4.130  13.212  0.1722  0.2219 -0.3843
27237W        W47517   7.305  17.600  13.140  0.1498 -0.0650 -0.2466
27238W        W47518  16.081   9.276  11.762  0.1714  0.0278  0.2272
27239W        W47519   6.986  11.119   0.480 -0.4162  0.1801 -0.1918
27240W        W47520   5.747  12.574   2.580 -0.4355 -0.0444 -0.1936
27241W        W47521   5.618  19.076   0.404 -0.4238  0.0802  0.1048
27242W        W47522  13.835  13.736  10.363 -0.0251  0.0796 -0.0931
27243W        W47523  15.239   9.651   3.527  0.0549  0.0761 -0.1163
27244W        W47524   0.811  10.938   0.885 -0.0863 -0.0264  0.0909
27245W        W47525   4.835  18.609   2.777  0.2033 -0.1667  0.0786
27246W        W47526  17.317   4.264  11.257  0.2052  0.0112  0.2571
27247W        W47527  16.788   2.345  11.618 -0.1050 -0.2970  0.0751
27248W        W47528  11.759   3.114  13.870 -0.1311 -0.0472  0.0528
27249W        W47529   8.774   1.138  11.547 -0.1676 -0.1177 -0.2225
27250W        W47530  15.515  18.128   9.803 -0.2033  0.2240  0.0670
27251W        W47531   6.462   8.952   3.621 -0.0226 -0.0214 -0.1570
27252W        W47532   6.937   0.847  10.162 -0.1591 -0.0334  0.2207
27253W        W47533   6.575  19.499   2.337  0.2730 -0.2092  0.1716
27254W        W47534  12.522   9.651   1.421 -0.3251 -0.3411 -0.1532
27255W        W47535  17.199  18.910   0.146  0.6426  0.0277 -0.1887
27256W        W47536  13.614  14.772  12.348 -0.1084  0.3170 -0.2143
27257W        W47537   2.951  18.870   3.047  0.0336  0.0855 -0.0232
27258W        W47538  12.670  19.050   9.826 -0.3118  0.2355 -0.0444
27259W        W47539   2.259  15.245  12.987  0.0387  0.0294  0.0382
27260W        W47540   6.466  15.802  13.178 -0.0710 -0.3206  0.0307
27261W        W47541   8.758   6.508  11.433  0.2530 -0.1445  0.3254
27262W        W47542   6.515  15.945   1.164 -0.3087  0.0297  0.2209
27263W        W47543   2.063  10.779   1.352 -0.2653 -0.1667 -0.0295
27264W        W47544   4.116   9.945  12.605  0.0165  0.1862  0.1564
27265W        W47545  17.446  15.648  11.290  0.0296 -0.0193  0.0061
27266W        W47546  19.382  16.718   2.079  0.0668 -0.2322 -0.1322
27267W        W47547   0.408   5.805   3.626  0.1152 -0.1147  0.2255
27268W        W47548  11.580   9.722  10.830  0.2195 -0.1153 -0.1860
27269W        W47549   7.727   3.920  11.940 -0.1397  0.2246 -0.0877
27270W        W47550   8.184  17.118  13.201  0.1164 -0.1491  0.1692
27271W        W47551   5.221  11.222   3.094 -0.1770 -0.1835 -0.1902
27272W        W47552   7.473  15.310   1.085  0.0153  0.3355  0.0652
27273W        W47553  15.532   7.753   3.104  0.3261 -0.1861 -0.1780
27274W        W47554  17.641  18.618   0.454  0.3122  0.2955 -0.0534
27275W        W47555   3.278  18.157   3.211 -0.0336 -0.0606  0.1086
27276W        W47556  13.074  19.711  13.210 -0.0981  0.0381  0.4315
27277W        W47557  13.965  10.953   2.955 -0.2102 -0.0935  0.2873
27278W        W47558   9.302   3.297  12.468 -0.0426  0.0080  0.0742
27279W        W47559  15.366   4.255  11.019 -0.2224  0.0013 -0.0505
27280W        W47560   6.998   3.157  12.557 -0.1139  0.1782 -0.0807
27281W        W47561  17.719  15.664  10.792 -0.3179  0.1618 -0.3744
27282W        W47562  18.160  19.530  13.691  0.2179 -0.0945  0.1269
27283W        W47563   4.000  11.932  12.803 -0.0217 -0.3374  0.0811
27284W        W47564  13.370  12.091   1.078 -0.1342 -0.2748  0.0888
27285W        W47565   7.827   6.582  11.627  0.0113  0.4508 -0.0620
27286W        W47566   5.174  15.212   3.977  0.1126  0.0922  0.1850
27287W        W47567  13.734  16.669   0.603 -0.1246  0.0875  0.1157
27288W        W47568   6.865  14.636  12.352 -0.1257 -0.1070  0.1758
27289W        W47569  18.232  15.246   0.860 -0.2255  0.1084 -0.0881
27290W        W47570   8.366  10.061  11.316  0.1820  0.0880  0.1133
27291W        W47571  15.765   4.034   3.099  0.1042 -0.1847 -0.1392
27292W        W47572  18.551   4.082   1.636  0.0518  0.1188 -0.0201
27293W        W47573   1.275  18.023   3.528  0.1558 -0.2380 -0.0970
27294W        W47574   1.283  17.611  13.351 -0.2447 -0.1403  0.1587
27295W        W47575  13.849   4.245  13.964 -0.4622 -0.1387  0.0572
27296W        W47576   1.062   2.293  13.235  0.1682  0.0203 -0.3915
27297W        W47577   2.179   7.873  11.473 -0.1708  0.0024 -0.1483
27298W        W47578  19.049  19.036  11.972  0.1532 -0.3372 -0.2732
27299W        W47579   8.463  13.766  10.875  0.1782 -0.3542 -0.1336
27300W        W47580  18.306   1.999  14.035 -0.1033 -0.1475  0.0383
27301W        W47581   9.877   4.210   2.873 -0.0131  0.2140  0.1042
27302W        W47582   8.403   9.918  12.098  0.1502  0.3212 -0.0195
27303W        W47583   5.002   4.482  12.901 -0.0704  0.2011  0.2251
27304W        W47584   7.305   2.945  13.779 -0.1002 -0.1062  0.2545
27305W        W47585   3.574   2.734   3.247  0.0900 -0.1922 -0.1551
27306W        W47586   0.878  11.458  11.711  0.1118 -0.1590 -0.0616
27307W        W47587  12.091   9.424  10.284  0.0498  0.1276 -0.1620
27308W        W47588   3.509   0.349  12.048 -0.1687  0.0788  0.1051
27309W        W47589  16.781  14.262   0.060 -0.0773 -0.3208 -0.4322
27310W        W47590   8.675  14.088   0.166  0.1079 -0.0264  0.0010
27311W        W47591  12.937  18.961   3.058  0.1273  0.0196 -0.2865
27312W        W47592  10.714  13.389   1.559  0.1030 -0.3415  0.0433
27313W        W47593  14.354   9.365  11.947 -0.1913 -0.3728  0.2311
27314W        W47594  10.247   8.286  14.087  0.0217  0.2240 -0.1780
27315W        W47595  15.930  17.169   3.399  0.1351  0.0263 -0.4752
27316W        W47596  15.662  16.954   0.166  0.3775 -0.0825 -0.0025
27317W        W47597  10.119   8.084   0.999 -0.3328 -0.2685  0.0758
27318W        W47598   9.262  11.223  13.207  0.2482  0.4394  0.1868
27319W        W47599  19.124  13.354  11.916  0.0366 -0.1474  0.1383
27320W        W47600  11.591  11.436  11.625 -0.1803 -0.1439 -0.1902
27321W        W47601   8.054  10.444   1.216 -0.2872  0.1092 -0.2631
27322W        W47602   6.772  18.103  13.194 -0.0746 -0.1344 -0.0350
27323W        W47603  12.152  18.303   3.089 -0.3875 -0.1987 -0.3491
27324W        W47604   8.600  15.988  11.084  0.1046 -0.4088 -0.1021
27325W        W47605  19.390  10.654   4.664 -0.0587  0.0013  0.0299
27326W        W47606   9.716  14.613   2.939  0.2561  0.1250  0.3804
27327W        W47607   1.642   7.794  11.277  0.0472  0.1497  0.0907
27328W        W47608  19.298   5.238  11.603  0.0660 -0.0873  0.1084
27329W        W47609  15.122   3.509   0.108  0.1606  0.1968  0.1274
27330W        W47610  13.931   0.158  13.825  0.3957 -0.0942  0.0220
27331W        W47611   0.457  16.285   2.154  0.0813 -0.1057 -0.5703
27332W        W47612  14.740  18.332  12.163  0.0103 -0.1914 -0.0633
27333W        W47613  11.328  13.881   2.293  0.0528 -0.0114  0.2141
27334W        W47614   9.016   7.892  11.013  0.2739 -0.1803 -0.0975
27335W        W47615  12.444   0.067  13.050 -0.1920  0.1759  0.2989
27336W        W47616   5.385   3.713  11.413  0.0638 -0.1405  0.0605
27337W        W47617  16.775   3.721   2.150  0.0879 -0.0181 -0.0526
27338W        W47618  13.392   4.323  11.941 -0.1033 -0.2476  0.0594
27339W        W47619   6.237  19.072   1.121  0.4973  0.0286  0.0101
27340W        W47620   5.107  19.771  10.287 -0.0635 -0.0326 -0.1964
27341W        W47621  11.995   3.991   9.977  0.0479 -0.0169 -0.0436
27342W        W47622  15.797  19.497  12.251 -0.1340 -0.2108 -0.2135
27343W        W47623   2.692   3.308   0.425 -0.3186 -0.1118  0.1020
27344W        W47624   1.090   9.985   0.143 -0.0297  0.0807 -0.0547
27345W        W47625   7.406  17.179   0.490 -0.2202  0.0442  0.1615
27346W        W47626   6.358   6.682   3.989  0.1877 -0.0199 -0.0679
27347W        W47627   9.721   3.881   0.885  0.0550  0.0197  0.0936
27348W        W47628  17.827  17.291   4.670  0.1947  0.0318  0.1648
27349W        W47629   6.741   0.989   1.211 -0.2416  0.0047  0.0181
27350W        W47630   4.274  17.552  11.531 -0.2382 -0.0977 -0.1755
27351W        W47631  11.675  17.826   9.600 -0.0440  0.0506  0.1077
27352W        W47632  18.620   1.638  13.650  0.2263 -0.0367  0.0188
27353W        W47633  10.384  13.546  12.220  0.2209  0.1011  0.2260
27354W        W47634   3.498   1.454  12.976  0.0823 -0.2786  0.0717
27355W        W47635   9.207   8.355  12.828  0.0761 -0.1543  0.3688
27356W        W47636  10.971   1.117   1.138 -0.1890 -0.2160 -0.0322
27357W        W47637   0.707   8.871  11.852 -0.1075  0.0935 -0.2352
27358W        W47638   6.207  12.399   2.749  0.5169 -0.2411  0.1557
27359W        W47639  10.455   1.894   0.375 -0.0381  0.0096 -0.1135
27360W        W47640  10.761  13.448   1.010  0.0381  0.2906  0.1947
27361W        W47641   8.785  18.568   1.581  0.1415  0.0749  0.0820
27362W        W47642  12.721  15.810  10.942 -0.0791  0.2145 -0.2794
27363W        W47643   9.412  18.104  10.450  0.0007 -0.0091 -0.0984
27364W        W47644  15.261   6.738  11.982 -0.1604 -0.0793 -0.1486
27365W        W47645  19.734   7.853   0.632 -0.4785 -0.0803 -0.0383
27366W        W47646   8.170   8.386  12.733 -0.1263  0.1521  0.0058
27367W        W47647   8.232  12.326  13.379 -0.0541 -0.0381 -0.2161
27368W        W47648  18.172  12.920  11.695  0.0047 -0.1667 -0.1952
27369W        W47649   8.909  12.795   0.429  0.1750  0.1862 -0.0413
27370W        W47650  11.584  10.436  12.765 -0.0464 -0.1903 -0.4039
27371W        W47651   6.301  19.001  10.209 -0.1183 -0.0890  0.1995
27372W        W47652  19.079  15.696   3.622 -0.1037 -0.0573 -0.1135
27373W        W47653   6.012   8.607   0.982 -0.0547 -0.1057  0.0541
27374W        W47654   0.480  16.820   0.046 -0.0549 -0.0111  0.2054
27375W        W47655  12.485   3.073  13.194  0.0351 -0.3071  0.1595
27376W        W47656   9.764   4.624   2.617  0.2210 -0.2405  0.0120
27377W        W47657  14.861   6.492   3.011  0.1154  0.0336 -0.0507
27378W        W47658   0.238  16.241  13.820 -0.2931 -0.0286  0.1248
27379W        W47659  13.353   8.852  11.197 -0.1493 -0.1357 -0.1292
27380W        W47660  18.201   7.830   0.587 -0.1809  0.0360  0.3459
27381W        W47661   7.040   1.828   0.279 -0.1556  0.3055 -0.0290
27382W        W47662   2.960  16.972  10.650 -0.3214 -0.0332 -0.3675
27383W        W47663  11.141   6.971   0.141 -0.0713  0.1357  0.2384
27384W        W47664  16.376  14.852  13.937 -0.3069 -0.0902  0.0005
27385W        W47665   8.244   3.706  13.101  0.3559  0.2653  0.1207
27386W        W47666  14.384  19.610   2.199  0.0160 -0.2910 -0.2358
27387W        W47667   2.775   4.256   1.621 -0.0249 -0.3597 -0.1360
27388W        W47668   9.199  16.067  11.055  0.0308  0.1883 -0.0601
27389W        W47669  14.318   6.610   4.364  0.0025  0.1161  0.0884
27390W        W47670  13.897  15.236   2.771  0.0504 -0.0241  0.1147
27391W        W47671   3.537   0.635   3.373  0.1638  0.0933  0.2128
27392W        W47672  15.181  15.130  11.576 -0.0031  0.0100  0.0486
27393W        W47673  10.100  14.978   0.694 -0.1118  0.2201 -0.0229
27394W        W47674  12.708   4.438   1.592 -0.3941  0.0969 -0.1196
27395W        W47675   8.878   9.686  11.549  0.1220 -0.0945  0.2553
27396W        W47676  14.015   2.624   3.525 -0.2441 -0.3023 -0.3079
27397W        W47677  10.366   5.520   3.539  0.1465 -0.3652  0.2885
27398W        W47678  19.725  16.972   0.094  0.0714  0.1683  0.2581
27399W        W47679   3.557   1.925  13.194  0.0503  0.0532  0.1542
27400W        W47680  11.641  15.827   2.447 -0.0294  0.1990  0.0425
27401W        W47681  14.153   6.172   2.582 -0.3633  0.1435  0.2160
27402W        W47682  11.194  17.121  10.546 -0.1171  0.0971  0.1156
27403W        W47683   6.132  11.818   0.023 -0.4134 -0.2320 -0.0775
27404W        W47684   3.034   3.233  11.121 -0.1972 -0.0447 -0.4434
27405W        W47685  16.921  13.884  12.004  0.0064 -0.1015 -0.0893
27406W        W47686   7.310   7.429  11.232 -0.3436 -0.0854 -0.2248
27407W        W47687  12.360  16.693  12.216  0.1564 -0.1090  0.2220
27408W        W47688   7.480  19.638   2.152  0.2035 -0.0843 -0.1454
27409W        W47689   5.452   0.104   2.805 -0.0728  0.2506 -0.0057
27410W        W47690   3.453   7.704  12.467 -0.2841 -0.2997  0.0556
27411W        W47691   5.228   4.178  11.296  0.0635  0.3097 -0.3566
27412W        W47692   2.658   1.238  11.234 -0.2507  0.0727  0.0355
27413W        W47693   0.871   4.207  11.165  0.0609 -0.1984 -0.1083
27414W        W47694   8.946   0.971  10.652  0.2599  0.0869  0.0746
27415W        W47695  18.308  12.726  12.160  0.0085  0.2706  0.0726
27416W        W47696   1.041  17.838  13.872 -0.0062  0.0684 -0.1551
27417W        W47697  10.125   7.228  10.477 -0.0111 -0.0461  0.0531
27418W        W47698  16.343   1.280  12.649 -0.1162 -0.1001 -0.2503
27419W        W47699   8.208   6.688  12.614 -0.0807  0.0623  0.0184
27420W        W47700  11.225   4.342  11.506 -0.3203 -0.2094  0.1604
27421W        W47701   1.269  18.776  10.013  0.0455 -0.4068 -0.0496
27422W        W47702   1.498   6.994  10.070 -0.0264 -0.1607 -0.1616
27423W        W47703  11.095  19.781  12.484  0.0522  0.0259  0.0152
27424W        W47704  10.042   9.237   2.932 -0.0250 -0.1471  0.0748
27425W        W47705  19.084  16.145  10.902  0.1444 -0.1273  0.0449
27426W        W47706   5.489   5.214  10.933  0.0665 -0.1690 -0.2084
27427W        W47707   5.008  12.375   3.089 -0.0211 -0.0082  0.5430
27428W        W47708  16.720  17.310  11.140 -0.1499  0.0274 -0.0356
27429W        W47709  10.818   0.589  11.515  0.1741 -0.2516 -0.0660
27430W        W47710  15.266  11.315   0.301  0.2207  0.0162  0.0980
27431W        W47711  18.359  15.104   2.651 -0.0219 -0.0208 -0.1712
27432W        W47712  15.281   7.852  11.804 -0.1467  0.0269 -0.0625
27433W        W47713  16.809   5.968  11.821 -0.1854  0.1893  0.3427
27434W        W47714   0.673  17.433   3.593  0.2491  0.0505 -0.1872
27435W        W47715  10.728   1.999   9.595  0.0033  0.0081 -0.0351
27436W        W47716   4.048   8.397  10.899  0.1746 -0.0868 -0.0660
27437W        W47717   4.549   6.743   4.319 -0.1161 -0.1160  0.1444
27438W        W47718   5.407  10.829  13.487  0.3442  0.1257  0.2345
27439W        W47719   6.267   5.189   2.613 -0.1656  0.0211  0.0466
27440W        W47720  18.881  18.091  10.047  0.0865  0.1199  0.0308
27441W        W47721  12.122   3.468   1.454  0.4348 -0.0543 -0.2739
27442W        W47722   9.673   5.664   4.808  0.0401 -0.0486  0.3149
27443W        W47723   7.329   5.227  10.733  0.1003  0.2006 -0.0964
27444W        W47724   2.950  10.780  10.939  0.0174  0.0303  0.0643
27445W        W47725  13.964   6.136  10.353  0.1959 -0.1283 -0.2386
27446W        W47726  19.409  11.728   2.343  0.3320  0.1397 -0.1312
27447W        W47727  19.098  14.809   0.752 -0.1183  0.0734 -0.1263
27448W        W47728   3.951  12.140   2.661  0.1542 -0.2194  0.0910
27449W        W47729  18.929  15.437  12.952 -0.3652  0.4279 -0.0818
27450W        W47730   8.980   3.764  11.571 -0.2347 -0.0604 -0.0506
27451W        W47731  15.639   6.443  13.602 -0.1360 -0.0512  0.0524
27452W        W47732   1.383   6.092   3.346 -0.1060 -0.0375 -0.1376
27453W        W47733  17.243  17.953   1.907  0.1469  0.0866  0.0555
27454W        W47734  17.683   2.488   1.831 -0.0901  0.0982  0.3462
27455W        W47735   2.768   0.986   3.223 -0.1146 -0.1670 -0.0976
27456W        W47736   1.254   6.000  11.876 -0.3208  0.0805 -0.0708
27457W        W47737   3.989  18.001  10.946  0.0586  0.0200  0.1806
27458W        W47738  18.725   6.523   3.633 -0.1371 -0.0190  0.1467
27459W        W47739  10.996  13.975   2.852  0.0816 -0.2251 -0.2381
27460W        W47740  17.609   9.226   3.865 -0.0393  0.0943  0.0450
27461W        W47741  16.922  10.642   3.582 -0.1564 -0.1365  0.1591
27462W        W47742   0.777  14.993   1.103 -0.2394  0.2269  0.0423
27463W        W47743   5.394   5.076   3.104 -0.0850 -0.3780 -0.1717
27464W        W47744   9.480  16.497   2.788 -0.0901 -0.3082  0.0275
27465W        W47745   7.661  17.830  10.569  0.0781  0.1420 -0.0406
27466W        W47746   3.089  17.548  11.794 -0.3022 -0.0267 -0.0771
27467W        W47747   4.787  16.458  13.918 -0.4291  0.0357  0.0771
27468W        W47748  11.799   4.615  11.918  0.0148 -0.4020  0.0138
27469W        W47749  11.795   6.015   0.241 -0.0129 -0.1454  0.2050
27470W        W47750  12.811  12.031   2.607 -0.1664 -0.0596  0.0501
27471W        W47751  12.922   8.263  13.184 -0.1175 -0.0441  0.1016
27472W        W47752   8.393   7.700  12.200  0.0571 -0.0382  0.0839
27473W        W47753   0.838  11.158  11.017  0.3541  0.0030  0.0277
27474W        W47754   3.883  13.283   0.280  0.3340 -0.2084 -0.1105
27475W        W47755  18.081   7.906   3.877  0.2812  0.0675 -0.0067
27476W        W47756  16.920   6.602   3.637 -0.2251 -0.3621  0.1893
27477W        W47757   9.678  17.158  10.757  0.3818 -0.0209  0.1170
27478W        W47758   7.356   7.046  11.537  0.1466 -0.2363 -0.3904
27479W        W47759   1.939   4.267  10.332  0.0337  0.0256 -0.1485
27480W        W47760   7.015  13.177  12.825 -0.0102 -0.0854 -0.0838
27481W        W47761  16.942  14.054  11.299 -0.0808 -0.3670 -0.0953
27482W        W47762  10.607  15.580   1.332  0.4876 -0.1929 -0.0117
27483W        W47763   2.160   1.145  11.216 -0.1926 -0.0109  0.3457
27484W        W47764  10.675  14.965   0.463 -0.2283 -0.1410 -0.1624
27485W        W47765   5.802   1.621  10.888 -0.3276 -0.3377  0.1441
27486W        W47766  15.963   2.127  11.072 -0.0072  0.1845 -0.2510
27487W        W47767  18.311  13.100   3.414  0.2355  0.1284 -0.2166
27488W        W47768  10.958  13.064  13.596  0.3275 -0.3854  0.0489
27489W        W47769  12.754  14.619  13.842  0.0562  0.0557 -0.1305
27490W        W47770  13.066   0.042  10.070  0.0603 -0.0971 -0.2616
27491W        W47771   4.151  10.082  10.576 -0.1143 -0.0041  0.0505
27492W        W47772   6.456   8.193   0.082  0.0811 -0.0535  0.1453
27493W        W47773   3.670  16.840   2.800  0.2141  0.0636 -0.0933
27494W        W47774   6.843   3.448  11.187  0.0516  0.1645  0.2650
27495W        W47775   0.793  18.900  10.036 -0.1942  0.0465 -0.5472
27496W        W47776  16.128   5.931  10.265 -0.2234  0.1292 -0.0604
27497W        W47777   7.921  11.940   3.882  0.1855  0.1082  0.0797
27498W        W47778  15.657   0.372   8.920 -0.1579  0.0279 -0.1543
27499W        W47779   3.576  12.796  12.962 -0.4115 -0.0732 -0.0236
27500W        W47780  15.340  10.462  11.465 -0.0925  0.1714  0.0231
27501W        W47781   5.230   0.976   9.513  0.0561 -0.1549  0.2697
27502W        W47782  19.680   6.051  11.443 -0.1847 -0.0270  0.0182
27503W        W47783   1.814   7.885   4.209 -0.0725 -0.2282 -0.2355
27504W        W47784   0.090  14.849   0.096 -0.2679  0.0981  0.0142
27505W        W47785  12.143   7.712  11.338 -0.1433 -0.0748 -0.1364
27506W        W47786  10.059   5.903  13.792  0.0953  0.2630 -0.0629
27507W        W47787  12.341   9.840   0.544  0.1016 -0.0654  0.1048
27508W        W47788   8.683   6.994  12.604  0.4781 -0.1493 -0.0747
27509W        W47789   7.809   3.024   0.584  0.1370  0.2058 -0.2731
27510W        W47790  14.013  12.459  11.960 -0.0599 -0.3672  0.0675
27511W        W47791  15.434   2.213   3.462  0.1235 -0.0382 -0.0811
27512W        W47792  12.813   0.827  11.878 -0.2945  0.0729 -0.2290
27513W        W47793   1.904  16.749  12.315  0.2831 -0.2193  0.0309
27514W        W47794   1.316  15.361   2.756  0.0045 -0.2577 -0.1116
27515W        W47795   7.499   5.825   3.616  0.1106 -0.1239 -0.3088
27516W        W47796   8.339  14.852   1.404  0.0956  0.3196  0.1372
27517W        W47797   6.426   7.309   1.475  0.1845  0.1338  0.3118
27518W        W47798  10.824  11.169   1.988 -0.1591  0.1748  0.1029
27519W        W47799  11.112   7.705  13.338 -0.0968 -0.0553  0.3258
27520W        W47800  13.509  12.834   1.726  0.1312  0.1124  0.3501
27521W        W47801  17.942   3.191   3.377  0.1586 -0.2071 -0.3851
27522W        W47802   7.651  14.316  12.018  0.1005 -0.1566 -0.0273
27523W        W47803  16.851   3.714   1.373  0.0973  0.1627  0.0191
27524W        W47804  13.277   1.392  11.691  0.2508  0.1146 -0.1539
27525W        W47805   0.552  11.055  13.505 -0.0806  0.3987 -0.0972
27526W        W47806   0.774  10.400  13.199 -0.1419 -0.1022  0.2872
27527W        W47807   5.529   6.994  10.455  0.1593  0.1276 -0.0003
27528W        W47808   2.126   8.430  12.265 -0.0163  0.0968  0.2564
27529W        W47809  15.022   3.807   1.438 -0.0918 -0.2634 -0.3675
27530W        W47810   3.772   2.560  13.364  0.0534 -0.1471  0.2223
27531W        W47811  12.794   7.971   3.514  0.1647  0.0949 -0.1501
27532W        W47812  19.439  16.628   9.128 -0.0354 -0.2984  0.5422
27533W        W47813  17.772   7.668  13.477  0.1999 -0.3318  0.2105
27534W        W47814   6.045   4.447   0.726 -0.2806 -0.0834 -0.1593
27535W        W47815  17.233   2.457   2.070 -0.0497 -0.0582 -0.0456
27536W        W47816  14.670  14.618  12.929 -0.1380  0.2538 -0.1660
27537W        W47817   8.119   8.704   1.347 -0.0077  0.0821  0.0425
27538W        W47818   8.405   5.429   1.556 -0.0573 -0.2829  0.2957
27539W        W47819  18.630   5.118  13.807  0.0031 -0.0356  0.0947
27540W        W47820  17.228  10.766  13.735 -0.0491 -0.1563  0.1482
27541W        W47821  13.720  11.534  11.691  0.0555 -0.0947 -0.0828
27542W        W47822   1.215   9.941   0.679 -0.0562  0.0364  0.0958
27543W        W47823  17.699   2.252  11.402 -0.1493 -0.1028  0.0830
27544W        W47824  16.591   8.447  13.085  0.1635  0.0574  0.1325
27545W        W47825   1.980  16.359  10.581  0.0484 -0.2900 -0.0843
27546W        W47826  12.287   3.758  10.308  0.0904 -0.3355 -0.1261
27547W        W47827   4.608  15.253   3.256  0.0123  0.1798  0.1106
27548W        W47828  11.732   8.756   0.363 -0.0385  0.1972  0.2047
27549W        W47829  15.296  12.055  11.974  0.1015  0.1212 -0.0546
27550W        W47830  18.254   8.433  10.370 -0.0648  0.2244  0.0622
27551W        W47831  16.780   1.521   9.452 -0.4737  0.1606 -0.3257
27552W        W47832   4.174   4.746  11.169  0.1230 -0.4035 -0.3063
27553W        W47833   9.910   3.106  10.849 -0.2476 -0.0420  0.1894
27554W        W47834  12.277  15.113   2.162  0.1445 -0.2430  0.1587
27555W        W47835  14.718   7.436  12.695  0.1427 -0.1002 -0.2890
27556W        W47836   7.408  10.434   1.393 -0.1502  0.3848  0.0006
27557W        W47837  11.225   6.528  12.450 -0.0460  0.0081 -0.1585
27558W        W47838   9.764   4.712   1.337  0.1104  0.0097 -0.2016
27559W        W47839  14.060   3.274   2.704  0.0060 -0.1224 -0.0866
27560W        W47840  14.848   3.354   1.313  0.1176  0.0228 -0.0889
27561W        W47841   1.186   0.966  13.804 -0.2025 -0.1048 -0.1168
27562W        W47842  11.421  11.891  11.601  0.2111 -0.1727 -0.1298
27563W        W47843   6.187  14.282   0.944 -0.1589  0.1968 -0.2737
27564W        W47844   1.115  18.477   0.401 -0.0944  0.1264 -0.1877
27565W        W47845  10.750  16.069   1.190 -0.1417 -0.0889 -0.0068
27566W        W47846  17.486  16.446  11.681  0.2303  0.2807  0.0524
27567W        W47847  11.784   8.743   2.614  0.2304 -0.2839  0.0141
27568W        W47848   0.802   9.174  11.468  0.2784 -0.0563 -0.3489
27569W        W47849   1.888  14.321   3.639 -0.0906 -0.0118 -0.0174
27570W        W47850   6.550   9.768   1.018  0.0231 -0.0682 -0.2071
27571W        W47851  10.203   5.212   0.799  0.1833  0.0331  0.1130
27572W        W47852  12.955   3.197  12.398 -0.0619 -0.1597  0.2401
27573W        W47853   5.999   6.050  12.371  0.0940 -0.0275 -0.0371
27574W        W47854  12.075   0.723   3.264 -0.2393 -0.0335  0.0278
27575W        W47855   7.485   6.785  13.046  0.2184 -0.4055 -0.0979
27576W        W47856  18.953   9.177   1.275 -0.3032  0.0613  0.1047
27577W        W47857  13.458  16.375   3.629  0.3457 -0.4332 -0.0803
27578W        W47858  15.040  16.420   2.256  0.3134 -0.0584 -0.2234
27579W        W47859  10.415   7.502   0.702  0.2610 -0.0583 -0.0850
27580W        W47860  12.792   3.739  10.318 -0.2890  0.0577 -0.0404
27581W        W47861   1.206   4.540  11.107 -0.0899  0.0526  0.0775
27582W        W47862  11.466   6.714   2.412 -0.0055  0.1653  0.1191
27583W        W47863   5.797  12.906   2.102  0.0547 -0.1792  0.1773
27584W        W47864   1.336   6.031   1.560 -0.1916 -0.0241 -0.1785
27585W        W47865   5.421  17.431   3.485 -0.3291  0.1754 -0.2855
27586W        W47866  18.391  15.672  11.835 -0.0459  0.1638 -0.1708
27587W        W47867   1.159   2.431   0.647  0.0973  0.0216  0.0768
27588W        W47868  18.175   4.516   0.196 -0.1325  0.0731 -0.1144
27589W        W47869   3.113   0.407  13.804  0.0684 -0.0109  0.3141
27590W        W47870  19.330   6.198  13.294  0.0664 -0.0270  0.0960
27591W        W47871   4.534   8.046   3.197  0.0520  0.1546  0.3273
27592W        W47872   5.819   8.272  13.322  0.1607 -0.1914 -0.1272
27593W        W47873  16.617   0.396  10.811 -0.1148  0.4544 -0.0391
27594W        W47874  13.797   7.572  13.819 -0.4302  0.1221  0.0954
27595W        W47875  16.632  19.380   2.983  0.0931  0.0426 -0.0393
27596W        W47876  19.582   0.630   0.621 -0.1759 -0.1003  0.0314
27597W        W47877   3.655  13.005   3.698  0.0341 -0.4879  0.2633
27598W        W47878  14.142   0.805   1.037 -0.1404 -0.1629  0.0663
27599W        W47879   0.823   0.915   1.940  0.1206 -0.1178  0.0619
27600W        W47880  12.694   4.732  13.573 -0.0037 -0.1764 -0.2658
27601W        W47881   0.202  13.564   0.787  0.0590  0.0132 -0.2011
27602W        W47882   2.620  15.709   1.353  0.1590 -0.1786  0.3080
27603W        W47883   5.179  14.718   2.093  0.0011 -0.0137  0.1686
27604W        W47884   6.474   7.013   1.956 -0.1902  0.1795  0.0557
27605W        W47885   1.890   2.163  13.746 -0.0276  0.2327  0.0649
27606W        W47886  19.781   2.314   3.512 -0.1630  0.1414 -0.4976
27607W        W47887  19.261   1.709  10.654 -0.1608  0.3022  0.2058
27608W        W47888   9.916   0.916   2.908 -0.3112 -0.0716 -0.0494
27609W        W47889   3.266   5.774   1.148 -0.1344  0.0228 -0.1443
27610W        W47890   3.597   7.677  11.192  0.1154 -0.1594  0.1485
27611W        W47891   7.033   6.406  13.139 -0.1398  0.1532  0.0867
27612W        W47892  11.162  13.608   1.419 -0.2368  0.0187 -0.1628
27613W        W47893   3.937  12.880   9.557 -0.1816  0.0302 -0.1220
27614W        W47894   3.543  16.648   9.522  0.1156 -0.3192 -0.0192
27615W        W47895   9.795  16.520  11.677 -0.0457  0.0679 -0.1949
27616W        W47896   7.213  11.162   3.709  0.1978  0.0686 -0.0275
27617W        W47897  10.140  11.919  11.425 -0.0925 -0.0504  0.1414
27618W        W47898   7.769  17.344   1.305 -0.1719 -0.0935 -0.3861
27619W        W47899   5.186   8.131   2.608  0.0464  0.1916 -0.2319
27620W        W47900   3.760   7.194  12.400  0.1514 -0.0710  0.1979
27621W        W47901  15.854  12.000   0.219  0.1511 -0.0902  0.2113
27622W        W47902   3.742  10.646  12.152  0.1337  0.1156  0.1464
27623W        W47903   3.232  13.240  13.439  0.4281  0.0147  0.2770
27624W        W47904   5.814  10.014   1.552  0.0163 -0.1772 -0.4608
27625W        W47905  14.182  15.731   4.321 -0.0189  0.0447 -0.0475
27626W        W47906  10.315  11.926   3.585  0.1269  0.1239  0.0782
27627W        W47907   9.771   7.755   9.308  0.3171 -0.0637  0.3874
27628W        W47908   4.911   4.223   0.663 -0.1628 -0.1475 -0.1069
27629W        W47909   3.868   6.858  10.689  0.3330 -0.1403  0.0974
27630W        W47910  13.575   0.426  11.535  0.2522 -0.0098  0.0013
27631W        W47911  19.392   5.880   3.208  0.1849  0.0941  0.0147
27632W        W47912   1.764   8.272   1.252 -0.2802 -0.0601 -0.0468
27633W        W47913   3.268  11.527   9.993  0.1925  0.1366  0.2517
27634W        W47914   5.253  19.044  10.955  0.1599 -0.1602 -0.2774
27635W        W47915  18.382  11.368   4.105  0.1834  0.2973  0.0634
27636W        W47916  14.202   1.591   0.191  0.0743  0.2685  0.0494
27637W        W47917   0.590  15.804   0.154  0.2609 -0.4303 -0.0209
27638W        W47918   9.507   9.092  12.758 -0.0375  0.1331 -0.2192
27639W        W47919   7.868   6.355   0.262 -0.2294  0.1122  0.0360
27640W        W47920   1.496  10.885   1.954  0.2716  0.3275  0.3371
27641W        W47921  15.146  11.950  13.619 -0.1561  0.1220  0.3863
27642W        W47922   7.427   7.940   2.154 -0.0469  0.1991 -0.0308
27643W        W47923   8.956   2.089  13.981 -0.1733 -0.0329  0.1748
27644W        W47924   9.823  18.042  13.206  0.1449  0.0326  0.0666
27645W        W47925  10.288  18.775  10.611 -0.1175 -0.0082 -0.0782
27646W        W47926   0.305  19.206  11.527  0.2952 -0.2317 -0.2003
27647W        W47927  12.083  14.815   2.639  0.3108 -0.0740 -0.2218
27648W        W47928  12.025   9.180  13.843  0.2512 -0.1676  0.0734
27649W        W47929   3.538  16.472   3.198 -0.0329  0.1136  0.2870
27650W        W47930   5.704  14.539  13.403  0.1982 -0.0398 -0.0645
27651W        W47931   8.158   7.261   1.302 -0.2328 -0.1375  0.1710
27652W        W47932  19.067   6.592   4.092  0.0826 -0.0549  0.0808
27653W        W47933  18.230   8.887  11.231 -0.0199  0.0131 -0.2678
27654W        W47934  12.121   3.039   2.785 -0.0695 -0.1448  0.1673
27655W        W47935   5.679   8.932   4.297  0.0202  0.1931  0.1306
27656W        W47936   1.214   4.006   0.482 -0.0443 -0.2509 -0.1264
27657W        W47937   6.661  10.617  10.766  0.1556  0.4657  0.4105
27658W        W47938   5.697   6.305   2.207  0.3494 -0.1597  0.1643
27659W        W47939   9.096  12.416  11.303  0.2167  0.1566 -0.0877
27660W        W47940   3.712  14.919  13.462  0.0210 -0.0571 -0.2452
27661W        W47941  19.481   9.235   2.827  0.2426  0.2343  0.0874
27662W        W47942  12.269   3.708   8.799  0.2125 -0.2155 -0.2486
27663W        W47943  12.945   2.956   2.259 -0.0658 -0.1790  0.1443
27664W        W47944   0.162   4.179   3.481 -0.2060  0.2081 -0.0074
27665W        W47945   9.234  10.913   2.953  0.0314  0.3986 -0.2894
27666W        W47946  13.539  18.093  10.178  0.0093 -0.0511 -0.2908
27667W        W47947  16.505   7.129   0.896 -0.0984  0.4466 -0.2270
27668W        W47948  18.269  17.031  11.805 -0.0073  0.3017  0.1238
27669W        W47949  16.807   0.944   1.064  0.0406  0.2897  0.0345
27670W        W47950   2.976   7.609  11.780  0.1149  0.3682  0.3580
27671W        W47951   6.254   5.638  12.373 -0.0762  0.2062  0.0227
27672W        W47952   4.248  16.625   3.667  0.0238  0.3167  0.3010
27673W        W47953  10.272  17.089  11.193 -0.4288  0.1418  0.0563
27674W        W47954  17.341   1.888   0.670 -0.1929 -0.3316 -0.1545
27675W        W47955   0.607   6.986   2.914  0.0424 -0.1145  0.0430
27676W        W47956  12.466  11.630  13.098  0.1181  0.0474 -0.2075
27677W        W47957  11.208   8.994   3.861  0.1312 -0.4337 -0.0461
27678W        W47958   5.231   7.625   2.281  0.0910 -0.1698 -0.1714
27679W        W47959  16.794  17.659   0.680 -0.0984 -0.1040 -0.2245
27680W        W47960   4.926   6.202   2.822  0.1185 -0.0209 -0.0170
27681W        W47961   4.898  18.721   3.629  0.1746 -0.0025  0.0538
27682W        W47962   9.592   9.647   1.409 -0.2588 -0.1251 -0.1139
27683W        W47963   7.832  16.219   4.264 -0.0042  0.0676 -0.1000
27684W        W47964   7.312   6.457   4.171 -0.0655 -0.0461 -0.1528
27685W        W47965   4.600   3.549  12.608  0.2431 -0.0532  0.0588
27686W        W47966   3.451   5.296  12.835 -0.2040  0.0810 -0.0698
27687W        W47967   0.360  11.494  11.527 -0.1156  0.0054 -0.0323
27688W        W47968   7.407  13.133   2.903 -0.2234 -0.1416  0.0375
27689W        W47969   4.481  14.565  10.250  0.1730  0.2473  0.1573
27690W        W47970   8.503   5.055   3.910 -0.0471 -0.1928 -0.2141
27691W        W47971  11.005   4.808  13.089 -0.1166 -0.0605 -0.0197
27692W        W47972   5.315   0.151   3.319 -0.2027  0.0005 -0.0661
27693W        W47973  10.057   9.785  13.148 -0.2399  0.0628 -0.2121
27694W        W47974  12.954   1.623  13.317 -0.0680 -0.0158  0.2493
27695W        W47975  12.055  17.069   1.535  0.2856 -0.0071 -0.0729
27696W        W47976  15.420   2.494   2.978 -0.4464 -0.0508  0.2261
27697W        W47977  14.504  19.037  13.400 -0.0708 -0.1656  0.1518
27698W        W47978  17.553  11.437   2.422  0.3843 -0.0108 -0.0158
27699W        W47979   4.401   9.570   5.182 -0.0725  0.1447  0.0469
27700W        W47980  12.011  18.440  10.506 -0.3079 -0.1214  0.1894
27701W        W47981  15.869   2.559   3.320 -0.2234 -0.0013 -0.0331
27702W        W47982   8.171  15.232  13.655 -0.1971  0.2005  0.0880
27703W        W47983  12.859   3.944   1.421 -0.1441 -0.1886 -0.2799
27704W        W47984  18.372  17.482  11.418  0.1662  0.0227 -0.1406
27705W        W47985  16.152   1.707  10.467 -0.2027 -0.1554  0.1729
27706W        W47986  18.136   5.250  13.915  0.2651 -0.2123  0.1764
27707W        W47987  16.514  11.608   2.831 -0.0181  0.1738  0.2815
27708W        W47988   7.306   6.796  10.455 -0.1083  0.0357 -0.3614
27709W        W47989   3.093   9.520   5.568 -0.0913 -0.0452  0.0533
27710W        W47990   3.313   3.632   2.462  0.1706 -0.1496 -0.0064
27711W        W47991  16.215   7.772  13.472  0.3460 -0.2311  0.0118
27712W        W47992   2.050   4.412   3.398 -0.1462  0.1537 -0.2567
27713W        W47993   9.303   4.142  10.900 -0.1300  0.0240 -0.1002
27714W        W47994  19.435  14.943  11.862 -0.1425 -0.0910  0.0368
27715W        W47995  12.911  17.085   1.216 -0.2346  0.1454  0.0784
27716W        W47996  10.976  12.950   0.797  0.0922  0.3017  0.1444
27717W        W47997   9.131   4.768   1.889  0.0080 -0.0106  0.5068
27718W        W47998  10.010   3.011  10.078  0.1106 -0.3240 -0.1541
27719W        W47999  11.938   8.663   4.136 -0.1072 -0.1617  0.1468
27720W        W48000  13.101  17.746   2.655  0.2540 -0.0530  0.2243
27721W        W48001  14.620   6.253   3.655  0.1071 -0.0375 -0.5309
27722W        W48002  13.467  19.211   1.210  0.0584 -0.4036 -0.0466
27723W        W48003  11.167   7.991  13.692 -0.2133  0.0340 -0.2228
27724W        W48004  16.640  17.068   1.659  0.3025 -0.2800  0.0751
27725W        W48005  17.915   4.426  12.112 -0.0851  0.3666 -0.4264
27726W        W48006  18.079   3.823   1.603  0.2982 -0.2747  0.2861
27727W        W48007   9.098   5.448  11.091 -0.2890  0.0838 -0.0429
27728W        W48008   9.722   2.090  12.872  0.0018  0.1816  0.2122
27729W        W48009  10.438  13.849  11.070 -0.0662  0.0336  0.0066
27730W        W48010  15.186  12.250   3.522  0.2864  0.0520 -0.1452
27731W        W48011   4.852   7.593  13.604  0.2486 -0.0845 -0.3066
27732W        W48012  13.062  13.975  10.823 -0.1221 -0.2187 -0.1848
27733W        W48013   5.743   8.993   1.164  0.2514  0.2951  0.0272
27734W        W48014   8.471   1.878   4.042  0.1735 -0.1405  0.1929
27735W        W48015  14.319   1.291   1.031 -0.3006  0.1192  0.1666
27736W        W48016  13.641  16.653   3.143 -0.0717  0.0999  0.2066
27737W        W48017   2.942   0.433  11.479 -0.1238  0.2222 -0.0236
27738W        W48018  17.981   3.178  10.641  0.0536 -0.4145  0.1667
27739W        W48019  18.116   2.262   3.598 -0.1004  0.1700  0.2925
27740W        W48020  13.617  19.391  11.756  0.0034  0.0790 -0.0473
27741W        W48021  15.569  13.791   3.494  0.1478  0.1167 -0.1426
27742W        W48022  14.283   1.968  13.426 -0.2055 -0.0967  0.3633
27743W        W48023   0.731   4.714   0.491  0.0769  0.0888 -0.1686
27744W        W48024  14.002  15.352  11.244 -0.0985  0.2106 -0.2367
27745W        W48025   9.291   1.375  11.496  0.0430 -0.0078 -0.2541
27746W        W48026   5.665   8.133  12.799 -0.2242  0.0588 -0.1737
27747W        W48027  19.287  16.890  11.949  0.1368  0.1912 -0.3255
27748W        W48028   1.390   7.180   3.940  0.2952 -0.1756  0.3349
27749W        W48029  13.550   5.489   9.239 -0.2026  0.0653 -0.4126
27750W        W48030   6.534  13.690   0.353  0.1146 -0.2421 -0.2022
27751W        W48031   0.900  13.923  12.406 -0.0962  0.0154 -0.1180
27752W        W48032  16.482  14.457   4.585  0.0851 -0.1352  0.2166
27753W        W48033   4.393   0.912  10.927  0.4192  0.1890 -0.2755
27754W        W48034  14.487  14.448   0.422  0.1450 -0.0298  0.3659
27755W        W48035  13.135   5.607   3.439  0.1144 -0.3904  0.0250
27756W        W48036  17.933  11.734   0.096 -0.2099 -0.1079  0.1587
27757W        W48037   6.840  12.473   1.852 -0.1202  0.0376 -0.1995
27758W        W48038   8.618  16.767   1.942 -0.1647 -0.1381 -0.3722
27759W        W48039  17.381   0.201   3.778  0.2858  0.1253  0.0477
27760W        W48040  14.057  12.913   2.115  0.0887 -0.0322  0.4065
27761W        W48041  11.285  17.818   0.845 -0.0407  0.1135  0.0696
27762W        W48042   4.603   5.836  10.879  0.1238  0.1227 -0.2041
27763W        W48043  14.491   1.741   1.091 -0.0118  0.1431  0.0943
27764W        W48044  10.063   6.746  10.113 -0.0443  0.0489  0.0425
27765W        W48045   7.063   0.353  10.710  0.0285 -0.1518 -0.2381
27766W        W48046   9.510  15.007  10.433 -0.0662 -0.0716  0.3185
27767W        W48047   5.241  11.619   2.755  0.2639 -0.0027  0.1083
27768W        W48048   9.969   3.665   2.044  0.1426 -0.3356  0.1135
27769W        W48049   3.007  16.130   2.486 -0.1119 -0.2647  0.0346
27770W        W48050  13.879   0.915  10.224  0.1765 -0.2101  0.0190
27771W        W48051  16.189  19.532  12.762 -0.0115  0.1260  0.0933
27772W        W48052  10.158   2.653   0.455  0.0808 -0.3355  0.4749
27773W        W48053   5.023   8.324   2.119  0.0462  0.1186 -0.1910
27774W        W48054  15.323  17.623  12.359  0.0185  0.3383 -0.1497
27775W        W48055  18.342  14.983  10.464 -0.2672 -0.0142 -0.3293
27776W        W48056  17.241   1.046  13.952  0.0572  0.1865  0.3908
27777W        W48057  11.368  14.415   4.041  0.0909  0.1300  0.2337
27778W        W48058  14.894   8.897  10.402  0.2688 -0.2736  0.1503
27779W        W48059   2.054   5.917  12.214  0.1137  0.3547  0.2310
27780W        W48060  14.718   0.556  13.417 -0.1087 -0.2015  0.2808
27781W        W48061   6.738  13.407   1.157 -0.1932 -0.1002  0.1165
27782W        W48062  10.095  18.147   1.195  0.0722  0.0305 -0.1976
27783W        W48063   9.475  17.814   9.468 -0.0519  0.1384 -0.1419
27784W        W48064   9.869  15.147  13.386 -0.2087 -0.0083  0.0335
27785W        W48065  16.276   7.122   0.375 -0.1439 -0.1868  0.2684
27786W        W48066   6.056  16.187  13.321  0.3625 -0.3472 -0.4394
27787W        W48067   7.501   1.056   3.213 -0.1648 -0.1174  0.1796
27788W        W48068   3.821   7.798  14.089 -0.1438  0.0999  0.0962
27789W        W48069   3.977  18.016  11.555  0.4957  0.0194 -0.1802
27790W        W48070   2.756   5.899   4.303  0.0406  0.1877  0.0600
27791W        W48071  16.138  17.937  11.055  0.0986  0.0314  0.2372
27792W        W48072   0.913   1.995  12.264  0.2298  0.2832  0.0188
27793W        W48073   5.371   6.433   0.131 -0.4509 -0.2273 -0.1169
27794W        W48074   0.154  16.270  11.489  0.2069 -0.1979  0.1442
27795W        W48075  17.514  18.769  11.361  0.2723 -0.1109  0.2997
27796W        W48076  17.596  15.520   1.710  0.0657 -0.0277  0.3312
27797W        W48077   5.144   8.643   3.727 -0.2006  0.1296  0.1409
27798W        W48078   1.437   8.154   4.143 -0.1131 -0.0698  0.3478
27799W        W48079  12.881   0.324  13.001  0.1312  0.1727 -0.1373
27800W        W48080   5.215  14.345   3.095 -0.0325  0.1192  0.0797
27801W        W48081  10.365   3.373  12.905  0.0903 -0.2098  0.0127
27802W        W48082   0.918  10.087   2.529 -0.0061 -0.0006 -0.0004
27803W        W48083  18.240   0.855   0.317  0.0429  0.5841 -0.2089
27804W        W48084  12.352  15.901   2.148 -0.2241 -0.0831 -0.3595
27805W        W48085  10.653  14.313   3.929 -0.0755 -0.2178 -0.2945
27806W        W48086   1.580  16.425  11.721 -0.0344  0.2725  0.0194
27807W        W48087  15.467  17.343   9.987 -0.1625  0.2178 -0.1089
27808W        W48088   7.112   2.171   0.602  0.1317  0.0019 -0.0790
27809W        W48089  19.634  18.293   1.635  0.3031  0.0367  0.1264
27810W        W48090   4.650   0.301  11.211  0.2303  0.0780  0.2004
27811W        W48091   6.970  14.425   1.792  0.2086  0.2997 -0.3115
27812W        W48092   3.603   4.166   2.165 -0.0562 -0.1014 -0.0384
27813W        W48093  11.676   6.773   9.880 -0.2001  0.2859 -0.0760
27814W        W48094  14.125  10.352   1.046 -0.1695  0.3236 -0.1844
27815W        W48095   8.167  10.776  11.573  0.2232  0.1477  0.0346
27816W        W48096   2.566   6.369   0.692 -0.2180 -0.3046  0.2056
27817W        W48097   9.811   9.354   3.853 -0.1542 -0.2788  0.1073
27818W        W48098  12.541   1.949  10.529 -0.1890  0.1262 -0.1243
27819W        W48099   8.960   1.789  10.755 -0.2317 -0.1663 -0.0793
27820W        W48100  14.252  12.002   3.069 -0.0382  0.2511 -0.3003
27821W        W48101   6.295   0.855   1.580  0.1694 -0.1681 -0.0562
27822W        W48102   0.247  15.963  10.995  0.1817  0.0940  0.0692
27823W        W48103   1.546  11.347   0.742 -0.1564 -0.0545  0.2690
27824W        W48104  14.821   8.451  11.673 -0.0883  0.0993 -0.1059
27825W        W48105   0.439   7.185   1.713 -0.0652  0.0891  0.3243
27826W        W48106  12.582  14.300  11.129 -0.1530 -0.2110  0.1429
27827W        W48107   6.154  10.573   1.349  0.1097 -0.1021 -0.0329
27828W        W48108  13.140   8.539   0.015  0.2747  0.5165 -0.0069
27829W        W48109   1.421  10.139   2.547  0.0896  0.0373  0.1093
27830W        W48110   6.185  12.490  11.985 -0.1901 -0.4499  0.2140
27831W        W48111  13.341  15.303   0.618  0.4915  0.0975  0.1522
27832W        W48112  12.935   7.388   1.341  0.0094 -0.0788  0.3863
27833W        W48113  18.731   2.166   0.331 -0.2213  0.1702 -0.1962
27834W        W48114   2.331  13.329   1.116 -0.5504 -0.0798 -0.1784
27835W        W48115  13.444  16.918  13.735 -0.0678 -0.0628  0.0716
27836W        W48116   0.127  18.432  12.244  0.3101  0.1446 -0.3956
27837W        W48117   7.634   4.890  11.254 -0.0007 -0.1640 -0.3853
27838W        W48118  16.849  11.466  12.342 -0.3323 -0.0454 -0.0223
27839W        W48119   0.780   7.622  11.883  0.2691 -0.0043 -0.0984
27840W        W48120  18.248   9.673   0.628  0.0059  0.0984 -0.0415
27841W        W48121  10.381  14.066   2.882  0.2156  0.1342 -0.2392
27842W        W48122  16.927   1.707   8.958  0.1016 -0.0599  0.1500
27843W        W48123  16.811   7.682  13.100  0.1128  0.2943  0.0102
27844W        W48124   9.764   0.178  13.214  0.0022 -0.0779 -0.2258
27845W        W48125   8.570  18.532  13.346  0.5220  0.0200 -0.3616
27846W        W48126  17.245  11.804  10.429  0.0078  0.1967  0.0652
27847W        W48127   2.160   3.276   1.336 -0.0054 -0.0826  0.2909
27848W        W48128   5.493   5.321  13.569  0.0712 -0.3494  0.1331
27849W        W48129  19.065   6.967  13.269  0.5542  0.0451  0.1797
27850W        W48130   8.105   5.182   1.856 -0.0186  0.1622  0.1629
27851W        W48131   7.056   6.177  11.811 -0.2349  0.1323  0.0534
27852W        W48132   4.356  14.389   2.762 -0.2851  0.2348  0.2744
27853W        W48133   1.094   6.013  13.846 -0.3011  0.2081  0.3053
27854W        W48134   7.067   1.865  12.995  0.2458 -0.4159  0.1319
27855W        W48135  17.735   8.500  12.104  0.0948  0.1809  0.0967
27856W        W48136   8.071   6.172  12.079 -0.3719  0.1703 -0.1780
27857W        W48137   0.624   2.793  12.369  0.0525  0.2497  0.0602
27858W        W48138   3.656  10.172   1.519  0.0404 -0.0120  0.1373
27859W        W48139   0.929  16.793   2.574  0.2345  0.2893 -0.1624
27860W        W48140   5.304   8.352  14.095 -0.1872 -0.2099  0.0678
27861W        W48141  14.711  12.747  12.604 -0.1620  0.2720  0.2385
27862W        W48142   8.454   5.280  11.346 -0.0928 -0.1277 -0.0166
27863W        W48143  19.381  15.758  12.227  0.0598 -0.3016 -0.3859
27864W        W48144  12.040   3.025   3.356  0.0485 -0.0616  0.1035
27865W        W48145  13.205   7.077   1.575  0.3747  0.3447  0.2238
27866W        W48146  12.481   7.397   3.254  0.0685 -0.2456  0.0101
27867W        W48147   0.992   4.025  11.708  0.0895  0.1057 -0.1664
27868W        W48148  16.108  12.353  11.367 -0.0764 -0.2052 -0.0906
27869W        W48149  13.081  14.152  13.928  0.0273  0.0168 -0.0919
27870W        W48150  10.688   2.543  12.658  0.1995 -0.2027  0.2196
27871W        W48151  14.954   7.937  13.375 -0.2224 -0.1367  0.1303
27872W        W48152  11.670   0.679   0.450 -0.2056 -0.1047 -0.0828
27873W        W48153  11.946   0.858  11.200  0.0533 -0.0067 -0.0187
27874W        W48154   3.399  14.395   3.115  0.2129 -0.1065  0.1677
27875W        W48155   8.869  10.895   3.345 -0.3826  0.0552  0.1271
27876W        W48156  12.740  10.446   2.519 -0.0946  0.0374  0.0930
27877W        W48157  14.128  15.660   0.992  0.2456  0.0932  0.1342
27878W        W48158  18.887  17.417  10.868  0.0336  0.0611 -0.0343
27879W        W48159   3.048  17.166   0.632  0.0577  0.2017  0.0691
27880W        W48160   7.054  19.620   0.447  0.1553 -0.1127 -0.0218
27881W        W48161  14.367   8.864  10.457  0.1381 -0.0666  0.1820
27882W        W48162  12.144  13.200   1.522  0.2385  0.4334 -0.2264
27883W        W48163  12.148   3.621   9.409 -0.1088 -0.1017  0.0390
27884W        W48164  10.585   4.717   2.058 -0.2394 -0.2294 -0.0665
27885W        W48165   7.611  11.153   2.660  0.2740 -0.3515  0.2569
27886W        W48166   5.899  12.721   0.619 -0.3689  0.0680  0.1985
27887W        W48167  14.893  17.894  12.355  0.1719  0.0108  0.0103
27888W        W48168  13.333   7.975  13.469 -0.0045 -0.0773  0.2289
27889W        W48169   8.775   2.067  12.125 -0.0550  0.3064 -0.0038
27890W        W48170  14.177   3.779  13.339 -0.2703  0.3528 -0.0859
27891W        W48171   2.253  11.585   4.024 -0.0031  0.1663  0.1226
27892W        W48172  14.058  14.232  10.663  0.1748 -0.1078  0.2215
27893W        W48173  10.294  14.317  11.270  0.4042 -0.3850  0.0143
27894W        W48174  11.632  17.748   1.190 -0.2814 -0.0649 -0.3191
27895W        W48175   8.125  15.259   0.485  0.0782 -0.0660  0.1746
27896W        W48176  15.760   4.494  12.115  0.1157  0.1630  0.2354
27897W        W48177   8.139  18.371   2.899  0.1677  0.0464  0.0118
27898W        W48178   0.411   7.959   3.093 -0.1140 -0.4356  0.0197
27899W        W48179   6.435   7.043  13.558 -0.0965 -0.1079 -0.5104
27900W        W48180  16.900  10.649   0.126 -0.0419  0.4125  0.1318
27901W        W48181  16.967   3.567  10.075  0.1756 -0.3477 -0.3632
27902W        W48182   8.175   2.869  13.900  0.0438  0.3144 -0.0690
27903W        W48183   7.195   8.991   2.417  0.2867  0.2471 -0.1118
27904W        W48184  19.508   4.919  12.741 -0.0083 -0.3424  0.2203
27905W        W48185   5.878   2.208  14.026  0.0527  0.2619 -0.2423
27906W        W48186   9.041   8.184   2.953  0.0477 -0.1723 -0.1335
27907W        W48187   5.572  18.067  13.010 -0.4488 -0.0146  0.2552
27908W        W48188  13.041  11.534  10.088 -0.0208 -0.2227 -0.0807
27909W        W48189   2.359   5.881  10.808 -0.3039 -0.2205 -0.2035
27910W        W48190   5.281  13.388  13.826  0.1243  0.1837 -0.0604
27911W        W48191  17.608   8.652   2.541 -0.0178  0.0606  0.3344
27912W        W48192  10.845   0.266   3.120 -0.0927  0.1076 -0.0981
27913W        W48193   8.106  13.695   2.910 -0.3259  0.3878 -0.1390
27914W        W48194   3.171  18.431   2.803  0.1611  0.2207  0.1518
27915W        W48195  18.689   6.786   0.236 -0.1415 -0.1071 -0.2761
27916W        W48196  19.032  19.682  13.232 -0.1887 -0.1355 -0.3291
27917W        W48197   8.663   8.120  11.833  0.0171 -0.0921  0.0602
27918W        W48198  11.779  16.629  12.282  0.0994  0.4086 -0.0499
27919W        W48199  10.480   0.170  11.495  0.0409 -0.0223  0.1379
27920W        W48200  18.476   8.757  13.194 -0.3368 -0.2477  0.0451
27921W        W48201   6.446  12.989  10.833  0.1025 -0.0928  0.2379
27922W        W48202  13.592  13.176  11.313 -0.2838  0.1218 -0.1510
27923W        W48203  17.602  18.186   2.393  0.0799 -0.0965 -0.1424
27924W        W48204  17.141  13.557  10.487 -0.0711 -0.1374  0.0757
27925W        W48205   8.352  11.824  11.543 -0.0438 -0.0772  0.1444
27926W        W48206   0.229  16.009   4.043  0.0026 -0.0357 -0.1111
27927W        W48207  18.951  12.360  12.886  0.2450  0.1295  0.1882
27928W        W48208   0.069   1.260   1.152 -0.0198  0.0891  0.0019
27929W        W48209  15.124  15.518  14.102  0.1569 -0.1772  0.0954
27930W        W48210   5.270  17.315   2.186 -0.2111  0.0943  0.1243
27931W        W48211   1.956  12.907  12.896  0.0241 -0.0735 -0.2063
27932W        W48212  16.736  10.078   4.865  0.1876  0.3936  0.3734
27933W        W48213   4.292   5.516  12.515  0.0478  0.1262 -0.0526
27934W        W48214  19.304  10.029  13.352 -0.0935  0.0275 -0.0474
27935W        W48215  19.007   0.513  10.406  0.1866  0.0241 -0.2188
27936W        W48216   7.671   2.576  11.716 -0.0769 -0.0279 -0.0730
27937W        W48217   5.575  10.566   3.481 -0.3296 -0.1665 -0.1823
27938W        W48218   5.606  18.192  13.521 -0.1099  0.5103  0.3610
27939W        W48219  17.146  14.525  12.669 -0.1636  0.0052 -0.0508
27940W        W48220   7.465   5.701  14.002  0.0367  0.1816  0.2657
27941W        W48221   9.741  13.926  11.743 -0.0515 -0.1431  0.0459
27942W        W48222   2.306  12.855   2.581 -0.1846 -0.1384  0.1259
27943W        W48223  14.947  10.343  10.446 -0.0077  0.0441  0.2895
27944W        W48224   8.891  12.611   4.074  0.0639  0.2012 -0.0685
27945W        W48225   9.475   3.740   2.002 -0.2495  0.2872 -0.1052
27946W        W48226  19.368   8.490   1.556  0.1753  0.0652 -0.2269
27947W        W48227  18.802  14.424  11.646  0.1142  0.2928 -0.0113
27948W        W48228   0.883  17.418   4.342  0.2826  0.1647 -0.3169
27949W        W48229   1.290   0.758  12.255 -0.0951  0.2392  0.0686
27950W        W48230   1.086   8.650   1.445 -0.3997  0.0909  0.1740
27951W        W48231  17.404   5.491  11.497  0.1661  0.0465  0.1844
27952W        W48232  16.389  17.946  13.887  0.2076 -0.2652  0.1660
27953W        W48233  18.911  13.874  12.425 -0.0749  0.2256  0.2272
27954W        W48234  18.160   3.395  13.096  0.0257  0.1045 -0.1816
27955W        W48235  14.249  18.435  12.429 -0.2597  0.1743 -0.2253
27956W        W48236   0.512  15.885  10.524 -0.2616 -0.3012  0.2926
27957W        W48237   8.631   8.239  13.007 -0.0374  0.2319 -0.1734
27958W        W48238  18.012   0.487   2.108 -0.2524  0.0312  0.0382
27959W        W48239   5.271  18.862  11.709 -0.1995  0.1034  0.0037
27960W        W48240   4.617   9.897  14.034  0.0119  0.1323  0.2183
27961W        W48241  15.307   0.050   3.513  0.2822 -0.2294 -0.0556
27962W        W48242  11.790   1.264  10.982 -0.2072  0.0929 -0.1181
27963W        W48243  14.806  17.308  13.049  0.0003 -0.0028  0.0907
27964W        W48244   7.493   3.439  13.813  0.1531 -0.1083 -0.1259
27965W        W48245  10.035  16.974  11.629  0.3718 -0.0713 -0.1430
27966W        W48246   1.517   9.112  12.490  0.2337  0.0805 -0.1789
27967W        W48247  12.967   7.763  13.074  0.0445  0.4634 -0.0395
27968W        W48248  14.972   0.960   3.145  0.1125  0.3162  0.1061
27969W        W48249   6.420   3.059  10.119  0.1028 -0.0787 -0.3256
27970W        W48250   2.166   3.312  11.816 -0.1250  0.2457  0.0757
27971W        W48251  15.274  19.656  11.268  0.2095 -0.0211 -0.0859
27972W        W48252  19.558  13.277   0.895 -0.2379 -0.0778 -0.0397
27973W        W48253  11.015   8.612   0.768  0.0515  0.2319  0.2130
27974W        W48254  10.136   4.933   1.915  0.0170  0.1885  0.2070
27975W        W48255  10.509  14.679   1.322 -0.2052  0.2026 -0.2946
27976W        W48256  16.110  11.083  11.308 -0.0703 -0.1646  0.1790
27977W        W48257   7.885   3.810   1.245 -0.1555 -0.1914  0.1922
27978W        W48258  16.634  14.581  12.773 -0.1010  0.0625 -0.2070
27979W        W48259  16.019  15.599  13.639 -0.2119  0.1310 -0.2090
27980W        W48260  11.956  19.286  10.584 -0.1855 -0.1760 -0.0276
27981W        W48261   2.983  12.559  13.808  0.0094  0.0598 -0.1029
27982W        W48262  14.865   5.778  11.953 -0.0540  0.1152 -0.2480
27983W        W48263  19.636  14.315   4.450 -0.0587  0.1529  0.1054
27984W        W48264   1.176   6.539  10.751 -0.0469 -0.2586 -0.1899
27985W        W48265   4.140   1.317  12.878  0.0632 -0.2784  0.1186
27986W        W48266  14.534  16.404   9.504  0.1498 -0.0575  0.1093
27987W        W48267  17.520   9.838  13.258  0.2528  0.1815 -0.1577
27988W        W48268   5.599   5.918   2.467  0.1930 -0.1698  0.0172
27989W        W48269  15.425   5.157   2.954  0.2550 -0.3776 -0.0365
27990W        W48270   1.257   2.031  11.884 -0.1717  0.0767 -0.0280
27991W        W48271  17.592   7.126  13.600  0.1724 -0.1246  0.0879
27992W        W48272   9.595   0.439  11.619 -0.0909  0.1409 -0.1098
27993W        W48273  13.080   6.101   2.526 -0.1879  0.2228 -0.0648
27994W        W48274   0.614  19.555   2.878 -0.2857  0.1106 -0.0381
27995W        W48275   4.972  18.475   0.571  0.1286  0.0933  0.0295
27996W        W48276   0.831  12.213  10.568 -0.1155  0.0290 -0.3196
27997W        W48277   0.233  12.948  12.462  0.1304 -0.0039 -0.0415
27998W        W48278  12.931  16.131   0.521  0.2364  0.3427  0.0804
27999W        W48279  13.850  17.823  13.290 -0.4115 -0.0795  0.0057
28000W        W48280  10.410   3.847  12.014  0.0634 -0.1686  0.3110
28001W        W48281  16.144  11.213   2.979 -0.0227 -0.0608 -0.2002
28002W        W48282   5.268  13.917   0.719  0.0435  0.3407  0.1235
28003W        W48283   6.922   2.249  12.655  0.2866  0.2751  0.2228
28004W        W48284  19.436  10.482  13.294 -0.1170  0.1518  0.1456
28005W        W48285   4.874   9.303  12.126 -0.1278  0.2830 -0.0404
28006W        W48286   8.941  10.770   1.266 -0.1066  0.1353  0.1258
28007W        W48287   7.616  14.857   0.277  0.0667 -0.2176  0.3679
28008W        W48288  16.489   8.860   1.471 -0.2430 -0.4885  0.2354
28009W        W48289   9.822  13.712   3.081 -0.0338  0.2233 -0.1368
28010W        W48290   3.723   2.089   2.828 -0.1719 -0.5030  0.1913
28011W        W48291  10.734   0.690  12.225  0.0906 -0.2808 -0.2170
28012W        W48292   6.647  12.455   3.840  0.1285  0.2481 -0.4933
28013W        W48293   9.824   8.118  12.067 -0.1327  0.2345  0.3504
28014W        W48294  15.590   1.760  13.998  0.3126 -0.1557  0.0407
28015W        W48295   9.403  15.354   0.202  0.0980 -0.0641  0.2006
28016W        W48296   5.393   5.882  12.797 -0.0211  0.3178  0.0622
28017W        W48297   0.966   1.316  13.452 -0.1606  0.2269  0.2415
28018W        W48298  13.863  14.211  11.697  0.0694  0.0608 -0.3196
28019W        W48299   2.158  15.830   3.397  0.0013  0.1719  0.0654
28020W        W48300   0.850  12.475   3.273 -0.1188 -0.0182 -0.2342
28021W        W48301   5.589   7.257   2.610 -0.1023 -0.2613 -0.1017
28022W        W48302  19.075   6.806  13.964  0.2043  0.0772 -0.0969
28023W        W48303   6.021  16.065   0.103  0.0684  0.0524  0.3541
28024W        W48304   8.899  13.914   4.966 -0.2562 -0.3358 -0.0514
28025W        W48305   4.823  14.876  11.049  0.0980 -0.4001 -0.2202
28026W        W48306   9.486   0.956   3.132 -0.0195 -0.0416 -0.2115
28027W        W48307   9.598   3.204  11.961 -0.1745  0.0993 -0.0834
28028W        W48308   7.256   3.804  12.110 -0.1336  0.2037  0.2111
28029W        W48309   6.559  15.995   2.397  0.0441 -0.1099 -0.1883
28030W        W48310  15.362  18.823   2.430 -0.3564  0.4467 -0.2233
28031W        W48311   9.277  18.891   3.584  0.0826  0.0858 -0.0880
28032W        W48312   7.115  17.857  10.463  0.0297 -0.0064 -0.0630
28033W        W48313  17.783  14.929   1.034 -0.0871  0.1206 -0.0935
28034W        W48314   1.712   6.448  10.907  0.1272 -0.1902  0.0297
28035W        W48315   5.426   5.454  13.062  0.3161 -0.1004  0.2698
28036W        W48316  15.574  16.421   2.189 -0.0957 -0.4490  0.2800
28037W        W48317   4.274   9.756   0.876  0.3026 -0.1363 -0.0657
28038W        W48318   5.159   2.572   1.680 -0.3822  0.1987  0.0361
28039W        W48319   6.294  16.395   2.001 -0.0390 -0.0402  0.3096
28040W        W48320   3.234   4.158   4.004  0.0500 -0.0317 -0.1620
28041W        W48321   7.515   7.696  10.850  0.4897  0.2772  0.0934
28042W        W48322  16.802   6.071   3.598 -0.1561  0.4943 -0.1258
28043W        W48323  16.493  14.744  13.438  0.3837  0.0727 -0.2197
28044ION     NA48324  12.004   7.971   4.618  0.1849 -0.2628  0.0690
28045ION     NA48325  17.137  11.694   4.627  0.0424 -0.0509  0.0002
28046ION     NA48326   7.459  13.103  12.601  0.2330  0.0367  0.1905
28047ION     NA48327  13.881   8.707   9.269  0.1202 -0.2726 -0.1517
28048ION     NA48328  13.218   9.899  10.924 -0.2204 -0.0057 -0.1871
28049ION     NA48329  15.106   5.324   9.594  0.1767  0.0081 -0.0205
28050ION     NA48330   5.251  12.239  12.422 -0.0388 -0.0263  0.3853
28051ION     NA48331   3.245   0.257   4.195  0.1165 -0.1666  0.0970
28052ION     NA48332   7.545  13.522   0.773 -0.1962  0.3588  0.2040
28053ION     NA48333  12.437   1.479   4.374  0.2309 -0.0019 -0.1619
28054ION     NA48334  11.713   6.026   4.673 -0.1207  0.0786  0.1750
28055ION     NA48335   3.433  18.159   2.406 -0.1573  0.0442 -0.4231
28056ION     NA48336   5.110  19.724   9.183  0.0971  0.0001 -0.0935
28057ION     NA48337  17.571   4.929   9.698 -0.3273 -0.0802  0.4418
28058ION     NA48338  17.357   6.015   4.785 -0.1301 -0.4837 -0.0040
28059ION     NA48339  16.079  18.238   4.241  0.2950  0.1409  0.1161
28060ION     NA48340   7.743   1.727   9.315  0.0563  0.0921 -0.1986
28061ION     NA48341   3.042   7.452   5.084  0.1405  0.2219 -0.0321
28062ION     NA48342   7.659  10.421  13.174 -0.1738  0.2265 -0.0324
28063ION     NA48343   8.788   3.091   9.456  0.2991 -0.1134 -0.0381
28064ION     NA48344  13.895  14.122   2.986 -0.0899  0.1223  0.0059
28065ION     NA48345   6.165  16.977   9.550  0.2607 -0.1158  0.0645
28066ION     NA48346  15.783  10.683   4.452 -0.0138  0.1138 -0.0573
28067ION     NA48347   8.666  14.782   5.020  0.2926 -0.0871 -0.2270
28068ION     NA48348  15.436  18.439   1.444  0.1550 -0.0123  0.0830
28069ION     NA48349  13.242   6.374   4.773 -0.1384  0.0636  0.1392
28070ION     NA48350   7.134  12.224   9.774  0.0994 -0.1182  0.0155
28071ION     NA48351  12.029   7.808   9.625  0.0325 -0.2813 -0.1252
28072ION     NA48352  15.690  15.283   9.301  0.0398 -0.2907  0.2023
28073ION     NA48353   7.477  18.800   9.512  0.0227 -0.1507 -0.1126
28074ION     NA48354  19.006  10.001  11.999 -0.2355  0.2116 -0.1101
28075ION     NA48355   6.991  18.878   0.867 -0.0298  0.2413 -0.0475
28076ION     NA48356   2.482  11.617   9.737 -0.2372 -0.2190  0.2059
28077ION     NA48357   4.194   1.425   4.157 -0.2100  0.1757  0.3081
28078ION     NA48358  17.066  16.972   9.080 -0.0334  0.0076 -0.1973
28079ION     NA48359   4.493   4.946   1.501 -0.1960  0.0770 -0.1532
28080ION     NA48360  16.799   9.709   9.377 -0.1693 -0.0521 -0.2383
28081ION     NA48361   5.452  16.163   3.608  0.0742 -0.0074  0.0996
28082ION     NA48362   8.668   7.342   9.633 -0.0303 -0.4216  0.0327
28083ION     NA48363   4.202  19.047   4.408 -0.0547  0.1302 -0.1409
28084ION     NA48364  13.129  15.291   4.558  0.0121  0.2472 -0.0937
28085ION     NA48365  17.779  16.343   4.791  0.1901  0.0712  0.4014
28086ION     NA48366  12.759  11.271   9.526  0.2460 -0.0977  0.1802
28087ION     NA48367  18.126  12.909  11.084  0.1927  0.1185 -0.1410
28088ION     NA48368  16.542   5.076   9.410 -0.0163  0.1237 -0.1478
28089ION     NA48369   3.428  15.150   4.767  0.2030 -0.0300  0.1224
28090ION     NA48370  15.165   2.502   9.456 -0.1697  0.0463 -0.0227
28091ION     NA48371  18.103  12.934   9.347 -0.0031 -0.3689 -0.2620
28092ION     NA48372  13.669   8.803   4.566 -0.1612  0.1691  0.3909
28093ION     NA48373   8.990  19.488   9.874 -0.1312  0.1734  0.0308
28094ION     NA48374  12.918  17.892   9.501 -0.0187  0.0035  0.1273
28095ION     NA48375  12.499   3.340   9.263 -0.1022  0.1419  0.3879
28096ION     NA48376  12.621   9.667   4.538  0.0000 -0.0293 -0.1942
28097ION     NA48377   0.557  11.126   4.922 -0.1121  0.5439 -0.2630
28098ION     NA48378  18.503   3.466   9.538  0.2768 -0.2157  0.0587
28099ION     NA48379  10.708   6.061   4.664  0.0949 -0.0864  0.0146
28100ION     NA48380  13.939   4.927   4.475 -0.0579 -0.0071 -0.0297
28101ION     NA48381   1.255   3.037   9.712 -0.0960  0.1992  0.3690
28102ION     NA48382   4.209  13.967   4.964 -0.0995 -0.1874  0.0333
28103ION     NA48383  11.910   6.080  13.013  0.1121  0.0836 -0.4029
28104ION     NA48384   1.140  15.267   4.804 -0.0289  0.2903  0.1662
28105ION     NA48385  18.784  14.163   4.891  0.1630  0.3856  0.0664
28106ION     NA48386  17.075  15.490   3.966 -0.0374  0.2383 -0.0614
28107ION     NA48387  13.306   0.799   8.971 -0.0687 -0.0050 -0.0812
28108ION     NA48388   5.684  14.523   4.461  0.2472 -0.0502  0.0693
28109ION     NA48389   1.372   7.486   4.333 -0.2430 -0.0694  0.1177
28110ION     NA48390  11.114   7.267   4.797  0.2917 -0.3228 -0.3126
28111ION     NA48391   9.753  19.669   9.603  0.2282 -0.1015  0.2608
28112ION     NA48392  18.056   6.573   9.834  0.1632  0.2645 -0.1450
28113ION     NA48393  10.607   7.943   4.448  0.1615  0.2120  0.1115
28114ION     NA48394   2.204  10.322   9.712  0.1187 -0.1504 -0.0625
28115ION     NA48395   8.267   7.350   2.724  0.0877  0.4844 -0.1648
28116ION     NA48396   2.751  11.177  12.281  0.2547 -0.2628  0.3127
28117ION     NA48397   5.745  10.619   1.695  0.1167  0.3099  0.1584
28118ION     NA48398  11.316   3.844   9.236 -0.0209  0.2458 -0.0055
28119ION     NA48399  17.593  15.524   4.586 -0.0578 -0.1607 -0.2417
28120ION     NA48400  14.728   4.391   9.226 -0.1654 -0.1003 -0.1190
28121ION     NA48401  13.065   9.396   9.369 -0.1404 -0.0067  0.0040
28122ION     NA48402   4.812   2.531   9.110 -0.1882 -0.2472 -0.0351
28123ION     NA48403   3.394   6.659   9.814  0.1561  0.0093  0.2131
28124ION     NA48404   4.342  14.437   0.892  0.2032 -0.0490 -0.2145
28125ION     NA48405  16.180   1.187   2.969  0.0047  0.7316 -0.0835
28126ION     NA48406   9.162   9.791  10.407  0.1977 -0.1244 -0.0153
28127ION     NA48407  13.811   0.003   9.016  0.0529  0.0228  0.1441
28128ION     NA48408  17.221   4.947   4.546 -0.1921 -0.0848  0.4903
28129ION     NA48409   2.076   1.079   9.323 -0.2137 -0.2742  0.3536
28130ION     NA48410   0.900  18.681   4.635  0.0341 -0.1173  0.1537
28131ION     NA48411   3.027   4.086   9.679  0.1506 -0.4096  0.1324
28132ION     NA48412  16.408  11.305   4.385 -0.3072 -0.0469 -0.0638
28133ION     NA48413  12.414   6.530   4.657 -0.0710 -0.3825  0.0577
28134ION     NA48414   7.973   4.402  11.380 -0.0064 -0.0801 -0.3889
28135ION     NA48415   3.482   9.122   9.990 -0.2905 -0.0997  0.0975
28136ION     NA48416  15.782  18.089   3.063 -0.4766  0.1788 -0.1382
28137ION     NA48417   5.659   8.823   4.876 -0.0779  0.2306 -0.0859
28138ION     NA48418  10.469   8.864   4.595 -0.0426  0.1988 -0.2137
28139ION     NA48419   4.430   4.924   9.958 -0.2537  0.0325  0.0861
28140ION     NA48420  13.646   1.425   8.934 -0.1450 -0.0572 -0.0405
28141ION     NA48421   7.344  17.944  12.528 -0.1236  0.0945 -0.2220
28142ION     NA48422  10.871   2.234   4.118  0.0156 -0.0088  0.0525
28143ION     NA48423  16.545  14.186   9.487 -0.0888  0.0279 -0.0251
28144ION     NA48424   1.348  18.667   9.471 -0.1767  0.1669  0.0709
28145ION     NA48425   2.551  16.725   4.474  0.3244  0.2698  0.1308
28146ION     NA48426   1.219  16.096  12.069  0.0807 -0.3070 -0.1988
28147ION     NA48427   5.771   2.496   4.355  0.1073 -0.0846  0.0109
28148ION     NA48428  12.149   8.820  12.101  0.2046  0.1229  0.1296
28149ION     NA48429   7.184  11.721   9.611 -0.1771 -0.0184  0.3270
28150ION     NA48430   4.192  17.930   9.590 -0.0001 -0.1510  0.6900
28151ION     NA48431  13.211  17.256   4.433  0.0333  0.2859 -0.0802
28152ION     NA48432   9.255   5.962   4.783  0.0721 -0.2846 -0.1360
28153ION     NA48433  17.758  15.321  13.589 -0.0338  0.1223  0.0913
28154ION     NA48434   8.469  18.658   9.585  0.3404  0.0756 -0.0489
28155ION     NA48435   8.186   3.557   4.410  0.2724  0.0351  0.0231
28156ION     NA48436   4.714   3.425   2.417 -0.1075  0.0986 -0.2552
28157ION     NA48437   7.171  12.800   5.043  0.1167  0.2459  0.3717
28158ION     NA48438   0.087   6.543   9.934 -0.1118  0.0786 -0.0377
28159ION     NA48439   5.331   9.479   9.813 -0.3751  0.0839  0.3239
28160ION     NA48440   4.992  11.061   9.637 -0.5021 -0.0021 -0.0674
28161ION     NA48441   3.019   8.478   5.185 -0.2256 -0.1801 -0.2602
28162ION     NA48442   2.352  18.699   4.618  0.1792 -0.0578  0.0233
28163ION     NA48443   3.067   0.952   2.263  0.0268  0.0882 -0.1997
28164ION     NA48444   2.165   3.484   9.574  0.2652 -0.2780  0.0053
28165ION     NA48445   0.217   7.150   9.923  0.0486 -0.4970 -0.3301
28166ION     NA48446   2.324   6.318   5.237 -0.0621  0.1712  0.1607
28167ION     NA48447  17.262  17.648   1.374  0.3394  0.0654 -0.0183
28168ION     NA48448   1.510  14.515   9.789  0.1471  0.1320 -0.2440
28169ION     NA48449  16.307  10.113   9.902  0.3811  0.2791  0.1272
28170ION     NA48450   0.892  15.879   4.544  0.0383  0.0823  0.0864
28171ION     NA48451  12.027   2.491   9.117  0.1730  0.0436  0.1121
28172ION     NA48452  10.790  19.642   9.599  0.1609 -0.0764 -0.0528
28173ION     NA48453  10.702  19.069  10.757  0.3758 -0.1433 -0.1766
28174ION     NA48454  14.584   6.501   0.947  0.0613  0.1834  0.2434
28175ION     NA48455   8.338  15.934   9.656 -0.0769 -0.2003 -0.5578
28176ION     NA48456   3.946  15.343   4.587  0.0964 -0.0542  0.0535
28177ION     NA48457   8.623   9.615   4.740 -0.1822 -0.2650 -0.1609
28178ION     NA48458  16.865   0.439  12.228 -0.2728  0.0586  0.1946
28179ION     NA48459   7.673   3.799   0.743 -0.3088 -0.0519  0.0002
28180ION     NA48460   8.819   8.125   9.678  0.0855  0.1578  0.1038
28181ION     NA48461  18.378  14.104   2.490  0.1013  0.0579 -0.0734
28182ION     NA48462   1.578  16.945   9.472 -0.2652 -0.0224 -0.1933
28183ION     NA48463   5.739   0.999   4.538  0.1105  0.1450 -0.1806
28184ION     NA48464   8.688   2.831   4.229  0.0566  0.0965 -0.0301
28185ION     NA48465   2.506  15.341   4.642  0.0140  0.0776  0.2787
28186ION     NA48466  14.682  14.588   4.661 -0.0882 -0.2606 -0.0452
28187ION     NA48467   4.357   9.594   2.069  0.1502 -0.0452  0.0323
28188ION     NA48468  11.849  16.816   4.495  0.0423 -0.1782  0.1224
28189ION     NA48469   5.099   9.390   4.973  0.1109  0.1681  0.0820
28190ION     NA48470   7.372   2.589   9.465 -0.1472  0.1954  0.3154
28191ION     NA48471   1.709  18.342  10.010  0.1244 -0.1157 -0.0050
28192ION     NA48472  19.099  12.804   9.613  0.1328  0.0835  0.0024
28193ION     NA48473  14.751   0.061   4.295  0.1287 -0.1391  0.0081
28194ION     NA48474  19.233  16.615  11.054  0.0185 -0.1835 -0.0875
28195ION     NA48475   0.317   0.639  10.003  0.0172 -0.1712 -0.2732
28196ION     NA48476   8.445  13.834   9.844  0.0674  0.0675 -0.0647
28197ION     NA48477  18.491  11.435   4.956  0.1283 -0.1630  0.0337
28198ION     NA48478  12.538  12.582   9.599  0.2990  0.0665 -0.1757
28199ION     NA48479  14.441  11.210   4.740  0.1848  0.5303  0.1012
28200ION     NA48480   4.097   1.767  13.048  0.3199  0.1667  0.2070
28201ION     NA48481  14.510   3.897   1.317  0.1123 -0.1590 -0.3542
28202ION     NA48482   4.313   6.147  10.570  0.0338 -0.0246 -0.2679
28203ION     NA48483  17.618   7.726   4.302  0.2129 -0.1028  0.0344
28204ION     NA48484   2.133  10.011   4.168 -0.0304 -0.3720 -0.1654
28205ION     NA48485  13.230  14.449   9.636  0.1862 -0.1934 -0.2967
28206ION     NA48486  18.920  10.019   4.954  0.1916  0.1486  0.0452
28207ION     NA48487  18.754  18.555   4.551  0.0112  0.1071 -0.1303
28208ION     NA48488   4.471   3.008   9.416 -0.1531  0.1232  0.4003
28209ION     NA48489   2.325   4.579   4.864 -0.0135 -0.1163  0.2160
28210ION     NA48490   1.894  10.306   2.603  0.0585  0.2134  0.0155
28211ION     NA48491   5.043   5.431   4.860  0.0177  0.1520 -0.0887
28212ION     NA48492   1.986   3.227   3.482  0.2828  0.1951 -0.2022
28213ION     NA48493   2.085   4.235   9.557 -0.1625 -0.0554  0.1230
28214ION     NA48494   4.492   7.881   9.981 -0.2141  0.0488 -0.0441
28215ION     NA48495  19.714   0.445   3.750 -0.1220  0.3741  0.0570
28216ION     NA48496   2.387  10.083   4.866 -0.0801  0.1955 -0.2264
28217ION     NA48497   2.123   2.335   4.337 -0.0434  0.0590  0.1428
28218ION     NA48498   4.437  10.667  13.326  0.1160 -0.0776  0.1073
28219ION     NA48499  15.340  15.811   4.362 -0.1843  0.0357  0.0416
28220ION     NA48500   0.741   3.859  10.139 -0.3102 -0.0943 -0.1923
28221ION     NA48501   9.567   2.533   9.430  0.0973  0.0888 -0.0412
28222ION     NA48502   8.430   5.671   9.623  0.1411 -0.1735 -0.1471
28223ION     NA48503   4.665   4.779   4.434  0.0095  0.1009 -0.0384
28224ION     NA48504  12.651  14.623   4.667 -0.1115 -0.1822 -0.3418
28225ION     NA48505  19.244   2.839   4.513 -0.1174  0.1607 -0.0695
28226ION     NA48506  15.171  11.895   3.147 -0.1086 -0.1448  0.3414
28227ION     NA48507   7.949   4.418  13.922 -0.0708  0.2920  0.3751
28228ION     NA48508   3.944  13.496   3.069  0.0796  0.3824 -0.1399
28229ION     NA48509   4.422  16.117   4.613  0.2223  0.1094 -0.1060
28230ION     NA48510   5.574   8.041   4.493 -0.1810 -0.2425 -0.1703
28231ION     NA48511   2.463  18.425   9.441  0.2025 -0.1249  0.2751
28232ION     NA48512  12.683  16.590   4.694 -0.1084  0.1006 -0.2304
28233ION     NA48513   4.873   1.384   0.417  0.1889 -0.2335  0.0074
28234ION     NA48514   3.245  11.418  13.091  0.4653  0.0900 -0.0090
28235ION     NA48515  12.901  13.805   9.934  0.1643 -0.1272  0.2995
28236ION     NA48516  19.600   6.848  13.255  0.1740  0.3412 -0.3028
28237ION     NA48517   4.678   3.003   4.426  0.3879 -0.2059 -0.1199
28238ION     NA48518  11.820  13.367  10.585 -0.3645  0.2127  0.0400
28239ION     NA48519  17.458   2.332  12.819 -0.2946  0.1378  0.1167
28240ION     NA48520   9.887  18.227   9.575  0.0825  0.2218  0.3342
28241ION     NA48521  18.116  17.896   3.999  0.1308 -0.1237 -0.1566
28242ION     NA48522   0.130   4.199   9.720  0.2051 -0.1462  0.1183
28243ION     NA48523   3.091  13.318   9.630  0.1449 -0.0765 -0.0783
28244ION     NA48524  12.483   0.528  12.816  0.0744 -0.0631  0.1911
28245ION     NA48525  14.035   3.043   9.087  0.1832  0.4940 -0.0192
28246ION     NA48526  12.158  13.033   3.639 -0.0530 -0.0544  0.0537
28247ION     NA48527  15.714  18.435   2.246 -0.0498  0.2411  0.1416
28248ION     NA48528   9.397  14.994   9.916 -0.2170 -0.1552  0.0337
28249ION     NA48529  15.662   0.581   4.434 -0.0439 -0.1853  0.0530
28250ION     NA48530   5.894   4.689  10.265  0.1916  0.0486  0.0277
28251ION     NA48531   4.861   0.909   4.253  0.1405  0.0355  0.2629
28252ION     NA48532  15.499  17.513   4.430 -0.2331  0.1420 -0.0094
28253ION     NA48533  17.339  16.962  13.299  0.2407 -0.0330 -0.3092
28254ION     NA48534  11.453  12.815   9.814 -0.1630  0.0374  0.2645
28255ION     NA48535  19.517   5.469   4.971  0.0042 -0.2133 -0.0318
28256ION     NA48536   6.086  13.709   4.871  0.0196 -0.1883  0.0012
28257ION     NA48537  11.918   3.673   4.129 -0.0587 -0.0735  0.1371
28258ION     NA48538  15.907   5.911   2.460  0.2624  0.0015  0.2196
28259ION     NA48539  13.512  12.349   4.782 -0.0028  0.1483 -0.1752
28260ION     NA48540  17.225   0.632   9.769  0.0117 -0.1977  0.2971
28261ION     NA48541  19.148  17.436   9.435 -0.1268  0.2507 -0.1036
28262ION     NA48542  15.692  18.878   9.118  0.3171 -0.1322 -0.2637
28263ION     NA48543  16.545  18.426   9.228  0.0783  0.2263 -0.0105
28264ION     NA48544   7.883  13.388   9.835  0.4224  0.0533  0.0330
28265ION     NA48545   6.567  10.587   2.212  0.1010 -0.1642 -0.0562
28266ION     NA48546   0.889   1.587   9.406  0.1734 -0.2570  0.1361
28267ION     NA48547   5.311   4.083   4.429  0.1798  0.1700 -0.0391
28268ION     NA48548  13.441  13.067   9.533  0.2571  0.2875  0.2209
28269ION     NA48549   6.884  18.956  12.134  0.1459  0.2781  0.1948
28270ION     NA48550   2.425  18.951  11.273 -0.0133 -0.2280 -0.2145
28271ION     NA48551   8.002   8.969  10.164 -0.1874  0.3689 -0.0600
28272ION     NA48552   0.402   4.961   9.898 -0.1192  0.2122  0.0810
28273ION     NA48553   3.054   4.157   0.760  0.2105 -0.0665 -0.1800
28274ION     NA48554   2.428   5.453   4.705  0.1179 -0.0999  0.1103
28275ION     NA48555   6.310  11.707   9.843  0.0722 -0.0752  0.2556
28276ION     NA48556   2.556   7.675  13.348 -0.0848  0.2294  0.2816
28277ION     NA48557  12.328   2.937   4.177 -0.1606 -0.1066  0.1046
28278ION     NA48558  14.921  13.341   9.484 -0.0411 -0.0035 -0.0191
28279ION     NA48559   2.239   1.459   4.281  0.2429 -0.1641  0.1077
28280ION     NA48560   9.665  11.385   4.618 -0.0283 -0.5537  0.2536
28281ION     NA48561  13.860   7.276   4.476  0.0669 -0.0508  0.0432
28282ION     NA48562   4.526  18.671  11.187  0.1614 -0.0290  0.0575
28283ION     NA48563   0.480   8.000  11.825  0.0172 -0.0248  0.1456
28284ION     NA48564  14.174  11.056   9.616 -0.1786 -0.1727 -0.0259
28285ION     NA48565  18.164  12.114   4.468 -0.1201  0.1229 -0.4623
28286ION     NA48566  19.035   4.173   9.817  0.0263 -0.0260  0.3281
28287ION     NA48567   1.246   8.683   1.997 -0.1757 -0.3602 -0.1261
28288ION     NA48568  10.861  17.017   4.679  0.0245  0.1236 -0.3476
28289ION     NA48569  19.669  14.672   4.798 -0.2908 -0.1818  0.0760
28290ION     NA48570   4.271  10.931   0.686 -0.0144  0.3341  0.1374
28291ION     NA48571   9.316  18.779   9.509  0.1252 -0.0481 -0.0202
28292ION     NA48572  14.861  10.690   9.894  0.0288  0.2621  0.0251
28293ION     NA48573   7.998   1.821  10.754 -0.0646 -0.0509 -0.0959
28294ION     NA48574  15.000  18.403   4.120  0.1774  0.1124 -0.1072
28295ION     NA48575  14.752  12.711   9.702 -0.0650 -0.0980 -0.1426
28296ION     NA48576   3.704   4.161   2.988 -0.0076 -0.1365 -0.0238
28297ION     NA48577  15.820   1.215   4.284  0.0940  0.3214  0.1421
28298ION     NA48578  15.194  14.041   4.524 -0.1569 -0.0084 -0.1376
28299ION     NA48579  15.133   3.369   2.730 -0.2602  0.1388 -0.6009
28300ION     NA48580   4.526  17.860   4.877  0.0236  0.2212 -0.1323
28301ION     NA48581  17.195  12.744   4.752  0.1606  0.0009  0.2504
28302ION     NA48582  14.857  17.528   4.283  0.0334  0.1175 -0.1734
28303ION     NA48583   4.858   6.545  10.000  0.0578 -0.0288  0.0902
28304ION     NA48584  15.442  10.577  13.972  0.0173  0.0152 -0.1688
28305ION     NA48585   8.423  18.041   1.856  0.2496  0.4661 -0.0191
28306ION     NA48586  17.895   3.885   3.009  0.1851  0.3512 -0.3882
28307ION     NA48587   0.689  14.822   9.429  0.0715  0.0760  0.0417
28308ION     NA48588  11.896  11.161   4.962  0.2436  0.0187 -0.2138
28309ION     NA48589   4.114   2.117   4.035  0.0808 -0.0680 -0.1335
28310ION     NA48590   0.387   5.228   2.964 -0.0173  0.3818 -0.3490
28311ION     NA48591  16.245   1.009   1.323 -0.0889 -0.0875 -0.0632
28312ION     NA48592  10.648  11.364   9.879  0.0838  0.0510 -0.2404
28313ION     NA48593   5.247   7.776  12.693  0.3412  0.0230  0.0489
28314ION     NA48594   1.788  12.380   5.059  0.0419  0.0333 -0.2280
28315ION     NA48595  13.521  16.099   4.345  0.2814  0.3935 -0.4530
28316ION     NA48596  13.448   3.097   4.431  0.0158 -0.1064 -0.0633
28317ION     NA48597   0.689   2.404   9.375  0.0526 -0.1984 -0.2699
28318ION     NA48598   9.837  19.539   4.593  0.1271  0.0845 -0.1500
28319ION     NA48599   7.001  17.219   9.688 -0.2141 -0.2209 -0.1263
28320ION     NA48600   9.112  19.005   4.417 -0.2064  0.0726 -0.0498
28321ION     NA48601  17.829   5.633   1.574  0.0033 -0.2944 -0.1234
28322ION     NA48602  13.576   7.392   0.705  0.0338  0.4300  0.0922
28323ION     NA48603   9.331  11.363   9.932  0.0003 -0.1233 -0.0574
28324ION     NA48604   5.934  10.877   9.694  0.0981 -0.3476  0.2039
28325ION     NA48605  15.078   1.590   9.073  0.1457  0.0228 -0.0280
28326ION     NA48606   4.109   8.116   4.813  0.0059  0.1734 -0.1129
28327ION     NA48607   6.394   3.308   9.703  0.0619 -0.1356  0.0462
28328ION     NA48608  16.779  16.095   9.094 -0.3822  0.3827  0.2457
28329ION     NA48609  13.828  15.885   2.094  0.0087  0.1204 -0.0375
28330ION     NA48610  11.342  18.864   9.689  0.0256  0.3270  0.0360
28331ION     NA48611   1.420  14.998   0.867 -0.0665  0.3862 -0.1028
28332ION     NA48612   7.948   8.025   1.992  0.1014  0.3620 -0.2338
28333ION     NA48613  18.797  15.987  13.795  0.1758  0.1945  0.0222
28334ION     NA48614  15.090  17.137   9.684  0.1946  0.4117 -0.0067
28335ION     NA48615   6.824  17.655   4.896 -0.1602  0.2316 -0.3457
28336ION     NA48616   3.473   3.462  10.840 -0.0219 -0.3513  0.1106
28337ION     NA48617   5.826  18.840   4.255  0.0607 -0.0467  0.0691
28338ION     NA48618  13.805   7.428   9.604  0.1915 -0.5562  0.1812
28339ION     NA48619  17.520   8.663   4.797 -0.0559 -0.4376 -0.1394
28340ION     NA48620   8.078  19.342   4.386  0.2014 -0.0120  0.1320
28341ION     NA48621  13.144  13.760   5.041  0.0182 -0.3310 -0.2773
28342ION     NA48622  11.887   0.182   4.000  0.0367 -0.0777  0.3589
28343ION     NA48623   0.833  18.926  13.159  0.0901  0.2185 -0.1446
28344ION     NA48624  18.421  17.738   4.505  0.1794 -0.1651 -0.1976
28345ION     NA48625   3.310  15.506   0.156 -0.1228  0.1181  0.2126
28346ION     NA48626   0.558  18.949  11.885 -0.1977 -0.3666 -0.2154
28347ION     NA48627   7.845   9.703   4.948 -0.2359 -0.0943 -0.3181
28348ION     NA48628  16.273  11.472   9.696  0.0223 -0.3503  0.0457
28349ION     NA48629  14.473  13.573   4.935 -0.0328 -0.1340  0.0084
28350ION     NA48630  18.262  19.757   4.465 -0.0552 -0.2027  0.0371
28351ION     NA48631   4.188   5.291   4.770 -0.0938 -0.2127  0.1866
28352ION     NA48632   9.701   8.752   3.902  0.1514  0.0151 -0.2612
28353ION     NA48633   5.320   6.293   0.632  0.1284 -0.0854  0.2756
28354ION     NA48634   3.096   4.844   5.045  0.1675  0.0035  0.0666
28355ION     NA48635  10.824  16.398  11.102  0.0917 -0.0429 -0.2399
28356ION     NA48636   4.594  13.116   3.927 -0.1442  0.0411 -0.0211
28357ION     NA48637  15.006  10.288   4.257 -0.0461 -0.1622 -0.3372
28358ION     NA48638  16.453  13.293  11.472  0.1340 -0.1657  0.1492
28359ION     NA48639   3.579  18.274   9.318  0.0361 -0.1487  0.1639
28360ION     NA48640   4.126  14.495  11.380 -0.0063 -0.0115  0.2545
28361ION     NA48641  18.534  15.647   4.759 -0.0872  0.2844 -0.2677
28362ION     NA48642   1.085   0.716   9.233  0.3332 -0.2880  0.0048
28363ION     NA48643   9.510   3.836   1.454 -0.1539  0.0559  0.3236
28364ION     NA48644  10.517   3.815  10.487  0.1785 -0.1388 -0.1106
28365ION     NA48645  17.327  10.201  10.397  0.1328  0.0291  0.2025
28366ION     NA48646  16.577  19.632   2.299  0.0888 -0.2490 -0.0176
28367ION     NA48647   4.890  14.256   4.286 -0.0798 -0.1392 -0.0236
28368ION     NA48648   7.003  11.735  11.019 -0.1135  0.5517 -0.0003
28369ION     NA48649   4.537   7.211   4.750  0.4182 -0.2169  0.3308
28370ION     NA48650  13.333   1.825   9.081 -0.1126 -0.0991  0.2962
28371ION     NA48651   5.339   4.466   9.493 -0.2182 -0.3236  0.3405
28372ION     NA48652   8.965   7.027   3.266  0.0133  0.1504  0.0464
28373ION     NA48653  17.873  11.638   9.536  0.0087  0.0175  0.2429
28374ION     NA48654  11.805  14.934   2.237  0.0052 -0.0313 -0.0494
28375ION     NA48655  13.871   4.536   9.244 -0.0167  0.2334  0.1998
28376ION     NA48656  11.489  12.450  10.618 -0.3457 -0.1754  0.1398
28377ION     NA48657   2.239  13.780   4.885 -0.3864 -0.1368 -0.0148
28378ION     NA48658   6.732  16.294   9.488  0.1808 -0.0852  0.0369
28379ION     NA48659   4.595  18.259   4.318  0.0232  0.0455 -0.1356
28380ION     NA48660  19.648   4.717   0.848 -0.0017 -0.1595 -0.1013
28381ION     NA48661  12.417  15.682   9.551  0.0008  0.0254 -0.2356
28382ION     NA48662   3.724  10.235  12.670 -0.1968 -0.1036  0.2034
28383ION     NA48663   5.759   3.007   0.250 -0.0237 -0.1716 -0.1634
28384ION     NA48664  12.688  13.014   4.723 -0.3451  0.2982  0.0418
28385ION     NA48665   0.237  19.724  10.728 -0.2186 -0.0673 -0.1553
28386ION     NA48666  17.888  13.643   4.902 -0.0266  0.2216  0.0403
28387ION     NA48667  10.502   6.030  13.393  0.1220  0.0938 -0.3429
28388ION     NA48668   2.593  12.919   4.769  0.0315 -0.0746 -0.1535
28389ION     NA48669  14.659   2.354   9.184  0.1432  0.1542 -0.2523
28390ION     NA48670   1.675   8.565   5.096  0.0836  0.1407  0.0405
28391ION     NA48671   0.569  12.513   9.705  0.3337 -0.0465 -0.1705
28392ION     NA48672   0.006   9.839   4.873  0.1420 -0.0712 -0.2829
28393ION     NA48673  14.456   0.983   9.084 -0.2080 -0.0389  0.2256
28394ION     NA48674  10.194  18.716   4.574  0.2996  0.1240  0.0111
28395ION     NA48675  18.565  13.928  10.205 -0.2170 -0.1565  0.2661
28396ION     NA48676   3.834  18.229   0.032 -0.0892 -0.1234  0.3179
28397ION     NA48677  15.270   1.943   4.362 -0.0621  0.0857  0.0247
28398ION     NA48678   7.826   7.036   4.594 -0.0025 -0.0726 -0.0528
28399ION     NA48679  18.516   4.685  10.775 -0.2611  0.3051  0.1801
28400ION     NA48680  13.152   4.490   4.106 -0.2315  0.1316 -0.3895
28401ION     NA48681   5.685  13.324   4.323 -0.2668 -0.1471 -0.0540
28402ION     NA48682  18.596  14.516   9.386 -0.0093 -0.0049 -0.1928
28403ION     NA48683   0.646  16.002   9.663  0.0432 -0.1064  0.0936
28404ION     NA48684  15.851   3.520   9.758 -0.1228  0.1287 -0.0233
28405ION     NA48685   9.028  13.254   5.174  0.1979  0.1848  0.0320
28406ION     NA48686  14.580  18.897   4.204  0.1950  0.0042 -0.1794
28407ION     NA48687   2.768   4.890   4.042 -0.3653 -0.3185  0.2963
28408ION     NA48688  10.038   2.156   4.209 -0.1489 -0.0672 -0.2234
28409ION     NA48689  16.378  12.279   9.756 -0.1352 -0.4053 -0.2838
28410ION     NA48690   9.459   7.631   9.790  0.0528 -0.2386  0.0473
28411ION     NA48691   3.708   0.408   9.303 -0.1050 -0.2274  0.1536
28412ION     NA48692   3.080   7.559   9.864 -0.0734  0.0760  0.4354
28413ION     NA48693  16.150  14.781   3.016  0.2186 -0.0753 -0.2067
28414ION     NA48694  16.909   0.082   3.882 -0.1736 -0.0087  0.0096
28415ION     NA48695  14.210   6.443   3.919  0.1511  0.1025  0.1403
28416ION     NA48696   5.558  15.339   5.031  0.1877  0.1101 -0.3810
28417ION     NA48697  19.783   0.286   1.045  0.0327 -0.0352 -0.1539
28418ION     NA48698   1.184  19.445   4.638  0.0802 -0.1615 -0.1452
28419ION     NA48699   6.832  14.539   4.608 -0.1463 -0.0255 -0.2575
28420ION     NA48700  19.453  10.601   9.543  0.0129 -0.1007 -0.1899
28421ION     NA48701   6.182  14.254   1.435  0.5148 -0.0921 -0.0535
28422ION     NA48702  18.525  16.302  10.635  0.0049 -0.0282 -0.2599
28423ION     NA48703  16.022   4.359  12.508 -0.1762  0.1484 -0.1166
28424ION     NA48704  11.648  15.135   9.926  0.0524 -0.3007 -0.0616
28425ION     NA48705  11.067  10.300   9.735 -0.0589 -0.0483  0.0625
28426ION     NA48706   1.026   3.868   9.736 -0.1572 -0.2816  0.0369
28427ION     NA48707   5.982  10.533   4.673  0.1359  0.1360  0.1312
28428ION     NA48708  14.853  17.775   9.361  0.1644 -0.4730 -0.0546
28429ION     NA48709   6.056  16.669   4.919  0.0332  0.1054 -0.1216
28430ION     NA48710   3.192  15.120   9.697 -0.2190  0.0052 -0.1523
28431ION     NA48711   9.847   9.637   4.892  0.0375  0.4285 -0.0502
28432ION     NA48712  12.013  14.147  10.098  0.1237 -0.0651  0.0666
28433ION     NA48713  14.501  10.315  10.963 -0.0213 -0.1389  0.0889
28434ION     NA48714  14.738  11.751   9.831  0.1888 -0.2878 -0.0630
28435ION     NA48715  11.352  13.681   4.772 -0.2931  0.1460  0.1560
28436ION     NA48716  12.041  10.686   9.609  0.0994  0.0845 -0.0221
28437ION     NA48717  15.202  15.734   3.884 -0.2710  0.4293 -0.0660
28438ION     NA48718   1.237  13.583   9.541 -0.1530 -0.3141  0.0767
28439ION     NA48719   9.675   1.365   4.385  0.0408 -0.0730  0.3517
28440ION     NA48720   5.851  14.261   9.890  0.1183  0.1095 -0.2226
28441ION     NA48721  15.715   8.837   4.306  0.1974 -0.0706  0.1134
28442ION     NA48722  13.128  15.744  10.630 -0.1353  0.0766  0.2718
28443ION     NA48723   9.267   2.371  11.357  0.0773  0.1840  0.2517
28444ION     NA48724   5.263  16.583   4.823 -0.2057  0.0159  0.1876
28445ION     NA48725   4.680   5.769   9.788  0.1193 -0.1216 -0.1378
28446ION     NA48726  11.024   0.641   9.404 -0.1623  0.2202 -0.1724
28447ION     NA48727   8.441   0.565  10.206  0.1731 -0.2312  0.1010
28448ION     NA48728  18.182   7.459   9.483  0.1770 -0.2038  0.1492
28449ION     NA48729   4.959  18.266   0.027 -0.2570  0.0033 -0.1605
28450ION     NA48730   8.630  10.955  11.401 -0.0342  0.3097 -0.0318
28451ION     NA48731   7.208  10.264   9.715 -0.0602  0.2872 -0.2560
28452ION     NA48732   3.102  15.970   4.959  0.1764  0.0993 -0.0414
28453ION     NA48733  10.810   9.249   9.896  0.0878 -0.0294 -0.2903
28454ION     NA48734   7.360   7.968   3.918  0.1031  0.2438 -0.0322
28455ION     NA48735   7.468   2.018   4.309 -0.3339  0.0673 -0.3203
28456ION     NA48736  13.421   2.858   3.947  0.0057  0.0982 -0.0582
28457ION     NA48737   0.489  17.788  11.867 -0.0488  0.0385  0.2066
28458ION     NA48738   8.108   9.161   1.933 -0.0814  0.0568  0.1552
28459ION     NA48739   3.982   3.177   9.565 -0.0838 -0.3351 -0.0806
28460ION     NA48740  19.220  17.412  13.938 -0.1747  0.0106  0.2745
28461ION     NA48741  17.515  13.866   9.587  0.1341  0.1364  0.4557
28462ION     NA48742   5.085  10.419   4.808  0.0057  0.1978  0.2204
28463ION     NA48743   2.661  14.632  12.825 -0.0801 -0.1449  0.3102
28464ION     NA48744  18.517   2.476  10.741  0.0888  0.1028  0.0299
28465ION     NA48745   6.926   4.138   9.840 -0.1503 -0.2442 -0.3289
28466ION     NA48746  19.092  13.895   4.035 -0.0457  0.2192  0.2088
28467ION     NA48747   8.319   2.477   9.145 -0.0315  0.2541  0.0645
28468ION     NA48748  17.291  17.012   4.659  0.0893 -0.1979 -0.0415
28469ION     NA48749   6.726  10.617   9.705 -0.2214 -0.0302 -0.1074
28470ION     NA48750  18.010  12.742   5.054  0.1504  0.0948  0.3052
28471ION     NA48751   8.002  19.325   9.746  0.0740 -0.1634 -0.3106
28472ION     NA48752   9.533  14.830  12.498  0.2598  0.0806  0.1705
28473ION     NA48753  13.454   0.246   3.827 -0.2316 -0.1937  0.0842
28474ION     NA48754  11.294   4.103   4.253 -0.1481  0.0344  0.0454
28475ION     NA48755  18.585  16.167   4.881 -0.0532 -0.0852  0.1552
28476ION     NA48756   4.026   5.864   4.875  0.1921  0.0615  0.1733
28477ION     NA48757   7.519   4.713   9.614  0.0139 -0.2807  0.1987
28478ION     NA48758  10.143   1.258   9.512  0.1467  0.0403  0.2222
28479ION     NA48759   0.233  16.548   4.707  0.2388 -0.1162  0.2534
28480ION     NA48760   8.406   8.085   5.026  0.1245  0.3583  0.0372
28481ION     NA48761   2.525   2.051   9.510 -0.2439 -0.4081 -0.0286
28482ION     NA48762   4.024   5.823  10.042  0.2137 -0.3888 -0.1931
28483ION     NA48763  17.522   1.316   2.789 -0.2602 -0.0277  0.3170
28484ION     NA48764   2.667   8.224   0.877 -0.1486  0.1862  0.2407
28485ION     NA48765  16.220   8.167  11.315 -0.0082  0.1214 -0.1528
28486ION     NA48766  11.273   6.252   3.122  0.1917 -0.2495  0.2900
28487ION     NA48767  17.253   7.649   9.565 -0.0054 -0.1335  0.0556
28488ION     NA48768   7.360  11.478   4.635  0.0533 -0.0680 -0.1626
28489ION     NA48769   5.771  17.026   3.457 -0.2373 -0.2844  0.2408
28490ION     NA48770  12.629  14.938   9.733 -0.2362  0.0059 -0.0449
28491ION     NA48771  17.243   0.770   4.534 -0.0196 -0.3201  0.0712
28492ION     NA48772   3.863  11.825   0.137 -0.0266 -0.1150  0.0266
28493ION     NA48773  14.114  16.227   9.335  0.0698  0.1220  0.3932
28494ION     NA48774   7.302   7.919   1.215 -0.4180 -0.1266  0.0483
28495ION     NA48775   1.563   2.783   2.446 -0.0214 -0.3783  0.3424
28496ION     NA48776  18.646  10.160   3.571  0.0392  0.0688  0.2227
28497ION     NA48777  17.897  16.311   4.290 -0.0566  0.2898  0.0148
28498ION     NA48778  18.940  14.934   4.871 -0.0464  0.2108  0.1855
28499ION     NA48779   0.481   1.574  12.322 -0.2064 -0.0226  0.0905
28500ION     NA48780  11.598  10.280  10.652 -0.0687 -0.1685 -0.1020
28501ION     NA48781  15.716  14.945   4.321 -0.1316 -0.1463 -0.0005
28502ION     NA48782   8.357   1.449   9.139 -0.2334 -0.2063 -0.0281
28503ION     NA48783   9.264   8.113   4.913  0.3738 -0.3485  0.1783
28504ION     NA48784   6.199  14.988   4.704  0.0507  0.0170 -0.3085
28505ION     NA48785   6.301  12.430   1.682 -0.3086  0.0773 -0.0875
28506ION     NA48786  14.802   6.870   4.451 -0.1384 -0.2363  0.3346
28507ION     NA48787  16.656   1.213   4.241  0.0500 -0.0022  0.0072
28508ION     NA48788   3.452   2.582   9.302  0.1561  0.2126  0.2030
28509ION     NA48789   3.152   5.391   0.090 -0.0289  0.0180 -0.0185
28510ION     NA48790  13.352  12.550   9.689 -0.0676  0.2349  0.0449
28511ION     NA48791   7.544   4.227   4.074  0.2354  0.0935  0.2676
28512ION     NA48792  17.432  15.516   9.434  0.1846  0.0961  0.3611
28513ION     NA48793  15.346   8.946   9.575  0.2816 -0.1533  0.0072
28514ION     NA48794   0.530  10.625   4.888 -0.6914  0.1019  0.3156
28515ION     NA48795  19.420   7.928   4.583 -0.2729 -0.4312 -0.1101
28516ION     NA48796  11.684  14.568   0.144 -0.2643 -0.0537 -0.3244
28517ION     NA48797   8.334   6.791   9.671  0.3014  0.1896  0.1397
28518ION     NA48798  12.457   0.507   9.058  0.1296 -0.0509  0.2508
28519ION     NA48799  16.581  10.350   3.399  0.0021  0.0142 -0.2439
28520ION     NA48800   8.783   2.051   9.261  0.4494  0.0745 -0.0246
28521ION     NA48801   1.462  10.891   9.848  0.0697  0.0938 -0.0919
28522ION     NA48802  14.493   8.041   9.264  0.1293 -0.1139 -0.1208
28523ION     NA48803   7.013  13.764   9.650  0.0324 -0.2938  0.3161
28524ION     NA48804   8.120   6.384  13.897  0.0369 -0.0245  0.6520
28525ION     NA48805  15.797  15.966   0.346  0.1164 -0.2731 -0.1249
28526ION     NA48806  14.774  17.028   4.012  0.1352  0.2529 -0.2987
28527ION     NA48807  17.960   7.703  10.768  0.1183  0.0174 -0.0570
28528ION     NA48808   9.078  17.333   4.263  0.2662 -0.2745 -0.0155
28529ION     NA48809   9.177  13.326   9.607 -0.3728  0.0254 -0.0949
28530ION     NA48810  10.943   3.270   4.235 -0.0070  0.0476 -0.4271
28531ION     NA48811  12.510  14.021   0.540 -0.1930 -0.1765 -0.0035
28532ION     NA48812   9.895  12.741   5.068 -0.2992 -0.1707  0.0249
28533ION     NA48813   0.091   1.008   9.203 -0.0929 -0.1145  0.1047
28534ION     NA48814   1.785   5.465   2.254  0.1801 -0.0016  0.0956
28535ION     NA48815   9.797   1.761  11.651 -0.1157  0.1754 -0.2411
28536ION     NA48816   2.437   5.696   9.992 -0.2550 -0.2726  0.0025
28537ION     NA48817   8.864   4.671  10.940  0.0626 -0.0903  0.1909
28538ION     NA48818  12.792  18.176   4.241 -0.2080 -0.1395  0.2552
28539ION     NA48819   6.841  15.463   9.485  0.2914 -0.0653  0.1090
28540ION     NA48820   0.724   0.283   4.642 -0.2375  0.0402 -0.1227
28541ION     NA48821   3.724   5.645  12.443 -0.1241  0.2279  0.2864
28542ION     NA48822  15.919  15.975  10.762  0.0233  0.2927  0.0309
28543ION     NA48823  19.226  15.563   9.337 -0.1171  0.0347  0.2244
28544ION     NA48824   3.614   8.352   9.926  0.2719  0.0256 -0.0542
28545ION     NA48825  14.287  14.016  12.299 -0.0623  0.1324  0.2282
28546ION     NA48826  17.201  10.915   4.649  0.0340  0.0092  0.2615
28547ION     NA48827   0.849   2.702   4.235 -0.1179 -0.3203 -0.2071
28548ION     NA48828   1.735   9.016   9.797  0.1406  0.1415  0.2020
28549ION     NA48829  12.297   8.227   9.902  0.0690  0.0534  0.0898
28550ION     NA48830   9.344   0.898   9.280  0.2649 -0.0521 -0.0052
28551ION     NA48831   7.914  16.324   2.486 -0.0199 -0.0859 -0.1879
28552ION     NA48832  13.367  17.427   9.459 -0.0450  0.0331  0.2469
28553ION     NA48833   7.410  16.536   0.246  0.1139  0.3426  0.1053
28554ION     NA48834  12.782  11.404   4.604  0.1552 -0.0089  0.2297
28555ION     NA48835  16.280  13.058   4.570 -0.1444  0.1060 -0.1415
28556ION     NA48836   6.080   3.906   9.735  0.2223 -0.2269 -0.0650
28557ION     NA48837   0.447   7.917   4.759 -0.3203 -0.0058  0.0595
28558ION     NA48838   0.049   9.872   9.675  0.0519  0.2874  0.1651
28559ION     NA48839  17.285   8.745   9.537 -0.0155  0.3701  0.2573
28560ION     NA48840   0.589   0.447   2.818 -0.0663 -0.0470  0.3125
28561ION     NA48841   3.221  19.242   9.280  0.0607  0.1243  0.1405
28562ION     NA48842   0.473   4.983   4.978 -0.1589  0.0704 -0.0671
28563ION     NA48843   6.844   0.739   9.361  0.4496  0.0612  0.0664
28564ION     NA48844  10.857   6.265   9.388 -0.2526  0.0692  0.2255
28565ION     NA48845   3.462  17.039   3.913  0.2994 -0.1089 -0.1185
28566ION     NA48846   2.073   0.731  10.487 -0.1101  0.0618 -0.2468
28567ION     NA48847   2.376   7.010   9.955  0.1974 -0.1003 -0.3323
28568ION     NA48848   9.384  12.224  14.040 -0.3532  0.0982 -0.0271
28569ION     NA48849  16.805   3.447   9.535 -0.2831  0.2735  0.1920
28570ION     NA48850   5.016  16.595   9.596 -0.2436 -0.5146 -0.0809
28571ION     NA48851  16.112   4.361   4.544  0.0384 -0.2806  0.2526
28572ION     NA48852   3.481   1.063   9.114  0.4951 -0.0136  0.0892
28573ION     NA48853   0.010  16.383   9.349 -0.2365 -0.1626  0.0050
28574ION     NA48854   2.863   5.329  12.141 -0.1509 -0.2581  0.1280
28575ION     NA48855  17.309   8.903   3.495  0.3806 -0.0052 -0.0984
28576ION     NA48856  15.979   9.727   4.369  0.0787 -0.1241  0.2768
28577ION     NA48857   1.508  10.985   4.812  0.0765  0.1272 -0.0905
28578ION     NA48858   9.852   7.875  14.001  0.2176 -0.1710 -0.1761
28579ION     NA48859   2.874   4.030   4.964 -0.0691  0.0290 -0.3465
28580ION     NA48860  11.281  11.876   5.081 -0.0994 -0.0882 -0.1111
28581ION     NA48861  10.945   3.884   1.508  0.1770 -0.4570 -0.0090
28582ION     NA48862   6.838   5.549   4.733  0.3085  0.3695  0.1400
28583ION     NA48863   9.944  16.825   4.272  0.1521  0.0792  0.2877
28584ION     NA48864   8.241   0.349   4.789  0.0276  0.1690 -0.2517
28585ION     NA48865  10.300  12.253   9.467 -0.2275  0.1529  0.1244
28586ION     NA48866   5.935   5.708   4.736  0.1458 -0.0084  0.1020
28587ION     NA48867   1.742  11.573   4.658 -0.1344 -0.1199 -0.0495
28588ION     NA48868   4.800   8.566   5.004  0.3234 -0.2296  0.1235
28589ION     NA48869  12.951  13.314  10.029 -0.1639 -0.1571  0.0444
28590ION     NA48870   4.253   2.171   9.621 -0.1166 -0.0879  0.3906
28591ION     NA48871   2.710   3.134   4.706  0.0078 -0.1236  0.0938
28592ION     NA48872  15.480  10.987  10.046  0.1908  0.2004 -0.1611
28593ION     NA48873   6.807   3.171   4.044 -0.1166  0.1814  0.0851
28594ION     NA48874   3.920  13.761   9.645  0.0044 -0.1420 -0.1497
28595ION     NA48875   1.056   6.279   9.568 -0.0697 -0.0391  0.1246
28596ION     NA48876  10.825  16.262   3.065  0.0658  0.0186  0.1524
28597ION     NA48877   0.515   9.326   2.459 -0.1469 -0.2296 -0.0950
28598ION     NA48878   5.250   1.189   9.051 -0.0110  0.0587 -0.1391
28599ION     NA48879   9.032  16.120   9.318 -0.0233 -0.1308  0.0792
28600ION     NA48880   7.093  11.375   5.006  0.2726  0.0144 -0.1838
28601ION     NA48881   6.937   6.844   9.783  0.0777 -0.0212  0.0529
28602ION     NA48882  17.213  19.726   9.249  0.0124  0.2355 -0.3236
28603ION     NA48883   2.804   0.795   4.301  0.1139 -0.1250  0.3092
28604ION     NA48884   0.422  13.883   9.465 -0.0684 -0.0229  0.0357
28605ION     NA48885   5.415  11.215   4.634  0.0148 -0.3687 -0.0851
28606ION     NA48886  12.468   9.155   9.580  0.1051 -0.1573  0.0492
28607ION     NA48887  18.765   1.946   9.966  0.3865  0.0241  0.1024
28608ION     NA48888   1.911  13.759  10.833 -0.0692 -0.1165 -0.0554
28609ION     NA48889  17.236   9.685   3.739 -0.1063 -0.1950 -0.1006
28610ION     NA48890  11.652  12.845   4.699  0.0689 -0.0400  0.5134
28611ION     NA48891   5.564  10.761   3.034 -0.3330  0.0622 -0.0441
28612ION     NA48892  10.386   3.576   4.364  0.1496 -0.0105 -0.0402
28613ION     NA48893  16.561   8.285   9.328 -0.1036 -0.1712 -0.1593
28614ION     NA48894   2.071  19.150   9.200 -0.1214 -0.3632 -0.0580
28615ION     NA48895   9.803   6.271  11.915 -0.0157 -0.2484  0.1765
28616ION     NA48896   8.621  17.632   9.707  0.2695  0.1223  0.3381
28617ION     NA48897  17.317  14.678   4.484  0.1019 -0.0402  0.1938
28618ION     NA48898  17.046  11.461   9.410 -0.0816  0.1648  0.2523
28619ION     NA48899  18.142  14.860   4.760  0.3741  0.0674  0.0425
28620ION     NA48900  19.414  19.273   9.554  0.0304  0.0022  0.1454
28621ION     NA48901   9.634  15.048   4.336 -0.0742  0.0696  0.0044
28622ION     NA48902   1.970  14.526   4.801 -0.1843 -0.1875  0.1147
28623ION     NA48903   9.523   5.732   9.468  0.2772 -0.1121  0.1255
28624ION     NA48904  18.904   0.849   4.239 -0.1482  0.1781 -0.3543
28625ION     NA48905   0.054  11.983   4.596  0.2562 -0.2148 -0.0639
28626ION     NA48906   0.103   2.254   9.458 -0.2173 -0.1012 -0.0377
28627ION     NA48907  10.830   4.097  11.755 -0.0634 -0.4538 -0.2010
28628ION     NA48908   3.475   0.677   4.230  0.0314 -0.2834 -0.0349
28629ION     NA48909  12.708  11.670  10.542 -0.1292  0.1233  0.3410
28630ION     NA48910  16.833  15.764  10.644  0.1812 -0.3437 -0.0012
28631ION     NA48911  17.132   5.742   9.415  0.2904 -0.0023  0.1442
28632ION     NA48912   8.549  11.366   9.829  0.1770 -0.0822 -0.1156
28633ION     NA48913   8.530   1.007   4.355 -0.4669 -0.0188 -0.0228
28634ION     NA48914  16.379  16.390   9.549  0.0139  0.2323  0.2165
28635ION     NA48915   1.321  13.895   4.790  0.0035  0.0797 -0.0665
28636ION     NA48916   3.614  13.260   4.747  0.2873  0.0611  0.1906
28637ION     NA48917   5.507   3.398  10.338  0.0570 -0.0720  0.1049
28638ION     NA48918   1.103   5.278   1.089  0.0541 -0.0381  0.0270
28639ION     NA48919   2.334  17.737   4.590  0.2451  0.1114  0.0475
28640ION     NA48920   2.922  14.431   4.751 -0.0102  0.0834 -0.1283
28641ION     NA48921   5.583  15.307  10.027  0.0355 -0.0353  0.0975
28642ION     NA48922   4.117  11.616   4.604  0.0137 -0.0457 -0.0911
28643ION     NA48923  14.194  18.817   3.956  0.0336  0.1118  0.1229
28644ION     NA48924   0.331   2.987   4.432 -0.3104  0.1074 -0.0710
28645ION     NA48925   4.323   9.518   9.797 -0.2874  0.0477 -0.1703
28646ION     NA48926   6.790   2.763   4.295 -0.3063  0.1202 -0.3035
28647ION     NA48927  17.862  15.074   9.375 -0.2738 -0.1258 -0.0517
28648ION     NA48928   8.038  16.412   4.718  0.2155  0.0686 -0.1395
28649ION     NA48929  15.513   7.531  10.705 -0.2353  0.0245  0.1406
28650ION     NA48930  17.775   4.251   4.815  0.1407 -0.0234  0.0771
28651ION     NA48931   4.152  10.745   4.751  0.1119  0.1808 -0.1110
28652ION     NA48932   8.367   4.675   9.640  0.2391 -0.1748 -0.2517
28653ION     NA48933  17.134  10.121   4.530 -0.1174  0.0768 -0.1452
28654ION     NA48934   3.397   2.646   1.687 -0.4062  0.4341 -0.0847
28655ION     NA48935   7.110   7.342  10.673 -0.1643 -0.0693 -0.1626
28656ION     NA48936  11.997  17.737   4.468 -0.1225 -0.0627 -0.0204
28657ION     NA48937  10.111  17.258   9.755 -0.0324 -0.1497  0.1420
28658ION     NA48938   0.397   0.132   9.273  0.1005  0.1083 -0.0638
28659ION     NA48939  19.491  11.124   4.724 -0.1429 -0.0885  0.1763
28660ION     NA48940   0.592   0.887   4.408  0.2557  0.0526  0.2703
28661ION     NA48941  14.940  14.532  12.057  0.1422  0.0865 -0.0917
28662ION     NA48942   5.339   2.746   4.423 -0.0352  0.1674 -0.0489
28663ION     NA48943   9.027   9.135   4.826 -0.0787  0.2231  0.0981
28664ION     NA48944  15.713  19.638   3.786 -0.0854  0.3011 -0.3067
28665ION     NA48945   8.482   0.374   9.287  0.0130 -0.0318  0.2211
28666ION     NA48946   3.339   8.770   2.106  0.1523  0.1089  0.0575
28667ION     NA48947  18.726  11.323   9.601 -0.2079  0.2035 -0.0055
28668ION     NA48948   6.075   1.406   3.364  0.2491  0.3386 -0.3664
28669ION     NA48949   8.485  14.969   9.752 -0.0902  0.2045 -0.1760
28670ION     NA48950  17.496   1.082   9.688  0.1893 -0.1997  0.0437
28671ION     NA48951  12.337   4.487   9.327 -0.2128 -0.0707  0.0235
28672ION     NA48952  17.356  16.856   1.772  0.2236 -0.2082  0.1886
28673ION     NA48953  10.079  16.368   4.439 -0.0494 -0.0075 -0.1768
28674ION     NA48954   4.762  14.714   5.029 -0.0108  0.0197  0.0771
28675ION     NA48955  10.983   7.411  10.669  0.2447 -0.0649  0.2423
28676ION     NA48956   4.452  19.651   9.276 -0.1112  0.0094 -0.1918
28677ION     NA48957  17.041  16.996   9.986  0.0916  0.0588 -0.0286
28678ION     NA48958   3.006   6.662   4.959 -0.0630 -0.3300 -0.0906
28679ION     NA48959  14.136  13.072   4.859  0.0295  0.0563  0.2598
28680ION     NA48960   6.715  11.801  12.892 -0.3773 -0.1894 -0.0696
28681ION     NA48961   6.893   1.657   9.255 -0.2506  0.2418 -0.1291
28682ION     NA48962   3.810   5.274   2.134  0.0219  0.0446  0.0479
28683ION     NA48963   8.124   3.730   9.509 -0.0728 -0.0924  0.2006
28684ION     NA48964   0.811  10.346   9.873 -0.1423  0.2215  0.0132
28685ION     NA48965   1.489   5.949   4.970  0.2519  0.0458  0.1025
28686ION     NA48966  14.244  18.303   2.072 -0.4426 -0.1634 -0.2011
28687ION     NA48967  11.962  19.539   9.362 -0.0089 -0.0959  0.1570
28688ION     NA48968  11.953   6.715  11.214 -0.1261 -0.1857 -0.0082
28689ION     NA48969   6.194  18.153   4.840  0.1797  0.2418  0.1269
28690ION     NA48970   8.236  17.844   4.563  0.1822 -0.3213  0.0623
28691ION     NA48971  14.034   5.052   9.426 -0.0889 -0.6098  0.0762
28692ION     NA48972  17.847  17.513   9.380  0.2268 -0.0916  0.3291
28693ION     NA48973   7.095   6.072   9.850  0.0151 -0.0253  0.1487
28694ION     NA48974   5.573   8.177  10.012 -0.2393  0.0140 -0.0288
28695ION     NA48975   4.865  17.443   9.191 -0.1354 -0.1554  0.1978
28696ION     NA48976   5.592  14.819   2.812  0.1889  0.0382  0.0445
28697ION     NA48977  14.868   3.042  12.535  0.0961  0.0892 -0.0803
28698ION     NA48978   4.379   1.568   9.331  0.0513 -0.0355 -0.2725
28699ION     NA48979   4.949  14.591   9.515  0.0832 -0.0376 -0.0855
28700ION     NA48980  17.605  11.753   9.998  0.1309 -0.0170 -0.2211
28701ION     NA48981  16.603   6.699   0.676 -0.0325  0.0884  0.2065
28702ION     NA48982   0.063   3.692   4.861  0.1003 -0.0925 -0.1065
28703ION     NA48983  11.479  18.671  12.952 -0.4206  0.2079 -0.1966
28704ION     NA48984  17.786  18.914   4.405 -0.3260 -0.1708  0.3925
28705ION     NA48985  19.205   9.179   5.048 -0.0781  0.0570 -0.1255
28706ION     NA48986  19.628  14.771   9.299  0.1163 -0.2778  0.2137
28707ION     NA48987  15.469   0.766   9.264 -0.1251  0.0315 -0.1578
28708ION     NA48988   8.056  11.088  12.670  0.0569 -0.1881  0.1798
28709ION     NA48989  14.412  11.419  13.094  0.1383  0.0378 -0.0281
28710ION     NA48990   5.594   3.057   9.450 -0.2900 -0.0462 -0.2035
28711ION     NA48991  15.448   3.505   4.307 -0.1283  0.5048 -0.4265
28712ION     NA48992   0.452  11.513  10.999  0.0489  0.3021 -0.1710
28713ION     NA48993   1.033   8.968   4.912 -0.1807 -0.4136 -0.0442
28714ION     NA48994  18.988   6.356   2.407 -0.3345  0.0778  0.1207
28715ION     NA48995   6.357  18.792   9.377  0.0847  0.1102 -0.0962
28716ION     NA48996   7.196  14.977   4.803 -0.0727 -0.0897  0.0712
28717ION     NA48997   8.315  18.383   4.677 -0.0421  0.4519  0.1179
28718ION     NA48998   1.564   7.679   5.225  0.0033 -0.1024  0.0141
28719ION     NA48999   9.869   9.782  10.399 -0.1949 -0.0854 -0.0560
28720ION     NA49000   4.723  16.930   9.134  0.5179 -0.0589  0.4756
28721ION     NA49001  18.348   0.672   9.558 -0.2237  0.0031  0.2247
28722ION     NA49002  13.304   6.640   9.590  0.2016  0.2010  0.0950
28723ION     NA49003   4.529  16.127   3.689  0.0271  0.0151  0.0456
28724ION     NA49004   9.566  15.958   4.376  0.0073 -0.0551 -0.0492
28725ION     NA49005   3.097   3.257   9.539 -0.2655  0.1450 -0.1720
28726ION     NA49006   4.016   6.545   2.544 -0.0148 -0.1828 -0.2184
28727ION     NA49007  15.247  10.093   3.137 -0.2470  0.1763 -0.3483
28728ION     NA49008   4.093  12.570   1.754 -0.0671  0.2144  0.1386
28729ION     NA49009   0.818  17.936   9.742 -0.0994 -0.0062  0.0552
28730ION     NA49010   3.532  16.309  11.766 -0.0962  0.2114  0.1359
28731ION     NA49011  12.689  10.146   9.380  0.0259  0.1634  0.0847
28732ION     NA49012   7.523  14.719   9.656 -0.2856  0.3662  0.0437
28733ION     NA49013  17.815   1.921   9.441  0.0696 -0.1713  0.0389
28734ION     NA49014  15.793  11.158  10.939  0.2887  0.1017  0.1102
28735ION     NA49015   8.897   0.084   4.795  0.0649  0.2418  0.1459
28736ION     NA49016   5.842  15.059  13.313  0.0483 -0.0092 -0.0397
28737ION     NA49017  19.417  12.617  12.739 -0.4383 -0.1974  0.1222
28738ION     NA49018  16.558   4.071   2.588  0.2106  0.0269  0.0109
28739ION     NA49019  13.707   0.747   2.467  0.2825 -0.0353 -0.0766
28740ION     NA49020  11.990  13.397   9.712 -0.0015  0.0465  0.1031
28741ION     NA49021   1.126   8.934   9.967  0.0427 -0.0178  0.0421
28742ION     NA49022   7.004   6.503   4.709 -0.0047  0.2059 -0.0584
28743ION     NA49023  11.479   2.232   2.898 -0.1304 -0.3516  0.1750
28744ION     NA49024   9.349   4.898   4.604  0.0974 -0.0011 -0.1946
28745ION     NA49025  10.417   2.617   4.225  0.2746  0.3114 -0.1327
28746ION     NA49026   7.866  14.311   9.766  0.1744 -0.1654 -0.0290
28747ION     NA49027   1.625  12.981   9.633  0.1925  0.1298  0.3903
28748ION     NA49028   0.637  16.958   9.572 -0.1215 -0.4130  0.2000
28749ION     NA49029  17.683   8.412  12.587  0.3694 -0.0303  0.2277
28750ION     NA49030   2.602  19.320   4.472  0.0244  0.0443  0.4913
28751ION     NA49031   8.755   6.877   4.944  0.0881 -0.1163 -0.0949
28752ION     NA49032   8.237  10.051   0.948  0.0653  0.0269 -0.0720
28753ION     NA49033   7.675   3.117   4.503  0.1016  0.1654  0.0085
28754ION     NA49034   6.987   0.927   4.418 -0.0450  0.3017  0.1675
28755ION     NA49035   9.280   0.602   4.608 -0.2103  0.0667 -0.0705
28756ION     NA49036  19.460  15.656   4.843  0.1133 -0.2725 -0.0613
28757ION     NA49037   0.371  10.106   1.457 -0.0754  0.0533 -0.0781
28758ION     NA49038  16.349  18.659   4.258 -0.0844  0.3445  0.1325
28759ION     NA49039   8.834  12.198   3.757  0.1763  0.2469  0.1802
28760ION     NA49040  18.368   2.483   4.570 -0.1833  0.1075 -0.1344
28761ION     NA49041   6.809  15.997  12.816 -0.2133  0.0985  0.1985
28762ION     NA49042   0.068   9.163   9.991  0.0541  0.1436 -0.1917
28763ION     NA49043  16.204   3.081   4.566  0.3297  0.0290 -0.2369
28764ION     NA49044  18.798  19.073   4.436 -0.2975 -0.2406 -0.0325
28765ION     NA49045   1.574   2.292   9.447  0.4900  0.3341 -0.0074
28766ION     NA49046   8.107  11.953   5.215 -0.1040 -0.2665  0.0293
28767ION     NA49047   7.914   7.270   0.393  0.4137  0.2136  0.0560
28768ION     NA49048   1.919  10.675  13.350 -0.1974  0.0635 -0.3246
28769ION     NA49049  13.127   4.637   9.285  0.0763 -0.1927  0.1635
28770ION     NA49050   5.497  14.442   4.983 -0.2054  0.1079  0.1075
28771ION     NA49051  13.634  14.566   4.764 -0.1976 -0.3901 -0.1966
28772ION     NA49052  10.018   2.479   9.220 -0.0964 -0.0536 -0.3318
28773ION     NA49053   1.499  12.543  12.975 -0.1045  0.2175 -0.0295
28774ION     NA49054   0.924  11.663   9.760  0.1779 -0.1361 -0.0004
28775ION     NA49055  17.886  10.018   4.822  0.0252 -0.0715 -0.2587
28776ION     NA49056   7.559   0.396   9.098  0.1813  0.0586 -0.0860
28777ION     NA49057  16.629   8.580   4.381  0.0068 -0.0078 -0.2321
28778ION     NA49058  10.707   4.997   9.148  0.1165 -0.1163  0.1074
28779ION     NA49059   7.703   9.411  10.407 -0.0054  0.0414  0.0917
28780ION     NA49060   0.928   1.720   4.320 -0.2021 -0.1408  0.2749
28781ION     NA49061   8.401   8.237   9.932 -0.0558  0.1495 -0.1561
28782ION     NA49062   6.132  12.745   5.087 -0.1537  0.2518 -0.1449
28783ION     NA49063   4.473   3.852   4.609  0.2541 -0.0329 -0.0166
28784ION     NA49064   5.874  17.626  11.828  0.0270  0.1997  0.1338
28785ION     NA49065  18.954  12.145   4.811  0.1465  0.1437  0.0987
28786ION     NA49066  19.668  13.365  13.543 -0.0387  0.1333  0.1445
28787ION     NA49067  10.811   2.147   9.129  0.3547 -0.0252 -0.1866
28788ION     NA49068   1.260  15.272  10.000 -0.3468  0.0056  0.3642
28789ION     NA49069  10.071   6.518   4.713 -0.0591  0.0960  0.2408
28790ION     NA49070  15.982  16.270   3.926 -0.0724 -0.1838 -0.1262
28791ION     NA49071   2.486  16.540   9.614  0.2184  0.1420 -0.0900
28792ION     NA49072   8.101  10.064   9.973  0.2052  0.1577  0.0072
28793ION     NA49073   4.651   3.911   9.312  0.0968  0.1744 -0.3082
28794ION     NA49074  10.550  10.243   5.041  0.2622  0.3598  0.0945
28795ION     NA49075   8.139  10.408   4.890 -0.3994  0.1154  0.0563
28796ION     NA49076  13.902   8.870   1.938  0.1936 -0.2100 -0.1248
28797ION     NA49077  14.769  14.635   1.895 -0.3151 -0.1685 -0.1943
28798ION     NA49078   5.748  16.152   9.837  0.0917 -0.4785  0.4032
28799ION     NA49079   9.728  12.777   9.898 -0.1743 -0.0212  0.0370
28800ION     NA49080  11.154  17.827   4.295  0.0306 -0.0161  0.1196
28801ION     NA49081   2.358   7.928   5.248  0.3581 -0.0907 -0.2287
28802ION     NA49082  12.061   5.404   9.571 -0.1442 -0.1092 -0.0696
28803ION     NA49083   8.317  17.813   3.549 -0.0207  0.1784  0.4781
28804ION     NA49084  16.812   9.776   1.137  0.1778  0.3120  0.0849
28805ION     NA49085   1.802   0.552   3.637 -0.2146  0.0282  0.0967
28806ION     NA49086   6.590   1.705   3.985 -0.0207  0.3883 -0.0656
28807ION     NA49087  18.048   1.353   4.307 -0.3735  0.1855  0.1132
28808ION     NA49088  13.451  16.778   9.561  0.2782  0.1535  0.1393
28809ION     NA49089  16.204   2.770  10.468  0.1100  0.1095 -0.1561
28810ION     NA49090   8.042   0.041   2.290 -0.1039 -0.0705  0.3257
28811ION     NA49091  16.213   9.106   9.553  0.1595 -0.0751 -0.1155
28812ION     NA49092  15.184   6.075   4.335 -0.0356  0.1512 -0.0658
28813ION     NA49093  17.014  14.006   0.901 -0.1682 -0.1931  0.3095
28814ION     NA49094   9.385   8.733  10.040 -0.0663 -0.0763  0.1766
28815ION     NA49095  17.739  19.166   2.193 -0.1267 -0.3517 -0.0639
28816ION     NA49096  11.413   8.426   9.637  0.0887 -0.4201  0.0635
28817ION     NA49097   7.932   7.349   5.043 -0.1824  0.0555  0.1418
28818ION     NA49098   9.293  11.404   2.670  0.1046 -0.0126  0.0288
28819ION     NA49099  10.432  12.126   4.672 -0.1413 -0.2434 -0.1447
28820ION     NA49100  19.416  12.801   4.804  0.1942 -0.1160  0.1717
28821ION     NA49101  15.728  18.356  12.084 -0.2192  0.1790 -0.0816
28822ION     NA49102   8.410  13.760   4.757 -0.2750 -0.1184 -0.1946
28823ION     NA49103   3.444  12.286   4.776  0.0351 -0.2510 -0.0801
28824ION     NA49104  13.950  14.395   1.715 -0.0216  0.3092  0.1003
28825ION     NA49105   3.257  16.107   9.538 -0.1186  0.1575  0.0902
28826ION     NA49106  12.964   3.794   2.414  0.0439  0.0857  0.0859
28827ION     NA49107  17.913  16.360   0.511 -0.0233  0.0046  0.2220
28828ION     NA49108  14.075   2.311  13.080 -0.0229 -0.0378 -0.1605
28829ION     NA49109   6.867   9.472   4.912  0.0955  0.2645  0.1346
28830ION     NA49110  10.232   8.276   9.792 -0.0933 -0.0821  0.2879
28831ION     NA49111   9.313  16.963   9.472  0.2249 -0.1646  0.3806
28832ION     NA49112   7.206  11.450  11.774  0.1718 -0.0581  0.0118
28833ION     NA49113  15.184  13.144   4.619  0.1160  0.1262 -0.0536
28834ION     NA49114   5.299   3.803  13.314  0.3241 -0.0340  0.1341
28835ION     NA49115  16.524  14.649   4.147 -0.2292  0.3098  0.0720
28836ION     NA49116  11.123  19.328   0.843  0.0045 -0.2530 -0.3316
28837ION     NA49117  15.601   7.095   4.348  0.2303  0.1484  0.0636
28838ION     NA49118  12.637  10.545   5.023  0.0099  0.0635  0.0520
28839ION     NA49119   7.028  13.765   4.846  0.0815 -0.3205 -0.0296
28840ION     NA49120   1.463   6.760   5.214  0.2360 -0.3431 -0.0705
28841ION     NA49121  11.948  18.483   3.930 -0.6299 -0.0778  0.1506
28842ION     NA49122  14.618   2.035   4.242 -0.1345 -0.3383  0.0712
28843ION     NA49123   7.570  14.207   5.039 -0.1922 -0.0032 -0.2343
28844ION     NA49124  11.404   3.141   9.025  0.0406 -0.0989 -0.2404
28845ION     NA49125  17.188   6.631   4.316  0.1565 -0.0379 -0.0278
28846ION     NA49126  18.674  13.464   5.008  0.0007 -0.0873  0.2323
28847ION     NA49127   4.027  16.584   9.568  0.1161 -0.4941  0.0541
28848ION     NA49128  14.992  15.702   1.784  0.2052 -0.0348  0.0075
28849ION     NA49129   8.961  18.435   9.464  0.2642  0.1262  0.0669
28850ION     NA49130  10.282  18.773   9.462  0.2487  0.1239 -0.0206
28851ION     NA49131  15.954   7.850   4.338 -0.0013 -0.3031 -0.3247
28852ION     NA49132   1.153  11.763   5.046  0.1409 -0.0221 -0.3645
28853ION     NA49133   9.224   9.295  12.404  0.4185 -0.0230  0.0266
28854ION     NA49134   1.028  19.175   0.043  0.0493 -0.2181  0.1225
28855ION     NA49135   3.793  14.372   4.820  0.1181  0.1683 -0.0106
28856ION     NA49136   3.480   7.132   0.562  0.0318 -0.1725  0.3135
28857ION     NA49137   8.908  10.955   5.059 -0.0627  0.0403 -0.1905
28858ION     NA49138   1.586   0.443   4.437  0.1130  0.5750 -0.0699
28859ION     NA49139   4.785   6.190   4.961 -0.2270  0.0830 -0.1932
28860ION     NA49140  19.450   4.047   1.591  0.1884 -0.3546  0.2191
28861ION     NA49141  13.948   6.159   9.428  0.3120 -0.2292  0.1033
28862ION     NA49142  11.203   2.967  12.598 -0.0285 -0.2341 -0.2203
28863ION     NA49143  15.207   6.295   9.463 -0.3609  0.1657  0.3413
28864ION     NA49144   7.324  14.074   3.505  0.0131 -0.0658  0.0776
28865ION     NA49145   9.807  14.060   9.615 -0.1630  0.0213  0.1594
28866ION     NA49146   0.383   3.140   2.612  0.0586 -0.0542 -0.1056
28867ION     NA49147  12.634   6.497  10.753  0.1697  0.0606 -0.1232
28868ION     NA49148  13.711   3.141   1.616 -0.2737  0.2872 -0.1319
28869ION     NA49149   4.408  10.360   9.762  0.0533  0.0108  0.2424
28870ION     NA49150   1.182  16.962   4.543  0.1726  0.1165 -0.0455
28871ION     NA49151  14.811   8.838   3.289 -0.0580  0.0683  0.4647
28872ION     NA49152  18.793   5.832   4.843  0.0774  0.0965  0.1072
28873ION     NA49153   8.263   1.918   4.503 -0.0056  0.0089 -0.3342
28874ION     NA49154  10.590   3.762   3.406 -0.2654 -0.1069  0.0134
28875ION     NA49155   5.552   7.187   9.986  0.2560 -0.0142  0.1814
28876ION     NA49156  11.867  10.026   9.723  0.0055 -0.1793 -0.0205
28877ION     NA49157   6.039   0.163   9.298  0.0452  0.1840 -0.0169
28878ION     NA49158   7.793   5.445   5.080 -0.1204 -0.1177 -0.0125
28879ION     NA49159   8.334  16.696  12.565 -0.0323 -0.1990  0.1296
28880ION     NA49160  12.161   1.393   9.854  0.2636  0.0210 -0.0905
28881ION     NA49161   7.703  18.801   4.170 -0.2860 -0.2190 -0.1956
28882ION     NA49162   7.692  10.888   9.619 -0.0750 -0.0210 -0.5974
28883ION     NA49163   4.971   1.848   4.203 -0.2492  0.0512  0.1460
28884ION     NA49164  14.776   7.197   9.483  0.2741 -0.5265 -0.1348
28885ION     NA49165  16.054   6.007   9.314  0.2104 -0.1088 -0.0988
28886ION     NA49166  13.914   2.312   4.357  0.0633 -0.2177 -0.0586
28887ION     NA49167   6.273   4.462   4.539 -0.1134  0.2049  0.1080
28888ION     NA49168   2.282  15.687   0.947  0.0487 -0.0326 -0.0534
28889ION     NA49169  15.341   8.350  11.758  0.0481 -0.0980  0.2214
28890ION     NA49170  11.360   5.616   9.478 -0.0754 -0.0344 -0.5365
28891ION     NA49171  17.907  12.580  13.709  0.0999  0.0146 -0.2652
28892ION     NA49172   7.897   7.675   9.775 -0.0463 -0.0175 -0.1290
28893ION     NA49173   4.824   0.800   9.189 -0.0355  0.1678 -0.0937
28894ION     NA49174  16.394   1.692   0.059 -0.1344 -0.4097  0.0015
28895ION     NA49175  16.894  15.976  13.026  0.0074  0.2079  0.2996
28896ION     NA49176  18.510  10.677   4.807  0.1840 -0.2071 -0.1761
28897ION     NA49177   3.854   9.025   4.949  0.1455 -0.1057  0.0869
28898ION     NA49178  13.858  13.991   9.539 -0.1090 -0.2791 -0.2893
28899ION     NA49179  13.012   7.172   4.447  0.0544  0.2400 -0.0429
28900ION     NA49180   9.038  12.170   4.934 -0.2641  0.0074  0.0225
28901ION     NA49181  18.171  12.500   9.611 -0.3833 -0.4195  0.0682
28902ION     NA49182  12.341   1.943   4.205 -0.0214 -0.3494  0.2552
28903ION     NA49183  19.170   8.596   9.757  0.0972 -0.3391 -0.1079
28904ION     NA49184  15.116   9.839   9.548 -0.1882  0.0437 -0.2163
28905ION     NA49185  14.383  12.267   4.934 -0.0111  0.1570 -0.4599
28906ION     NA49186  10.077   9.558  10.006  0.1557 -0.3512  0.0792
28907ION     NA49187   6.152  12.519   9.970 -0.4008  0.1667 -0.1022
28908ION     NA49188  15.627   0.025   9.325 -0.0932 -0.1812 -0.1232
28909ION     NA49189  11.934   0.573   9.050 -0.3543  0.0076 -0.1911
28910ION     NA49190  16.006  17.207   9.318  0.2015 -0.0358  0.1396
28911ION     NA49191   8.636   7.133  13.762 -0.1028 -0.1039  0.1815
28912ION     NA49192   1.465   9.834  13.686 -0.2160  0.5619  0.1623
28913ION     NA49193  12.044  16.978   9.725 -0.1297  0.2077  0.3948
28914ION     NA49194   0.570  13.193   4.786  0.0004 -0.0389 -0.0369
28915ION     NA49195  17.548  11.363  12.938 -0.2409 -0.0565  0.1132
28916ION     NA49196   5.297   8.105  10.398 -0.1182 -0.2204 -0.0203
28917ION     NA49197   4.819  11.842  10.008  0.1496 -0.2268  0.0528
28918ION     NA49198   2.676   9.487   9.851 -0.3127 -0.2605 -0.0574
28919ION     NA49199  13.792   6.270   2.225  0.4917 -0.0690  0.2900
28920ION     NA49200   6.807  19.237   2.795  0.4138 -0.2514  0.1813
28921ION     NA49201   8.642  13.214   9.534  0.0962  0.1526  0.0152
28922ION     NA49202   2.801  13.854   9.714 -0.1698 -0.1487  0.0434
28923ION     NA49203  16.632  17.116  14.000  0.0203  0.3165  0.1560
28924ION     NA49204   4.060  12.519   4.647 -0.0026 -0.0027 -0.1007
28925ION     NA49205   5.216  15.780   1.894 -0.1161 -0.0441  0.2860
28926ION     NA49206   4.824  13.501   9.611 -0.0181 -0.3283 -0.6016
28927ION     NA49207  14.895   1.086   4.274  0.0018  0.1808  0.0239
28928ION     NA49208  10.704   5.130   4.558  0.1949  0.3275  0.1296
28929ION     NA49209  12.949  12.158   3.090  0.1296  0.1960 -0.0477
28930ION     NA49210   1.719  13.117   5.044  0.3062  0.2296  0.1216
28931ION     NA49211  13.189   3.946   9.667  0.2994 -0.2532  0.0397
28932ION     NA49212   0.415   2.946  10.160  0.0560  0.4973 -0.1129
28933ION     NA49213  15.894   5.330   4.556  0.1198  0.5158 -0.2562
28934ION     NA49214  11.393   9.672   4.932  0.1221 -0.0283 -0.1013
28935ION     NA49215  12.909   2.803   9.215  0.0866 -0.3221 -0.1373
28936ION     NA49216   9.675  10.464   4.971 -0.1006 -0.2525 -0.1666
28937ION     NA49217  13.861  10.772   4.295 -0.0057  0.1156 -0.1747
28938ION     NA49218  12.904   5.735   1.285  0.1176 -0.0116  0.1908
28939ION     NA49219  19.152  10.534   9.973  0.1422  0.0399 -0.0887
28940ION     NA49220   5.756  17.501   4.710  0.0390 -0.0270  0.0220
28941ION     NA49221   0.102  18.156   4.533  0.3110 -0.0060 -0.2549
28942ION     NA49222  10.714  15.067   9.988  0.2923 -0.1336  0.1200
28943ION     NA49223  16.740  13.240   9.706 -0.3354  0.0982 -0.3756
28944ION     NA49224   2.404   0.040   4.429  0.1158 -0.0486  0.2319
28945ION     NA49225  13.993  11.475   4.963 -0.1102 -0.2790  0.1977
28946ION     NA49226  17.723  19.551   3.645 -0.2839  0.1286  0.1478
28947ION     NA49227   2.592   2.267   4.457 -0.2383  0.2681 -0.2924
28948ION     NA49228  13.155   2.011   2.933  0.1386 -0.1597 -0.3441
28949ION     NA49229  15.029  13.111   0.132 -0.0948 -0.2678  0.0372
28950ION     NA49230   1.114  14.685   4.758  0.3930 -0.1007  0.0862
28951ION     NA49231  19.316   0.356   9.517  0.0897 -0.0374 -0.0466
28952ION     NA49232  11.027   7.905   9.806  0.0976  0.0873 -0.0327
28953ION     NA49233  17.240  19.157   0.622  0.0216 -0.1123 -0.1032
28954ION     NA49234   2.528  11.936   4.833 -0.0572  0.0391 -0.1454
28955ION     NA49235   9.438  13.346  12.883 -0.0883  0.0251  0.0625
28956ION     NA49236  19.495  13.425   4.901 -0.0845  0.0514 -0.0502
28957ION     NA49237   8.977   3.836   2.033  0.1150  0.0941  0.1784
28958ION     NA49238  16.969  17.325   4.397 -0.2630  0.0986 -0.0360
28959ION     NA49239  14.207   3.742   4.413 -0.0675  0.0482  0.1182
28960ION     NA49240   9.855   3.618   3.813 -0.3273 -0.1757  0.1658
28961ION     NA49241   1.086  17.818   4.657  0.0603 -0.1905 -0.0566
28962ION     NA49242   3.408  18.286   4.360  0.4470  0.0172 -0.2361
28963ION     NA49243   5.622  11.742   9.801  0.1555  0.0588  0.2986
28964ION     NA49244   2.536  19.114   3.471  0.0915 -0.0430  0.0582
28965ION     NA49245  12.419   5.730   4.167 -0.0280  0.0296  0.3070
28966ION     NA49246  16.496   0.459   9.353  0.0708 -0.0137  0.0664
28967ION     NA49247  16.289   7.889   0.336  0.1158 -0.2106 -0.1662
28968ION     NA49248  18.609  19.132   9.419 -0.0484  0.5924  0.5970
28969ION     NA49249   9.737  13.710   4.754  0.0280  0.3853 -0.1402
28970ION     NA49250   9.764  14.090  11.193  0.0404 -0.1591 -0.2513
28971ION     NA49251  11.561   9.371  10.484  0.0348 -0.1190  0.0339
28972ION     NA49252  18.686   1.713   9.198  0.0017  0.3103 -0.2624
28973ION     NA49253   7.163   5.036   4.654 -0.3009  0.4014 -0.2914
28974ION     NA49254  15.222  14.897   4.333 -0.0909 -0.2073  0.0543
28975ION     NA49255   9.412   7.512  13.287 -0.2456 -0.1939 -0.1725
28976ION     NA49256  12.745   0.366   1.878 -0.1113  0.0013  0.0948
28977ION     NA49257   0.465  15.281  12.987  0.3230 -0.0922  0.2712
28978ION     NA49258  12.636  10.229  11.242 -0.0650 -0.1552 -0.1322
28979ION     NA49259   7.631  19.433  12.515  0.0924 -0.3239  0.0831
28980ION     NA49260  13.885   1.380   4.085  0.1903  0.1871 -0.1723
28981ION     NA49261  11.450   2.620   9.799 -0.2356 -0.1535 -0.1516
28982ION     NA49262   6.186  12.293   4.794 -0.2289  0.0546  0.0959
28983ION     NA49263   6.211   2.480   9.457  0.2453  0.1277  0.0681
28984ION     NA49264   7.148  17.258  11.153 -0.2083 -0.1278 -0.1299
28985ION     NA49265   9.181   0.285   1.900 -0.1106 -0.0104 -0.0015
28986ION     NA49266   3.121  19.779  12.260  0.1002  0.1767 -0.0828
28987ION     NA49267   1.374   7.277   9.642 -0.4166 -0.3664 -0.3888
28988ION     NA49268  18.886   9.942   9.652  0.0425 -0.2923  0.1005
28989ION     NA49269  10.021  17.656   4.449 -0.1486  0.1731 -0.0113
28990ION     NA49270  16.152   0.799  14.008  0.3758  0.0068  0.1280
28991ION     NA49271  12.326  18.687   9.631  0.0106  0.3227  0.2244
28992ION     NA49272  11.670  14.333   9.802  0.2383 -0.2549  0.0276
28993ION     NA49273  13.337  15.294   9.531 -0.0460 -0.1578  0.2021
28994ION     NA49274   3.280   9.560   5.105  0.0857  0.0541  0.2342
28995ION     NA49275   8.521  16.594   2.685 -0.0818 -0.1153  0.0433
28996ION     NA49276   2.412  17.375   9.044  0.3271 -0.3948  0.0622
28997ION     NA49277   7.751  17.718   9.599  0.0219 -0.1701 -0.1346
28998ION     NA49278  19.657   6.223   4.906 -0.1846  0.2421  0.2703
28999ION     NA49279  11.266  10.604   5.188  0.0148 -0.2008 -0.0994
29000ION     NA49280  16.661  17.905   9.255 -0.0356  0.3710 -0.2904
29001ION     NA49281   7.157  10.384   4.859  0.2303  0.4201  0.2000
29002ION     NA49282  19.017   1.889   4.114 -0.0651  0.0376  0.2470
29003ION     NA49283  11.803   9.284   4.898  0.0432 -0.2848  0.0503
29004ION     NA49284  11.624  14.458   4.873 -0.1578 -0.0348 -0.4712
29005ION     NA49285  11.094  11.958   9.771  0.0950  0.2125 -0.2659
29006ION     NA49286  16.268  17.040   4.242  0.0199 -0.3061  0.0347
29007ION     NA49287  16.164   2.152   4.648  0.1129 -0.0043 -0.1416
29008ION     NA49288  10.189   5.719   9.397  0.3547  0.0656  0.0947
29009ION     NA49289   9.906   7.386   4.909 -0.3308 -0.0411  0.1968
29010ION     NA49290   8.697  14.883   1.016 -0.1160 -0.0902  0.3087
29011ION     NA49291  14.749   9.094   4.114  0.1835 -0.1773  0.1055
29012ION     NA49292   9.931   5.676   4.327 -0.3548 -0.1180  0.0203
29013ION     NA49293  14.742  12.823  10.878  0.0451 -0.1708 -0.3735
29014ION     NA49294  11.193  15.876  10.140 -0.1250 -0.0880  0.0142
29015ION     NA49295  18.630   4.092   5.007  0.0910  0.1617 -0.2269
29016ION     NA49296   5.723  17.878   9.393  0.1719  0.0543 -0.1316
29017ION     NA49297   4.090  10.814   9.857 -0.2335 -0.1207 -0.0795
29018ION     NA49298  17.731  12.370   3.253  0.0600  0.1427 -0.0746
29019ION     NA49299  11.094  16.488   9.801 -0.2293 -0.0236 -0.0637
29020ION     NA49300   4.571   0.096   4.268  0.1787 -0.2357 -0.3931
29021ION     NA49301   6.068  10.982  12.399 -0.0793 -0.0029 -0.1349
29022ION     NA49302   9.329   4.070   9.856  0.0536 -0.1926 -0.0654
29023ION     NA49303  19.242  13.839   2.388 -0.2427 -0.1086 -0.3621
29024ION     NA49304  11.015   6.541   4.461  0.2253  0.2700  0.0011
29025ION     NA49305   4.798  17.657  10.285  0.0344  0.2239  0.1576
29026ION     NA49306  18.273  15.994   9.401  0.0923  0.0111  0.4892
29027ION     NA49307   0.609   3.629  12.662  0.0593 -0.0768  0.0832
29028ION     NA49308  14.813   2.854   4.516 -0.0837 -0.0065  0.1912
29029ION     NA49309   6.239   7.253   4.639 -0.0321 -0.3432  0.0821
29030ION     NA49310   3.104   3.390   3.758  0.2072  0.1225  0.0643
29031ION     NA49311  15.436   4.479   9.393  0.0407 -0.0173 -0.1953
29032ION     NA49312  11.260  17.503   1.486  0.2816 -0.4902  0.0212
29033ION     NA49313  19.276  17.272   4.291  0.3302 -0.3721  0.0370
29034ION     NA49314  14.323   4.593   4.471 -0.2676 -0.2905 -0.0791
29035ION     NA49315  11.021  18.648   4.083 -0.0785 -0.3513 -0.2042
29036ION     NA49316  15.265  13.521  13.508 -0.1630 -0.2037  0.3301
29037ION     NA49317  10.193   1.126  10.475 -0.3856  0.1350  0.1503
29038ION     NA49318   6.247   7.455   9.964  0.1346 -0.1610  0.1382
29039ION     NA49319  16.039   6.751   9.809  0.0564 -0.0123 -0.0506
29040ION     NA49320   1.998   6.339   9.684  0.0711 -0.0489 -0.2947
29041ION     NA49321  15.231  19.342   4.409 -0.0519  0.1934 -0.1849
29042ION     NA49322  19.364   2.111  12.178  0.0884  0.0373  0.4890
29043ION     NA49323  17.090  18.341   4.232 -0.1672  0.2989  0.1518
29044ION     NA49324  11.079  17.049  11.674 -0.0541  0.1066 -0.0231
29045ION     NA49325  10.135  15.489   4.867  0.0154 -0.0745 -0.1952
29046ION     NA49326  16.310   9.365   4.414  0.6246 -0.0664 -0.0864
29047ION     NA49327   9.187  18.661   2.295  0.1730 -0.0318  0.1253
29048ION     NA49328   1.384  13.456   3.398  0.0886 -0.0364  0.0279
29049ION     NA49329  17.968  10.750   9.667  0.0775 -0.2054 -0.1083
29050ION     NA49330  17.999   2.681   1.434  0.0445 -0.3389  0.1596
29051ION     NA49331   3.110   4.882  13.085 -0.2406 -0.1186 -0.3752
29052ION     NA49332  14.431  15.306   4.148  0.0819 -0.1050 -0.1497
29053ION     NA49333  16.933   5.024  13.639  0.1680 -0.2469 -0.1485
29054ION     NA49334  10.426   3.748   2.260 -0.1975 -0.1035  0.4270
29055ION     NA49335  18.728   5.843   9.478  0.1752  0.1202 -0.1479
29056ION     NA49336  12.034  17.279  11.635  0.2223 -0.0016  0.1937
29057ION     NA49337   1.758   8.190   9.983 -0.0469  0.0320 -0.0232
29058ION     NA49338  16.560  10.330   4.500  0.1086 -0.1016 -0.3115
29059ION     NA49339  16.401   6.113   4.457 -0.1989 -0.2278  0.3568
29060ION     NA49340   7.882  12.733   9.547  0.1078  0.0701 -0.0889
29061ION     NA49341   3.247  16.970   9.266 -0.1148 -0.2266 -0.2752
29062ION     NA49342   8.701   4.547   2.769 -0.2433  0.2668 -0.0872
29063ION     NA49343  12.136  15.969   4.355  0.1027  0.2032  0.0893
29064ION     NA49344   0.621   5.746   5.136 -0.0489  0.1224 -0.4066
29065ION     NA49345  10.681   3.166   9.042 -0.1004  0.3702  0.2849
29066ION     NA49346   8.056   8.914   4.784  0.2950 -0.3824 -0.1326
29067ION     NA49347   5.490   8.940   0.648  0.0360 -0.0615 -0.2328
29068ION     NA49348  19.766   0.120   4.233  0.2810 -0.1178 -0.0844
29069ION     NA49349   6.547   6.391   4.659  0.0264 -0.3231  0.2772
29070ION     NA49350  19.555   5.321  10.434 -0.0084 -0.1346 -0.0754
29071ION     NA49351   2.041  16.939   4.690 -0.0729  0.0541  0.2070
29072ION     NA49352   6.907  18.116   9.583 -0.1821 -0.1051 -0.4454
29073ION     NA49353  11.485   6.710   9.321  0.2057 -0.1422 -0.1721
29074ION     NA49354  14.928  10.346   4.800 -0.1108 -0.0111 -0.0079
29075ION     NA49355  17.607   3.979   9.531 -0.0394  0.1199  0.1011
29076ION     NA49356  17.542  18.620   1.624  0.1659 -0.1310 -0.2030
29077ION     NA49357  18.834  11.987  12.503  0.1449  0.1783 -0.1534
29078ION     NA49358  19.158  13.729   9.430  0.1035  0.1596  0.1643
29079ION     NA49359  17.170   1.743   4.762  0.2075 -0.1174 -0.0734
29080ION     NA49360   0.697   7.998   9.834  0.0057  0.1797  0.1092
29081ION     NA49361   2.462   5.008   9.498  0.0672 -0.1215  0.3063
29082ION     NA49362  12.655  19.607  11.552 -0.1136  0.2344 -0.3062
29083ION     NA49363   1.750  17.922   1.187  0.0482 -0.0931 -0.0021
29084ION     NA49364   9.762   5.057   2.282 -0.1696 -0.0701  0.4452
29085ION     NA49365   3.346  16.872   1.129  0.2533  0.0525 -0.0770
29086ION     NA49366   2.846   6.348  10.496  0.0147  0.0859 -0.1028
29087ION     NA49367   1.024  16.008  10.535 -0.0586  0.2816 -0.4146
29088ION     NA49368   1.816   1.193   4.198 -0.2824 -0.0514  0.0809
29089ION     NA49369   2.071  11.988   3.808 -0.1482  0.1649  0.1780
29090ION     NA49370  12.593  10.635   1.476 -0.1014 -0.0671 -0.0051
29091ION     NA49371   7.814  16.815   9.535  0.1250  0.1990  0.2254
29092ION     NA49372  19.685   5.578  12.104 -0.1032  0.0072 -0.1076
29093ION     NA49373   6.242  15.850   4.703 -0.3315  0.0832 -0.1309
29094ION     NA49374   1.904   6.518  13.983  0.0846  0.0680 -0.1117
29095ION     NA49375  12.026   1.613   9.422  0.2089 -0.2229  0.0445
29096ION     NA49376  10.675   1.485   4.464  0.0254 -0.1317 -0.1076
29097ION     NA49377   3.647   3.477   4.710 -0.0821 -0.0853  0.3224
29098ION     NA49378   7.494  12.240   3.546  0.0020 -0.0832  0.2213
29099ION     NA49379  10.456   6.971   9.569  0.4126 -0.1204 -0.0885
29100ION     NA49380   0.519  12.609  10.715  0.1446  0.0626  0.0713
29101ION     NA49381  14.792  11.678   4.197  0.1678 -0.0048  0.2819
29102ION     NA49382   6.460  19.484   3.713  0.0360  0.0664  0.0529
29103ION     NA49383  14.247  10.169   9.569  0.3022  0.0749 -0.1504
29104ION     NA49384  12.523   2.378   3.505 -0.0765 -0.1363 -0.2868
29105ION     NA49385   6.542   9.210   2.374  0.1803 -0.0546 -0.4112
29106ION     NA49386   5.805   3.517   4.660  0.2347  0.1396 -0.0427
29107ION     NA49387  14.612  15.381   9.230  0.0328  0.1078  0.1888
29108ION     NA49388   9.703  18.634   4.341  0.0917  0.0470  0.2134
29109ION     NA49389  18.446  17.650   9.358 -0.3097  0.2316  0.0721
29110ION     NA49390  11.092  18.969   1.645  0.0552 -0.1895 -0.3071
29111ION     NA49391  11.245  16.552   1.390 -0.3239  0.0116 -0.2215
29112ION     NA49392  18.272   7.450   4.698  0.0920  0.1063 -0.0166
29113ION     NA49393  14.218  18.535   9.478 -0.0585 -0.3377  0.2864
29114ION     NA49394  16.875  19.544   4.303  0.0551 -0.0224 -0.2891
29115ION     NA49395   5.579   4.856   4.731 -0.0814 -0.1142  0.3408
29116ION     NA49396  16.995  16.186   4.518  0.1193 -0.0796 -0.2004
29117ION     NA49397   7.295   3.292  10.058 -0.0224  0.1214 -0.0496
29118ION     NA49398  13.379   8.022   4.378  0.0599  0.1086  0.0842
29119ION     NA49399   0.288  19.183   4.529  0.0767 -0.0272 -0.1831
29120ION     NA49400  11.379  17.247   9.400  0.3286  0.1572 -0.1199
29121ION     NA49401  18.374   9.116   4.784 -0.3518  0.1407  0.0856
29122ION     NA49402  15.038  15.982   9.260 -0.0782  0.3294 -0.0176
29123ION     NA49403  16.333  19.350   9.274 -0.4436 -0.0470 -0.0788
29124ION     NA49404  10.505  13.869   9.816  0.1550  0.0882 -0.4588
29125ION     NA49405   0.533  13.934   5.054  0.2314 -0.1621  0.2667
29126ION     NA49406  18.479   2.585   9.626 -0.0389 -0.1464  0.0631
29127ION     NA49407   8.343  16.698   9.428  0.0045 -0.1848 -0.1346
29128ION     NA49408   9.981   6.914   9.485 -0.0365 -0.0154 -0.1047
29129ION     NA49409  14.100  17.145   4.399  0.1672  0.1539 -0.0170
29130ION     NA49410  16.315   9.839  10.880  0.0630 -0.0022 -0.2487
29131ION     NA49411  17.351  12.648  10.052 -0.1404  0.0498 -0.0743
29132ION     NA49412   2.350   4.708  13.610  0.0570 -0.2792 -0.2251
29133ION     NA49413   8.726   4.156   4.580 -0.0261 -0.0617 -0.1636
29134ION     NA49414   6.880  11.554   4.511  0.0890 -0.0099  0.3161
29135ION     NA49415   9.171   6.828   9.647 -0.0320 -0.0252 -0.2804
29136ION     NA49416   6.518   8.413   9.991  0.5108 -0.0074 -0.3107
29137ION     NA49417   8.529   1.222   2.431 -0.1003 -0.1374 -0.0478
29138ION     NA49418  17.160   2.779   4.524 -0.0145  0.0733 -0.1482
29139ION     NA49419   7.925  15.526   4.863  0.0745  0.2584  0.1170
29140ION     NA49420  14.794   0.000   9.043 -0.2964 -0.0375 -0.0836
29141ION     NA49421  18.993  18.297   9.645  0.1316 -0.0424 -0.1443
29142ION     NA49422   6.573  16.685   4.802  0.1365  0.3237 -0.1945
29143ION     NA49423   0.650   6.969   4.931 -0.1531 -0.0461  0.0685
29144ION     NA49424  17.878   2.626  11.726  0.0551  0.1614  0.1779
29145ION     NA49425   1.974  13.935   9.883  0.2688  0.1160  0.1399
29146ION     NA49426  18.307   8.235   4.798  0.1846  0.2566 -0.1052
29147ION     NA49427  18.041   5.404   4.785 -0.2514  0.0924  0.0153
29148ION     NA49428   4.038  17.614   9.131 -0.1366  0.0105  0.2656
29149ION     NA49429  14.843   4.818  10.565 -0.2749  0.3093  0.0378
29150ION     NA49430   4.036  12.658   0.700  0.2096 -0.0278  0.0551
29151ION     NA49431   3.316  11.244   2.301  0.1293  0.1639 -0.0985
29152ION     NA49432   9.981   4.713   3.872  0.1016  0.1186 -0.3910
29153ION     NA49433   2.692   8.353   9.917  0.1900 -0.1113 -0.0896
29154ION     NA49434  17.005   1.998   9.468 -0.1491 -0.1069 -0.0670
29155ION     NA49435   2.006  19.251   9.712  0.2040 -0.1162  0.1718
29156ION     NA49436  19.044   7.129   9.748  0.1772 -0.0755 -0.1813
29157ION     NA49437   0.052   6.521  12.118  0.0450  0.2209 -0.3651
29158ION     NA49438   6.298  19.649   9.698  0.2597  0.0266 -0.0961
29159ION     NA49439  19.042  12.242   9.698 -0.0886  0.0029 -0.0336
29160ION     NA49440   0.279   8.408   9.784  0.0672 -0.3165  0.0223
29161ION     NA49441   9.882   6.861   5.023  0.0652 -0.1136  0.0990
29162ION     NA49442  17.594   2.989   4.245  0.1320  0.0559  0.0825
29163ION     NA49443   0.173  14.113   0.977  0.1286 -0.2722 -0.1663
29164ION     NA49444   6.182   1.644   9.352  0.1560 -0.3475  0.0390
29165ION     NA49445  10.704  18.751   9.738  0.0332 -0.4084  0.0019
29166ION     NA49446   4.908  15.923  10.081  0.2481  0.0971  0.1271
29167ION     NA49447  16.985   6.709   9.341 -0.4871 -0.1379  0.1132
29168ION     NA49448  18.906  10.592   2.627  0.2474 -0.0542 -0.1184
29169ION     NA49449   4.145   7.138   9.536 -0.2976  0.0887  0.1542
29170ION     NA49450  14.179  12.321   9.402  0.1708  0.0545 -0.1321
29171ION     NA49451  10.523   0.684   4.140  0.3449  0.1503 -0.2456
29172ION     NA49452  18.745   4.910   4.786 -0.3097  0.1330 -0.2263
29173ION     NA49453  19.230   0.522   2.402 -0.0452  0.0548  0.0438
29174ION     NA49454  17.686   9.359   9.407  0.3222  0.0884 -0.3825
29175ION     NA49455   3.136  10.951   9.708  0.2438 -0.1500 -0.0716
29176ION     NA49456   7.747  17.182   3.735 -0.0937  0.1254  0.2085
29177ION     NA49457   6.164  15.145   9.830  0.1186 -0.0261 -0.2037
29178ION     NA49458   8.008  12.872  13.272  0.1069 -0.1964 -0.1573
29179ION     NA49459   3.176  14.273   9.714  0.0422  0.0792  0.0317
29180ION     NA49460   6.501   1.690   4.444 -0.1999  0.6196  0.0575
29181ION     NA49461   1.613  16.195   4.744 -0.1090 -0.0124 -0.0563
29182ION     NA49462  14.855   8.833   9.367 -0.0863  0.1562  0.3374
29183ION     NA49463   7.560  13.149   4.931 -0.0859 -0.0652 -0.1483
29184ION     NA49464  18.101   6.318   4.722  0.0587  0.1119  0.1155
29185ION     NA49465  13.596  10.593   4.716 -0.0391 -0.2867  0.0450
29186ION     NA49466   6.139  17.902   3.016 -0.1183 -0.0857  0.1131
29187ION     NA49467   4.406   4.201   9.704 -0.3701 -0.0129 -0.3344
29188ION     NA49468   4.908  12.044   4.758  0.0531  0.0694 -0.0929
29189ION     NA49469   3.155  12.559   9.803  0.2225  0.1308 -0.1312
29190ION     NA49470   0.131  16.913  10.260  0.1048  0.0679 -0.0670
29191ION     NA49471   6.967  14.678   9.653 -0.1399  0.0489  0.0411
29192ION     NA49472   3.127  18.778  13.460  0.1181 -0.2433 -0.2318
29193ION     NA49473   9.548   5.392   9.863  0.3246  0.0714 -0.4258
29194ION     NA49474  17.464   3.520   4.859  0.1180 -0.1050  0.2654
29195ION     NA49475   9.160   2.102   4.462 -0.0109 -0.0907 -0.1592
29196ION     NA49476  16.944   7.022   4.558  0.0567 -0.0275 -0.0156
29197ION     NA49477   6.530  13.694  12.437 -0.1156 -0.1120  0.4985
29198ION     NA49478  19.581  15.162  10.267  0.1635 -0.2409  0.0062
29199ION     NA49479  16.426   1.438   9.058 -0.1378 -0.0519  0.3213
29200ION     NA49480  19.306   3.343   9.827 -0.2092 -0.3527 -0.0888
29201ION     NA49481  19.162  19.025  12.499 -0.2756  0.1316  0.1478
29202ION     NA49482  19.024   6.798   4.538 -0.2120  0.0423  0.2604
29203ION     NA49483   8.301   6.084   4.815 -0.1856  0.2402  0.1163
29204ION     NA49484   7.992   1.172   4.467  0.0493  0.0033 -0.0525
29205ION     NA49485   9.887   2.531  13.759 -0.0585  0.0319  0.2018
29206ION     NA49486  13.434   9.310   4.724 -0.2508 -0.3152  0.1662
29207ION     NA49487   3.350   1.603   4.344 -0.1803  0.1404  0.1995
29208ION     NA49488  19.043   1.242   9.130  0.1670 -0.2934 -0.0983
29209ION     NA49489  13.699   9.946   9.482  0.1474  0.2012  0.2615
29210ION     NA49490  12.181   4.631   4.354  0.1422 -0.1049  0.0973
29211ION     NA49491  15.708   8.431  10.240 -0.1840  0.0746 -0.1796
29212ION     NA49492   2.469   1.979   1.677  0.1535  0.1789  0.0746
29213ION     NA49493  15.747  14.555   9.437  0.0883  0.1524  0.0295
29214ION     NA49494   3.166  10.695   4.945  0.0262  0.2627  0.2565
29215ION     NA49495   7.332  18.260   4.705 -0.0998  0.0244 -0.1748
29216ION     NA49496  10.332  15.889   9.875  0.0237  0.1337 -0.1144
29217ION     NA49497   1.871   2.673   1.231  0.2030 -0.0525  0.4261
29218ION     NA49498   8.981  14.361   9.633 -0.2646  0.3454  0.0643
29219ION     NA49499   7.689  15.197   9.634 -0.1301  0.2354 -0.0171
29220ION     NA49500   4.426   9.730  10.255  0.0889 -0.2532 -0.1253
29221ION     NA49501   0.941  13.159   5.091  0.1000 -0.2427 -0.1914
29222ION     NA49502   6.694  13.667  10.538  0.2944 -0.0715  0.3750
29223ION     NA49503  12.085  10.208   5.107 -0.5505 -0.2162 -0.0626
29224ION     NA49504   4.701  18.805   9.246  0.2306  0.1514  0.2815
29225ION     NA49505  18.622  16.775   9.315  0.1139 -0.1335  0.1993
29226ION     NA49506  15.991   2.543   1.991 -0.2815  0.1118  0.3548
29227ION     NA49507  19.451   8.418   4.867 -0.2770 -0.0587  0.0045
29228ION     NA49508  16.584   3.228  10.051 -0.0960 -0.0982 -0.2594
29229ION     NA49509  12.709  14.235   2.362  0.0988  0.0647 -0.5125
29230ION     NA49510   3.409   9.976   9.852  0.0970  0.3582  0.0415
29231ION     NA49511  12.197  12.007   4.728  0.0928  0.2453 -0.1471
29232ION     NA49512  16.276   3.760   4.647 -0.1757  0.2037  0.0261
29233ION     NA49513   6.354   3.443  13.704 -0.1475  0.0492 -0.1344
29234ION     NA49514  14.198  17.257   9.302  0.0274  0.0253  0.1283
29235ION     NA49515   9.397  11.331   5.055  0.0919  0.0901  0.2392
29236ION     NA49516  11.825   0.693   9.549 -0.2157 -0.1332 -0.1011
29237ION     NA49517  13.570   2.295   9.095  0.0206  0.1483  0.1730
29238ION     NA49518  12.851  18.969   4.281  0.0186  0.2478 -0.2939
29239ION     NA49519  15.236  16.655   4.044 -0.0578  0.1574 -0.1717
29240ION     NA49520   9.877   3.877   9.228 -0.1184  0.1243 -0.1496
29241ION     NA49521   4.883   8.041   3.890 -0.0991  0.2373 -0.0966
29242ION     NA49522   6.004   2.313  10.050  0.2915  0.2898 -0.0333
29243ION     NA49523   2.343  16.034   4.614  0.0981 -0.1806 -0.1802
29244ION     NA49524   5.939  14.202  13.107  0.0696  0.4307 -0.1223
29245ION     NA49525   2.837   5.830   4.818 -0.0382  0.0832 -0.1589
29246ION     NA49526  16.897   2.601   3.546  0.1168 -0.2884 -0.0441
29247ION     NA49527   9.391  14.714   4.751  0.0001 -0.1166  0.1509
29248ION     NA49528   7.084   7.655   5.024  0.2034 -0.0181 -0.5230
29249ION     NA49529   6.624   4.887   9.820 -0.1406  0.0112  0.0388
29250ION     NA49530  12.704   6.695  12.877  0.0907  0.1447  0.2348
29251ION     NA49531   0.010   9.912   4.377 -0.1605 -0.0596 -0.4880
29252ION     NA49532   6.734  15.009   0.708 -0.0631 -0.2851 -0.2295
29253ION     NA49533  10.753  17.914   9.681  0.0597 -0.1523  0.0355
29254ION     NA49534  15.847  13.667   9.510 -0.1490 -0.1582  0.2226
29255ION     NA49535  11.538   1.623   4.669  0.0401  0.0049 -0.0819
29256ION     NA49536  17.935  19.491   9.553  0.0924  0.0100  0.2135
29257ION     NA49537  13.565   5.810   4.589  0.2423  0.1218 -0.1359
29258ION     NA49538  16.507   7.440   9.380 -0.0226  0.2075 -0.0441
29259ION     NA49539  11.507   9.591   2.125 -0.1644 -0.0247 -0.0715
29260ION     NA49540   3.357   3.551   1.925 -0.1077 -0.2011 -0.2882
29261ION     NA49541  16.317   1.676   2.195 -0.0050  0.0393  0.0543
29262ION     NA49542  19.301   3.079  11.669  0.1647  0.0157 -0.2388
29263ION     NA49543  11.701  11.587   1.960 -0.3722  0.0961 -0.2483
29264ION     NA49544   5.487   6.159  10.253 -0.0413 -0.0119 -0.3273
29265ION     NA49545  12.592   8.602   4.777 -0.0125  0.0515  0.0119
29266ION     NA49546   2.898   2.906   3.860  0.0530  0.2379  0.0343
29267ION     NA49547   9.228  13.071  12.075 -0.1647 -0.0383  0.0181
29268ION     NA49548   7.362   8.294  10.007  0.0077  0.2820  0.3101
29269ION     NA49549  15.097   5.126   4.085  0.2100  0.1187 -0.0192
29270ION     NA49550  11.586   2.916  10.812 -0.0206  0.0436 -0.0346
29271ION     NA49551  14.432  16.156   4.189  0.0461 -0.0406  0.3089
29272ION     NA49552  17.291   5.639  11.972  0.1962 -0.3176  0.3727
29273ION     NA49553  13.375  16.724  10.105  0.0338  0.0375  0.3120
29274ION     NA49554   0.229  14.996  10.652 -0.1616 -0.4593 -0.3000
29275ION     NA49555  10.518  13.516   5.136  0.0058  0.1350  0.1253
29276ION     NA49556   3.670  11.762   9.792  0.0407  0.0243 -0.1762
29277ION     NA49557  12.436  14.139   5.032  0.1229 -0.0974  0.0141
29278ION     NA49558  17.645   2.732   9.744  0.3356 -0.2825 -0.3864
29279ION     NA49559   6.969  10.492   4.389  0.1102  0.3654 -0.0823
29280ION     NA49560  18.553  13.721   9.550  0.0445  0.1378 -0.1571
29281ION     NA49561  17.962   5.398   9.657 -0.2851  0.0177  0.0456
29282ION     NA49562  13.442   3.384  13.826  0.1134  0.1018 -0.3127
29283ION     NA49563   0.993   3.603   4.494  0.1074 -0.0411 -0.2163
29284ION     NA49564   4.812  15.813   4.751  0.0721  0.0693 -0.0551
29285ION     NA49565   1.713  18.291   4.614  0.0184 -0.2570 -0.1840
29286ION     NA49566   8.777   8.767   5.073  0.1009  0.0762  0.1135
29287ION     NA49567   9.737   4.763   9.296  0.2620  0.0347 -0.3760
29288ION     NA49568  16.896   5.470   4.235  0.1844 -0.2557 -0.1483
29289ION     NA49569   8.928   8.545   3.340 -0.0687 -0.0874 -0.1374
29290ION     NA49570  17.686  16.480   9.217  0.1061  0.2336  0.1750
29291ION     NA49571   7.446  17.262   4.537 -0.0106 -0.0114  0.2196
29292ION     NA49572   5.425  19.767   4.415 -0.0072 -0.0041  0.1332
29293ION     NA49573  15.467  12.014   9.871  0.1731 -0.0484 -0.1604
29294ION     NA49574  10.048   0.911   0.906 -0.2260 -0.1279 -0.1849
29295ION     NA49575  16.190  12.238   4.423  0.2978  0.2797  0.0278
29296ION     NA49576   3.816   4.287   4.785  0.0336 -0.2590  0.1160
29297ION     NA49577  19.704  11.033   3.452  0.4017 -0.3413  0.1019
29298ION     NA49578   1.008   8.629  13.665  0.0659  0.3461  0.1367
29299ION     NA49579  12.054  17.811   9.884  0.0367  0.0017 -0.4145
29300ION     NA49580  14.829   5.136   4.659 -0.0032  0.2100  0.2312
29301ION     NA49581   4.742  12.749   9.457 -0.2645 -0.0438  0.0889
29302ION     NA49582   6.182   0.669   4.458  0.0256 -0.0874  0.0700
29303ION     NA49583   1.798   3.998   4.873 -0.2917  0.2768 -0.0441
29304ION     NA49584  13.358  15.882   3.876  0.0749 -0.2013 -0.0434
29305ION     NA49585   7.256  19.122   4.293  0.3174  0.0326  0.2719
29306ION     NA49586  10.020  10.595   9.961 -0.1505  0.0697 -0.0502
29307ION     NA49587  19.414   9.728   2.536 -0.1385  0.3413  0.0016
29308ION     NA49588  11.505   4.794   9.243 -0.2744  0.0307 -0.2307
29309ION     NA49589   4.434   8.324   1.355 -0.2287 -0.0880 -0.2719
29310ION     NA49590  15.220   7.977   9.464 -0.0200 -0.0193 -0.0503
29311ION     NA49591  17.305  14.595  13.685 -0.0929 -0.1242 -0.2023
29312ION     NA49592  18.361   3.349   4.607  0.0230  0.3619 -0.1540
29313ION     NA49593  17.064  13.846   4.481 -0.1833 -0.2541  0.0450
29314ION     NA49594  12.916  19.671   9.162 -0.3236 -0.1141  0.3355
29315ION     NA49595  12.763   3.798   4.469  0.1334 -0.0470  0.2813
29316ION     NA49596   0.343   4.146   4.824 -0.0413 -0.0533 -0.1737
29317ION     NA49597   1.954  10.302  10.873 -0.0131 -0.1250  0.1652
29318ION     NA49598  16.554   6.171   0.780  0.0629 -0.1000 -0.1738
29319ION     NA49599  15.611   4.599   1.233  0.1869  0.0249  0.0253
29320ION     NA49600   5.327  17.493   4.991  0.2530 -0.0330  0.0750
29321ION     NA49601   4.843   8.802  10.029  0.0939  0.1927  0.0579
29322ION     NA49602  19.046  16.390   9.458 -0.0236  0.3051  0.1978
29323ION     NA49603  15.791  17.495  14.068  0.2501 -0.0440  0.0049
29324ION     NA49604   5.262  16.994  13.552  0.0584 -0.1589  0.0924
29325ION     NA49605  18.789  12.256   3.382 -0.5050  0.0689 -0.2151
29326ION     NA49606  18.719   3.706   2.749 -0.1856 -0.1679  0.0682
29327ION     NA49607   7.109  15.889   5.012  0.2098  0.1348 -0.0977
29328ION     NA49608   2.410  14.649   9.728 -0.3901 -0.0271  0.0293
29329ION     NA49609   4.043   1.562   0.570 -0.1626 -0.0869 -0.0258
29330ION     NA49610  10.760  12.630   5.134 -0.1741 -0.0225  0.1312
29331ION     NA49611   2.800   9.434   5.178  0.1139  0.0640  0.3180
29332ION     NA49612  11.374  18.132   2.323 -0.2104  0.2391  0.4098
29333ION     NA49613   2.168   7.233   5.085  0.0193 -0.1955 -0.0254
29334ION     NA49614  10.798  16.053   4.922 -0.2497 -0.0172 -0.1175
29335ION     NA49615   2.820   5.782   9.653 -0.1048  0.0380  0.1080
29336ION     NA49616  19.628   5.353   9.601  0.0231  0.1262  0.0207
29337ION     NA49617   1.022   5.012   2.172  0.2344 -0.0899 -0.1988
29338ION     NA49618   2.534   9.142   4.912 -0.0500 -0.0986  0.0688
29339ION     NA49619   4.408   8.658  10.280  0.0551  0.0985  0.0831
29340ION     NA49620  10.755  16.039   2.108  0.1871 -0.0178 -0.0697
29341ION     NA49621  16.010  16.347   4.446  0.0174  0.1776  0.0205
29342ION     NA49622   1.337   5.321   5.005 -0.1146 -0.1511 -0.3011
29343ION     NA49623   6.196  11.099   3.416  0.0104 -0.1457 -0.0195
29344ION     NA49624  16.834  14.684   9.643 -0.1178  0.1469 -0.0104
29345ION     NA49625  12.505   8.399   4.272 -0.0491 -0.3353 -0.0557
29346ION     NA49626   6.818   9.656   9.635  0.1238  0.1777 -0.2567
29347ION     NA49627  18.302   8.838   9.348  0.1446  0.3298 -0.1512
29348ION     NA49628  17.956  16.310   1.387  0.0674 -0.0412 -0.1923
29349ION     NA49629  19.519   4.645   4.718  0.0567  0.1874  0.0842
29350ION     NA49630  17.542   9.181   4.708 -0.0171  0.1331 -0.4200
29351ION     NA49631   8.645  16.323   4.697 -0.1622  0.0241  0.2281
29352ION     NA49632   7.076   8.860   5.015  0.0013 -0.0215  0.0092
29353ION     NA49633   4.013   2.290   9.160 -0.0220  0.1605  0.2186
29354ION     NA49634   7.517   9.837   1.924 -0.0456 -0.1074 -0.0638
29355ION     NA49635   9.605  11.705  12.309 -0.2877  0.1043  0.2240
29356ION     NA49636   0.322  11.496  10.439  0.1292  0.4446 -0.0210
29357ION     NA49637   1.791  17.756   9.412  0.2537  0.0299 -0.1232
29358ION     NA49638  11.929   6.994   2.510  0.0762 -0.0912  0.0618
29359ION     NA49639  19.409  18.255   9.902 -0.1201 -0.2068 -0.1527
29360ION     NA49640  12.778   5.476   9.540  0.0144  0.0925  0.0359
29361ION     NA49641   3.170   6.758   2.788  0.2539 -0.0443 -0.1342
29362ION     NA49642  15.681   2.692   9.782  0.3050 -0.2712 -0.5255
29363ION     NA49643   3.931   0.970   3.195  0.1999 -0.0095 -0.0882
29364ION     NA49644  12.481   7.265   9.558 -0.1369 -0.0320  0.0121
29365ION     NA49645   9.536   1.732   9.286  0.1642  0.2911 -0.1015
29366ION     NA49646  15.529   7.451  12.124  0.0197  0.4435  0.1848
29367ION     NA49647   1.079   4.435   4.280  0.3314  0.0017  0.2974
29368ION     NA49648   9.705   4.160   4.465 -0.4085  0.1371  0.0428
29369ION     NA49649  18.064   2.079   4.379  0.0774  0.0228 -0.0552
29370ION     NA49650  18.211   0.886   4.549  0.1187 -0.1579  0.0797
29371ION     NA49651   6.419   6.047   9.941 -0.1267  0.1394  0.1598
29372ION     NA49652   8.862   5.747  12.100  0.2707 -0.0065  0.1006
29373ION     NA49653   5.523   1.740   1.670 -0.1842  0.4599 -0.0214
29374ION     NA49654   3.412  13.414   0.944 -0.1997  0.0095 -0.1126
29375ION     NA49655  19.040  19.724  10.591  0.0136  0.0515 -0.2410
29376ION     NA49656   7.842   0.735   9.265 -0.0201  0.1358  0.1258
29377ION     NA49657  13.517  13.519   4.849 -0.0108 -0.0796  0.0961
29378ION     NA49658  14.039  12.346  12.743 -0.2006 -0.0270  0.1761
29379ION     NA49659   1.074   5.720   9.529 -0.0662 -0.1926  0.0152
29380ION     NA49660  14.152  17.937   4.097  0.3153  0.1538 -0.1500
29381ION     NA49661  13.405   3.653   9.343  0.1280  0.3138  0.0486
29382ION     NA49662   6.023  15.495   0.156  0.1073  0.1918 -0.0511
29383ION     NA49663  13.261   3.105  12.803 -0.0934  0.1196 -0.0644
29384ION     NA49664  10.769  14.329   4.778  0.0501 -0.3777  0.0469
29385ION     NA49665   3.660   4.952   9.536  0.0794 -0.0229 -0.0098
29386ION     NA49666  16.447   7.167   4.364 -0.2639 -0.4090  0.1204
29387ION     NA49667  11.575  19.215   3.872 -0.1167 -0.0238 -0.0144
29388ION     NA49668  16.300  15.526   4.242 -0.0078  0.2991  0.3213
29389ION     NA49669  10.415  16.428   9.669  0.1012  0.0228  0.0043
29390ION     NA49670  15.722  12.856   9.624  0.0320 -0.5276  0.1337
29391ION     NA49671  17.136  18.786   9.553  0.1239  0.1481  0.0326
29392ION     NA49672   0.508   7.229  13.692  0.1650 -0.1166 -0.1330
29393ION     NA49673   2.133   9.428   0.884  0.1699 -0.2847 -0.2510
29394ION     NA49674   0.838   7.419   2.585 -0.0886  0.0770  0.0888
29395ION     NA49675  14.641  16.322   0.253 -0.1369 -0.2660  0.1252
  19.78480  19.78480  14.10711
